G1.5-PAMAM in water
27270
    1aaa     C1    1   6.262   1.363   3.837 -0.0842  0.0255 -0.0890
    1aaa     H1    2   6.276   1.340   3.731 -0.4164 -0.9262  0.0608
    1aaa     H2    3   6.331   1.297   3.891 -1.0118  0.0720  1.1956
    1aaa     C2    4   6.114   1.327   3.862 -0.0020  0.0242  0.1391
    1aaa     H3    5   6.056   1.367   3.778 -1.6220  0.4180  1.4083
    1aaa     H4    6   6.096   1.219   3.863 -2.2097  0.3131 -1.2810
    1aaa     N1    7   6.058   1.375   3.994 -0.7454 -0.7122  0.2909
    1aaa     N2    8   6.300   1.501   3.867 -0.1991  0.5933 -0.2026
    1aaa     C3    9   6.230   1.597   3.781  0.3452 -0.4300 -0.1328
    1aaa     H5   10   6.121   1.580   3.783  0.0753  1.0552 -0.6652
    1aaa     H6   11   6.248   1.565   3.678  1.9356  0.3430 -0.1268
    1aaa     C4   12   6.451   1.506   3.861  0.4428 -0.2923  0.1574
    1aaa     H7   13   6.489   1.447   3.777 -0.6784 -0.2729 -0.3845
    1aaa     H8   14   6.493   1.607   3.856 -0.1319 -0.0965 -1.6222
    1aaa     C5   15   6.107   1.306   4.116  0.5712  0.3377 -0.1031
    1aaa     H9   16   6.065   1.205   4.113  1.8887 -0.2389  0.1391
    1aaa    H10   17   6.217   1.301   4.116  1.0535  4.3714  3.6016
    1aaa     C6   18   5.916   1.413   3.989  0.0261 -0.3414  0.0623
    1aaa    H11   19   5.898   1.468   3.896 -0.1414 -1.4618 -0.5922
    1aaa    H12   20   5.893   1.484   4.069 -2.1997 -0.8659 -0.0373
    1aaa     C7   21   6.067   1.372   4.246 -0.5656  0.1618 -1.0173
    1aaa    H13   22   6.070   1.482   4.245 -1.0582  0.1889 -0.5391
    1aaa    H14   23   5.959   1.356   4.260 -0.8121  2.0650 -0.3823
    1aaa     C8   24   5.830   1.289   3.974  0.5366 -0.0079 -0.2505
    1aaa    H15   25   5.852   1.218   3.893 -2.1327  0.3029 -1.3578
    1aaa    H16   26   5.838   1.232   4.068 -0.8118  1.9733  1.1591
    1aaa     C9   27   6.516   1.444   3.985  0.1835 -0.1702  0.3799
    1aaa    H17   28   6.466   1.479   4.075 -1.5757 -0.5405 -0.4158
    1aaa    H18   29   6.503   1.335   3.992 -0.2794 -0.0744  1.1000
    1aaa    C10   30   6.258   1.737   3.811  0.2093  0.2460 -0.1675
    1aaa    H19   31   6.230   1.768   3.912  1.5207 -1.1153  0.6575
    1aaa    H20   32   6.362   1.766   3.788 -0.0159  0.6105 -0.7687
    1aaa    C11   33   6.653   1.488   4.001  0.9618  0.3393 -0.1832
    1aaa    C12   34   6.179   1.837   3.729 -0.1877  0.7202  1.3328
    1aaa    C13   35   6.146   1.313   4.367  0.7511  0.5109  0.1549
    1aaa    C14   36   5.682   1.315   3.947  0.4975  0.0182  0.3927
    1aaa     O1   37   6.726   1.454   3.910 -0.2453 -0.1580 -0.7099
    1aaa     O2   38   6.269   1.309   4.377  0.3734 -0.2683 -0.1176
    1aaa     O3   39   5.622   1.421   3.939 -0.1921  0.0662  0.1590
    1aaa     O4   40   6.110   1.797   3.635 -0.1917  0.5398  0.2030
    2bbb     C1   41   6.816   1.772   4.052  0.4998  0.1226  0.5927
    2bbb     H1   42   6.768   1.838   4.125 -0.7976 -2.1210  1.9033
    2bbb     H2   43   6.758   1.760   3.960 -1.1495  1.5551  1.3962
    2bbb     C2   44   6.825   1.632   4.120 -0.1181  0.7692 -0.3357
    2bbb     H3   45   6.906   1.571   4.080 -0.7126 -0.2926  0.0468
    2bbb     H4   46   6.837   1.638   4.229  0.7127 -3.1372 -0.0764
    2bbb     N1   47   6.955   1.816   4.039  0.1658 -0.0967  0.0782
    2bbb     C3   48   7.025   1.807   3.908 -0.0449 -0.3170  0.0215
    2bbb     H5   49   7.134   1.817   3.917 -0.0180 -1.2851  1.0127
    2bbb     H6   50   6.995   1.889   3.842 -2.1996 -2.1306 -1.4294
    2bbb     C4   51   6.987   1.944   4.089  0.2478 -0.2591 -0.2734
    2bbb     H7   52   7.090   1.972   4.065  0.5162 -0.0071  1.0653
    2bbb     H8   53   6.922   2.024   4.051  0.0082  0.3790  1.3957
    2bbb     C5   54   6.979   1.945   4.238  0.3967  1.2080  0.1978
    2bbb     H9   55   6.882   1.908   4.275  1.2363 -0.6911  0.6045
    2bbb    H10   56   7.058   1.884   4.282  0.4938  0.2677 -1.2220
    2bbb     C6   57   7.002   1.677   3.830 -0.4242  0.2106  0.2614
    2bbb    H11   58   6.900   1.637   3.834 -0.8258  1.1132 -0.5541
    2bbb    H12   59   7.027   1.702   3.726 -0.0890  1.1473  0.5580
    2bbb     C7   60   7.001   2.090   4.277 -1.3557 -0.5274 -0.0360
    2bbb     C8   61   7.112   1.566   3.854  0.6905 -0.5308 -0.1251
    2bbb     O1   62   7.112   2.138   4.293  0.1793 -1.2104 -0.1993
    2bbb     O2   63   7.225   1.580   3.807  0.5797 -0.1337  0.1342
    2bbb     N4   64   6.695   1.564   4.110  0.6537 -0.0429 -0.8368
    2bbb    H21   65   6.624   1.580   4.181 -1.5761 -2.6321 -2.2583
    3bbb     C1   66   6.285   2.125   3.586  0.0035 -0.1926 -0.2204
    3bbb     H1   67   6.308   2.039   3.521  2.4496  0.4061 -0.2612
    3bbb     H2   68   6.373   2.136   3.651 -0.8561 -0.3689  0.9878
    3bbb     C2   69   6.159   2.093   3.682 -0.0143  0.5115 -0.1910
    3bbb     H3   70   6.154   2.178   3.751 -2.0009  0.7870 -0.6151
    3bbb     H4   71   6.071   2.082   3.618 -0.5497  2.4551  0.1650
    3bbb     N1   72   6.258   2.245   3.500 -0.8671  0.1109 -0.5839
    3bbb     C3   73   6.232   2.376   3.567 -0.0022 -0.2617  0.9056
    3bbb     H5   74   6.151   2.359   3.638  1.1292  0.3908  2.3996
    3bbb     H6   75   6.205   2.443   3.485 -0.1427 -0.5138  0.7415
    3bbb     C4   76   6.161   2.222   3.394  0.0937  0.1331  0.0534
    3bbb     H7   77   6.200   2.125   3.363  1.3628  0.3235  0.9876
    3bbb     H8   78   6.055   2.218   3.424 -0.3148  0.5520 -1.2676
    3bbb     C5   79   6.170   2.314   3.275 -0.1066  0.2417 -0.3576
    3bbb     H9   80   6.128   2.410   3.308 -0.4008 -0.1145  0.3352
    3bbb    H10   81   6.274   2.318   3.242  0.7675 -0.5431  2.0593
    3bbb     C6   82   6.345   2.432   3.647 -0.0335  0.2646  0.8182
    3bbb    H11   83   6.361   2.371   3.736 -2.1330  0.0530  1.0964
    3bbb    H12   84   6.440   2.433   3.591 -1.3029 -0.0695 -1.4904
    3bbb     C7   85   6.074   2.250   3.178 -0.7416  0.0541 -0.5564
    3bbb     C8   86   6.312   2.574   3.677 -0.1396  0.0942 -0.8103
    3bbb     O1   87   6.075   2.134   3.147 -0.8594  0.5163  0.2076
    3bbb     O2   88   6.349   2.669   3.608  0.0753 -0.5494 -0.4089
    3bbb     N4   89   6.186   1.972   3.770  0.1162  1.0778 -0.0429
    3bbb    H21   90   6.245   1.988   3.851  0.0412 -0.9810  0.4745
    4bbb     C1   91   5.978   1.197   4.686  0.4745  0.3785  0.1993
    4bbb     H1   92   5.960   1.089   4.692  1.4960  0.1538 -0.4558
    4bbb     H2   93   5.894   1.236   4.628 -0.6178 -2.2604 -0.1143
    4bbb     C2   94   6.103   1.224   4.603 -0.2259  0.8078  0.7780
    4bbb     H3   95   6.171   1.294   4.653  1.1805 -1.8987  2.9558
    4bbb     H4   96   6.159   1.131   4.588 -1.7230 -0.0082 -0.0167
    4bbb     N1   97   5.980   1.251   4.825  0.1895  0.2074 -0.2572
    4bbb     C3   98   6.073   1.172   4.907 -0.0971  0.3895 -0.0247
    4bbb     H5   99   6.147   1.122   4.844 -0.0301  1.7310 -1.0581
    4bbb     H6  100   6.026   1.093   4.967 -2.2584  0.8858 -0.9532
    4bbb     C4  101   5.848   1.254   4.897  0.7180  0.7465  0.9026
    4bbb     H7  102   5.806   1.154   4.916  0.5759 -0.0758 -2.9479
    4bbb     H8  103   5.866   1.306   4.992  1.7202 -1.9818  2.3318
    4bbb     C5  104   5.739   1.335   4.832  0.4888  0.2541 -0.2611
    4bbb     H9  105   5.785   1.432   4.809 -0.0600  0.3448 -1.0132
    4bbb    H10  106   5.687   1.292   4.746  1.5937  0.8372 -1.2474
    4bbb     C6  107   6.137   1.271   5.000  0.7148  0.4128  0.1801
    4bbb    H11  108   6.192   1.337   4.932  0.3876  0.2265 -0.2700
    4bbb    H12  109   6.057   1.303   5.067 -1.2121  0.0562 -1.8361
    4bbb     C7  110   5.630   1.356   4.932 -0.1355  0.2946  0.1645
    4bbb     C8  111   6.228   1.190   5.090  0.1969  0.3630  0.0424
    4bbb     O1  112   5.637   1.447   5.016  0.3134  0.4270  0.1928
    4bbb     O2  113   6.179   1.108   5.161 -0.6094 -0.4880 -0.1998
    4bbb     N4  114   6.061   1.276   4.469  0.3342  0.1723  0.6093
    4bbb    H21  115   5.962   1.286   4.447  0.3810 -1.2882 -0.4152
    5bbb     C1  116   5.419   1.104   4.062  0.4334  0.4857  0.3691
    5bbb     H1  117   5.479   1.013   4.072 -2.2201 -1.6548 -1.6651
    5bbb     H2  118   5.323   1.063   4.029  1.1491 -0.6934 -0.3335
    5bbb     C2  119   5.462   1.183   3.945 -0.2651 -0.6244  0.2652
    5bbb     H3  120   5.429   1.132   3.854  1.6922 -0.8598 -0.3472
    5bbb     H4  121   5.405   1.277   3.945 -0.3120 -0.6336  1.5864
    5bbb     N1  122   5.423   1.186   4.180  0.6818  0.2017  0.1277
    5bbb     C3  123   5.550   1.197   4.256 -0.0338 -0.2587  0.4896
    5bbb     H5  124   5.636   1.180   4.191  0.4410  3.7696 -0.1997
    5bbb     H6  125   5.555   1.110   4.322  0.7511 -1.7543 -1.4565
    5bbb     C4  126   5.306   1.164   4.266  0.9598  0.3883 -0.3022
    5bbb     H7  127   5.305   1.061   4.304  1.3529  0.0411 -1.1980
    5bbb     H8  128   5.324   1.222   4.357  1.1872 -2.7851  1.8454
    5bbb     C5  129   5.174   1.210   4.216  0.6853 -0.0499  0.9979
    5bbb     H9  130   5.177   1.314   4.182 -1.6169  0.1492  1.2316
    5bbb    H10  131   5.129   1.145   4.140  0.8119  0.6369  0.3208
    5bbb     C6  132   5.564   1.333   4.323  0.1818 -0.1414  0.0044
    5bbb    H11  133   5.576   1.409   4.245  2.5390  1.6334  1.9437
    5bbb    H12  134   5.478   1.345   4.389 -0.1986 -2.9465  0.1566
    5bbb     C7  135   5.081   1.216   4.334  0.4040  0.1410  0.6223
    5bbb     C8  136   5.690   1.339   4.407 -0.1853  0.9311  0.1316
    5bbb     O1  137   5.060   1.325   4.381  0.2982 -0.4285 -0.0884
    5bbb     O2  138   5.777   1.254   4.406  0.2788  0.0919 -0.3315
    5bbb     N4  139   5.608   1.200   3.936 -0.8458  0.0864 -0.5039
    5bbb    H21  140   5.668   1.119   3.948 -3.0957 -1.6922 -0.6800
    6ccc     N1  141   6.889   2.169   4.293 -0.3335  0.5466 -0.3992
    6ccc     H4  142   6.804   2.120   4.268 -1.0656  1.4560  0.2652
    6ccc     C3  143   6.890   2.300   4.359 -0.3898 -0.0803 -0.0360
    6ccc     H5  144   6.950   2.299   4.450 -0.2947  2.4246  0.0099
    6ccc     C4  145   6.752   2.364   4.385  0.4876 -0.2969 -0.2096
    6ccc     H6  146   6.940   2.375   4.297 -1.8066  0.2258 -0.8638
    6ccc     H7  147   6.718   2.384   4.283 -0.9128  0.2707  0.3437
    6ccc     H8  148   6.759   2.463   4.433 -0.4792 -0.6489  0.6950
    6ccc     N2  149   6.661   2.277   4.462  0.6958 -0.4674 -0.0283
    6ccc     C5  150   6.724   2.242   4.584  0.3457  0.5871  0.4641
    6ccc     C6  151   6.529   2.336   4.485 -1.1560 -0.1835  0.8188
    6ccc     H9  152   6.470   2.263   4.541 -1.2616 -1.3438 -0.7464
    6ccc     C7  153   6.459   2.377   4.355 -0.0553 -0.0723 -0.0379
    6ccc    H10  154   6.540   2.433   4.536 -1.0012  0.9712 -1.2904
    6ccc    H11  155   6.460   2.291   4.287 -0.4822 -0.4643  0.4412
    6ccc    H12  156   6.509   2.458   4.301  2.1377 -0.5031  1.1856
    6ccc     C8  157   6.316   2.418   4.380  0.2369 -0.1168  0.3676
    6ccc     O2  158   6.251   2.403   4.486 -0.6873 -0.1320 -0.1657
    6ccc    H13  159   6.727   2.328   4.652 -1.8991  0.5626  0.6739
    6ccc    H14  160   6.831   2.218   4.573 -0.0891 -1.0994 -0.4283
    6ccc     C9  161   6.664   2.113   4.641 -0.2178  0.4972  0.0019
    6ccc    H15  162   6.664   2.030   4.569 -1.4884 -0.8671  1.4902
    6ccc    H16  163   6.563   2.135   4.679 -0.2638  0.5637 -0.1612
    6ccc    C10  164   6.741   2.059   4.757  0.3346  0.2906 -0.4598
    6ccc     O4  165   6.838   2.118   4.808  0.1701  0.7198 -0.6100
    6ccc    C11  166   5.847   2.578   4.371  0.5000 -0.0328  0.1990
    6ccc    C12  167   5.952   2.689   4.341  0.3694  0.3354 -0.5909
    6ccc    H17  168   5.847   2.547   4.476  0.2550  0.5996  0.3915
    6ccc    C13  169   6.096   2.637   4.351 -0.2404  0.1311 -0.1518
    6ccc    C14  170   6.120   2.522   4.255  1.3564 -0.0979 -0.5082
    6ccc    C15  171   6.009   2.416   4.284  0.4697  0.8845  0.0073
    6ccc    H18  172   6.107   2.565   4.155 -2.2771  0.6851  0.1739
    6ccc    H19  173   6.101   2.585   4.447  1.5483 -1.1306 -0.8783
    6ccc    H20  174   6.025   2.359   4.376 -1.2890  1.2223  0.5677
    6ccc     O1  175   6.022   2.313   4.183 -0.0558 -0.7986  0.4895
    6ccc     O6  176   6.201   2.737   4.347 -0.4507  0.3988  0.5631
    6ccc    C16  177   5.702   2.633   4.347  0.3139  0.0100 -0.2569
    6ccc    H21  178   6.261   2.714   4.421 -0.4588  3.7264  1.7545
    6ccc    H22  179   6.324   2.490   4.195 -1.1597 -1.5716 -0.9607
    6ccc    H23  180   5.687   2.704   4.429  0.2165  0.1704 -0.4114
    6ccc    H24  181   5.637   2.548   4.368  1.1992 -0.3759  1.0296
    6ccc     O7  182   5.688   2.696   4.216 -0.2928  0.1249 -0.9415
    6ccc    H25  183   5.686   2.619   4.157  1.9087 -0.1352 -0.7398
    6ccc     O8  184   5.871   2.466   4.276  0.2639  0.4383 -0.3796
    6ccc    H26  185   5.925   2.305   4.181 -0.3020  1.2768  1.3385
    6ccc    H27  186   5.940   2.726   4.238  0.7797  0.7991 -0.4780
    6ccc     O9  187   5.933   2.797   4.439  0.0308 -0.5115  0.1325
    6ccc    H28  188   5.978   2.870   4.395 -0.7879  0.0255  0.1628
    6ccc     N3  189   6.261   2.473   4.273 -0.7851 -0.0949 -0.3101
    6ccc    C17  190   6.965   1.810   5.140  0.3821 -0.2297  0.0832
    6ccc    C18  191   6.821   1.865   5.167  0.2252 -0.1253 -0.6142
    6ccc    H29  192   7.026   1.899   5.118 -2.2204  1.4402 -0.8312
    6ccc    C19  193   6.762   1.949   5.055 -0.5414 -0.4442  0.4240
    6ccc    C20  194   6.757   1.868   4.927  0.1211  0.1318  0.5937
    6ccc    C21  195   6.900   1.804   4.902  0.0719 -0.1156  0.3798
    6ccc    H30  196   6.695   1.779   4.941  0.1888  0.0209  0.2226
    6ccc    H31  197   6.837   2.028   5.040 -0.8784  0.0241  1.0916
    6ccc    H32  198   6.973   1.881   4.871 -0.7926  0.4671 -0.2706
    6ccc    O10  199   6.900   1.719   4.794  0.2925  0.2734  0.3933
    6ccc    O11  200   6.627   2.003   5.083 -0.7116  0.0957 -0.6437
    6ccc    C22  201   7.026   1.714   5.244 -0.2891 -0.5662  0.5379
    6ccc    H33  202   6.632   2.059   5.162 -1.2410 -0.2360 -0.3740
    6ccc    H34  203   6.615   1.895   4.774  0.2446 -0.1197  1.2412
    6ccc    H35  204   7.046   1.767   5.337 -2.3653 -1.5994  1.6379
    6ccc    H36  205   7.117   1.674   5.197  1.1937  2.4257  0.6223
    6ccc    O12  206   6.927   1.611   5.266  0.9806 -0.2369  0.3833
    6ccc    H37  207   6.967   1.568   5.344  1.8248 -0.3456 -0.1011
    6ccc    O13  208   6.947   1.730   5.013 -0.0793 -0.8789 -0.5181
    6ccc    H38  209   6.970   1.654   4.812  1.1096 -0.9212 -5.2662
    6ccc    H39  210   6.758   1.776   5.183  0.3681 -0.1217  0.0246
    6ccc     O5  211   6.825   1.953   5.278 -0.3291  0.1590 -0.0213
    6ccc    H40  212   6.780   1.908   5.351  0.1581 -0.2126  0.0568
    6ccc     N4  213   6.696   1.947   4.807  0.8292 -0.1370 -0.0993
    7ccc     N1  214   7.065   1.454   3.917 -0.3900 -0.3408 -0.3674
    7ccc     H4  215   6.971   1.453   3.955 -0.0205  2.1289  0.7896
    7ccc     C3  216   7.151   1.345   3.959 -0.5530 -0.4628  0.1255
    7ccc     H5  217   7.111   1.249   3.926 -0.2354 -0.1220 -1.3291
    7ccc     C4  218   7.186   1.355   4.107 -0.3018 -0.8107  0.1536
    7ccc     H6  219   7.245   1.353   3.902 -0.1492 -3.9034  0.0911
    7ccc     H7  220   7.254   1.441   4.110  1.2472 -1.9395 -1.0639
    7ccc     H8  221   7.241   1.265   4.137 -0.6739 -0.2447  2.7614
    7ccc     N2  222   7.071   1.366   4.186  0.0903  0.2266  0.4143
    7ccc     C5  223   7.001   1.235   4.185 -0.0404 -0.7592  0.7503
    7ccc     C6  224   7.099   1.406   4.327  0.5182  0.6804  1.6166
    7ccc     H9  225   7.015   1.388   4.395  0.0580 -0.8215  0.6848
    7ccc     C7  226   7.128   1.557   4.340 -0.4655  0.4684  0.3195
    7ccc    H10  227   7.185   1.350   4.366  0.1000  0.9464  2.9775
    7ccc    H11  228   7.032   1.608   4.352 -0.8895 -0.2263 -0.0685
    7ccc    H12  229   7.180   1.598   4.252 -0.3765  0.6156  0.4397
    7ccc     C8  230   7.216   1.580   4.458  0.3136 -0.7898 -0.2745
    7ccc     O2  231   7.252   1.498   4.541 -0.0331 -0.5836  0.6462
    7ccc    H13  232   7.057   1.164   4.248  0.7899 -2.6219 -1.8874
    7ccc    H14  233   7.007   1.188   4.085  0.6628 -1.4503  1.1076
    7ccc     C9  234   6.862   1.234   4.231  0.1387  0.6502 -0.5486
    7ccc    H15  235   6.814   1.318   4.179 -1.0581  0.5957  0.4349
    7ccc    H16  236   6.857   1.258   4.338  0.1454 -1.2178 -0.1065
    7ccc    C10  237   6.786   1.098   4.218  0.3308  0.5477 -0.3204
    7ccc     O4  238   6.831   0.988   4.198 -0.0706  0.0505 -0.3257
    7ccc    C11  239   7.584   1.686   4.730 -0.3438 -0.1407  0.8791
    7ccc    C12  240   7.621   1.711   4.579 -0.5066 -0.2850  0.0271
    7ccc    H17  241   7.563   1.581   4.752  0.5550 -0.5452 -0.1382
    7ccc    C13  242   7.505   1.692   4.480  0.9251  0.0714 -0.5014
    7ccc    C14  243   7.377   1.751   4.543 -0.1339  0.2508  0.1259
    7ccc    C15  244   7.359   1.729   4.702 -0.2656 -0.5853  0.6640
    7ccc    H18  245   7.388   1.860   4.550 -1.7874  0.3466  2.3680
    7ccc    H19  246   7.501   1.583   4.467  1.7092  0.2407 -2.3960
    7ccc    H20  247   7.342   1.622   4.719 -0.4294 -0.3011  2.4057
    7ccc     O1  248   7.258   1.814   4.756 -0.0479  0.0550 -0.2718
    7ccc     O6  249   7.541   1.757   4.360 -0.8292 -1.0260  0.1823
    7ccc    C16  250   7.695   1.722   4.819  0.2773 -0.4148 -0.2984
    7ccc    H21  251   7.577   1.688   4.301 -0.1077 -0.0555 -0.5428
    7ccc    H22  252   7.250   1.760   4.382  1.4080  1.4568  1.0809
    7ccc    H23  253   7.706   1.830   4.810 -0.2448 -0.2690  0.6990
    7ccc    H24  254   7.791   1.684   4.783  0.2594 -0.5036 -0.2539
    7ccc     O7  255   7.669   1.680   4.954 -0.0593  0.1410 -0.1769
    7ccc    H25  256   7.577   1.699   4.976 -0.4867 -2.5084  0.6541
    7ccc     O8  257   7.470   1.776   4.768 -0.0342  0.1069 -0.1021
    7ccc    H26  258   7.270   1.818   4.852 -0.8435 -2.3202 -0.0091
    7ccc    H27  259   7.642   1.819   4.582 -0.8397 -0.0402 -3.0847
    7ccc     O9  260   7.732   1.633   4.529  0.2490 -0.1693  0.0686
    7ccc    H28  261   7.711   1.541   4.552  1.2236 -0.6921 -1.0392
    7ccc     N3  262   7.267   1.706   4.466 -0.3768 -0.7484  0.1287
    7ccc    C17  263   6.269   0.974   4.225 -0.2103 -0.7032  0.4774
    7ccc    C18  264   6.344   0.962   4.090 -0.5542  0.5267 -0.7563
    7ccc    H29  265   6.239   1.078   4.242  1.6845  0.0235 -0.3799
    7ccc    C19  266   6.467   1.053   4.101 -0.1112 -0.3466  0.4065
    7ccc    C20  267   6.554   1.020   4.224  0.2041  0.5743 -1.1670
    7ccc    C21  268   6.466   1.012   4.356  0.1613  0.4159 -0.0725
    7ccc    H30  269   6.596   0.919   4.214  1.0917  0.6002  1.5900
    7ccc    H31  270   6.419   1.149   4.120  0.6829 -0.0498  0.9441
    7ccc    H32  271   6.427   1.112   4.377 -0.8765  0.3894 -1.6537
    7ccc    O10  272   6.546   0.942   4.461  0.4780 -0.5396 -0.3020
    7ccc    O11  273   6.543   1.059   3.978 -0.1062 -0.1427 -0.5008
    7ccc    C22  274   6.139   0.897   4.220 -0.1125  0.3693  0.0394
    7ccc    H33  275   6.563   0.966   3.957 -0.0418 -1.0424  2.9983
    7ccc    H34  276   6.627   1.216   4.240 -1.3463 -0.5304  1.2744
    7ccc    H35  277   6.077   0.937   4.139  2.7702  1.8412 -1.5770
    7ccc    H36  278   6.076   0.918   4.308  1.4118  0.5787  1.1122
    7ccc    O12  279   6.164   0.754   4.207 -0.0354  0.0491 -0.0836
    7ccc    H37  280   6.226   0.739   4.280  0.8356  2.4353 -0.2559
    7ccc    O13  281   6.352   0.932   4.331  0.0305  0.3930 -0.2311
    7ccc    H38  282   6.503   0.857   4.482 -0.4486 -0.2470 -0.9168
    7ccc    H39  283   6.385   0.861   4.076  1.1964  1.0292  0.4032
    7ccc     O5  284   6.262   0.993   3.975  0.7063 -0.3603 -0.3693
    7ccc    H40  285   6.326   0.996   3.901 -0.4353  1.9412 -1.3784
    7ccc     N4  286   6.660   1.120   4.239  0.0791 -0.0570 -0.3605
    8ccc     N1  287   5.977   2.333   3.137  0.0700 -0.5129 -0.5369
    8ccc     H4  288   5.992   2.428   3.170 -0.2448 -0.5509 -0.2688
    8ccc     C3  289   5.850   2.292   3.067  0.0589 -0.6115  0.1103
    8ccc     H5  290   5.810   2.350   2.982 -2.5911 -3.4308 -0.7569
    8ccc     C4  291   5.741   2.260   3.168 -0.4083 -0.2428  0.0672
    8ccc     H6  292   5.867   2.196   3.018  1.3209 -0.8954  1.0617
    8ccc     H7  293   5.778   2.169   3.215  3.5599  0.0143 -2.1643
    8ccc     H8  294   5.653   2.232   3.108 -0.1223 -2.5528  0.6224
    8ccc     N2  295   5.720   2.364   3.263 -0.1225 -0.3364 -0.0612
    8ccc     C5  296   5.653   2.478   3.201 -0.3189  0.0377  0.2791
    8ccc     C6  297   5.644   2.318   3.384  0.1660 -0.3749 -0.0085
    8ccc     H9  298   5.620   2.401   3.451  2.2681 -1.3385  2.0416
    8ccc     C7  299   5.723   2.214   3.453 -0.3779 -0.1579 -0.2877
    8ccc    H10  300   5.549   2.283   3.340  0.9184 -1.0392 -1.1751
    8ccc    H11  301   5.828   2.243   3.467 -0.2505 -1.3434  1.5393
    8ccc    H12  302   5.706   2.120   3.398 -0.6183 -0.9951  1.1841
    8ccc     C8  303   5.678   2.190   3.594 -0.2337 -0.4276 -0.0863
    8ccc     O2  304   5.581   2.238   3.655 -0.0908  0.2328 -0.1388
    8ccc    H13  305   5.546   2.480   3.222 -0.5396  1.3946 -0.7784
    8ccc    H14  306   5.661   2.481   3.091 -1.4451  0.3345  0.1910
    8ccc     C9  307   5.704   2.613   3.254 -0.0427  0.5346  0.2686
    8ccc    H15  308   5.811   2.620   3.232  0.4983 -0.0892  2.4794
    8ccc    H16  309   5.690   2.632   3.361  0.5219 -0.1805  0.4777
    8ccc    C10  310   5.629   2.723   3.188  0.7208  0.1052  0.3969
    8ccc     O4  311   5.530   2.714   3.116 -0.2319 -0.0064 -0.0034
    8ccc    C11  312   5.679   1.777   3.941 -0.1337 -0.7806 -0.6767
    8ccc    C12  313   5.795   1.878   3.971 -0.1485 -0.6752 -0.5404
    8ccc    H17  314   5.727   1.700   3.880 -0.5711  1.0648 -3.5204
    8ccc    C13  315   5.836   1.954   3.840 -0.3089 -0.0414  0.0046
    8ccc    C14  316   5.718   2.010   3.762  0.5508 -0.7287  0.5851
    8ccc    C15  317   5.615   1.891   3.735 -0.8312 -0.0113  0.3839
    8ccc    H18  318   5.662   2.071   3.834  0.3650 -0.9468  0.6261
    8ccc    H19  319   5.897   1.889   3.777  2.0721  1.0807  1.0385
    8ccc    H20  320   5.665   1.811   3.679 -0.5452  1.1801 -1.1412
    8ccc     O1  321   5.493   1.926   3.673 -0.0865  0.2768  0.8934
    8ccc     O6  322   5.914   2.070   3.886 -0.3139 -0.2751  0.1825
    8ccc    C16  323   5.621   1.727   4.081 -0.1705  0.4720 -0.2350
    8ccc    H21  324   5.979   2.037   3.950 -1.9660 -1.5432  1.2851
    8ccc    H22  325   5.834   2.056   3.600 -0.4896 -0.9364 -1.1783
    8ccc    H23  326   5.581   1.813   4.135 -1.0994 -0.0692 -0.0455
    8ccc    H24  327   5.693   1.671   4.143  0.3607  0.0616 -1.1996
    8ccc     O7  328   5.509   1.635   4.051 -0.2909 -0.2549  0.1647
    8ccc    H25  329   5.548   1.556   4.010  2.5149  0.1751  1.7892
    8ccc     O8  330   5.577   1.835   3.862  0.0275 -0.6242 -0.1641
    8ccc    H26  331   5.455   2.009   3.706 -4.2342 -1.5244  1.3104
    8ccc    H27  332   5.765   1.947   4.051  1.3415 -0.4897 -0.1050
    8ccc     O9  333   5.904   1.799   4.019  0.1647 -0.3528  0.2458
    8ccc    H28  334   5.912   1.824   4.113  0.6519  0.1082  0.0853
    8ccc     N3  335   5.755   2.099   3.649  0.8106 -0.0277  0.1779
    8ccc    C17  336   5.444   3.140   3.004  0.2160  0.3007 -0.0213
    8ccc    C18  337   5.444   3.147   3.168 -0.7236 -0.0783 -0.3016
    8ccc    H29  338   5.376   3.058   2.978  0.2200  0.6036 -1.0378
    8ccc    C19  339   5.485   3.006   3.224 -0.2314 -0.7072 -0.2744
    8ccc    C20  340   5.627   2.984   3.165 -0.0398 -0.3568 -0.6947
    8ccc    C21  341   5.625   2.995   3.011  0.1150  0.5090  0.2149
    8ccc    H30  342   5.690   3.062   3.210 -1.3157  0.1896  0.1985
    8ccc    H31  343   5.414   2.933   3.184 -1.1399 -1.2333  2.1653
    8ccc    H32  344   5.558   2.914   2.980  1.3599 -1.7078  2.8435
    8ccc    O10  345   5.764   2.967   2.965 -0.8150  0.1745 -0.0280
    8ccc    O11  346   5.485   3.015   3.371 -0.1180  0.2162  0.1918
    8ccc    C22  347   5.395   3.281   2.940 -0.5072  0.2646 -0.2015
    8ccc    H33  348   5.395   3.039   3.399 -0.1732  0.6605 -0.3471
    8ccc    H34  349   5.748   2.851   3.291 -2.2058 -0.7581  1.4114
    8ccc    H35  350   5.289   3.295   2.962 -0.5527 -0.3870  0.0057
    8ccc    H36  351   5.403   3.284   2.830 -2.3592  2.7393 -0.3462
    8ccc    O12  352   5.461   3.391   3.004 -0.0809 -0.5152  0.6373
    8ccc    H37  353   5.557   3.378   3.010  0.0592  0.1226 -0.0692
    8ccc    O13  354   5.573   3.114   2.956 -0.4347  0.4606  0.1145
    8ccc    H38  355   5.807   3.049   2.934  1.9696 -0.7878  1.0487
    8ccc    H39  356   5.529   3.210   3.197  0.4651 -0.6654 -2.2728
    8ccc     O5  357   5.325   3.188   3.222 -0.1740 -0.5327  0.3242
    8ccc    H40  358   5.248   3.144   3.181  0.2944 -0.8365 -0.2515
    8ccc     N4  359   5.674   2.847   3.221 -0.3588  0.4465 -0.7315
    9ccc     N1  360   6.252   2.591   3.794  0.4155  0.5595 -0.1957
    9ccc     H4  361   6.254   2.503   3.845  1.3934  0.7567  0.1310
    9ccc     C3  362   6.208   2.716   3.852  0.7372  0.4134  0.3235
    9ccc     H5  363   6.270   2.756   3.933  3.5327  3.1150 -2.8014
    9ccc     C4  364   6.062   2.709   3.895 -0.6968  0.0114 -0.7516
    9ccc     H6  365   6.225   2.791   3.773 -0.9651 -0.6184 -1.0966
    9ccc     H7  366   6.027   2.808   3.925 -2.2097 -0.5095 -0.6896
    9ccc     H8  367   6.052   2.633   3.973 -1.2301  0.5186 -0.3140
    9ccc     N2  368   5.964   2.673   3.792  0.1130 -0.4562 -0.2255
    9ccc     C5  369   5.833   2.625   3.848 -0.3516  0.6328 -0.2990
    9ccc     C6  370   5.937   2.774   3.693  0.2949  0.1621 -0.1987
    9ccc     H9  371   5.872   2.849   3.739 -1.6234 -1.6382  0.1868
    9ccc     C7  372   5.896   2.710   3.558  0.1338 -0.2837  0.3831
    9ccc    H10  373   6.036   2.811   3.662  0.0236  0.4175 -0.7678
    9ccc    H11  374   5.797   2.663   3.554  0.3301 -0.6448 -1.6360
    9ccc    H12  375   5.957   2.620   3.541  0.5168  0.2032 -1.0224
    9ccc     C8  376   5.911   2.811   3.444 -0.1511 -0.5186  0.2109
    9ccc     O2  377   5.850   2.918   3.430  0.5110  0.1975 -0.3530
    9ccc    H13  378   5.744   2.629   3.785  0.2243  0.1025 -1.1643
    9ccc    H14  379   5.822   2.696   3.931  0.1501  1.4806 -0.9345
    9ccc     C9  380   5.841   2.482   3.902  0.0050 -0.4683  0.5668
    9ccc    H15  381   5.932   2.459   3.959 -0.8362 -0.9273  1.7782
    9ccc    H16  382   5.855   2.414   3.817  0.3159 -0.4510  0.6049
    9ccc    C10  383   5.717   2.433   3.979 -0.0558 -0.0220 -0.1755
    9ccc     O4  384   5.641   2.504   4.045  0.3618 -0.4425 -0.5489
    9ccc    C11  385   6.170   2.959   2.993  0.6564 -0.3905  0.4709
    9ccc    C12  386   6.125   2.811   2.981 -0.0184  0.2177 -0.3025
    9ccc    H17  387   6.274   2.971   3.027  0.6224 -1.1882  0.8614
    9ccc    C13  388   6.111   2.755   3.129 -0.0855 -0.3901 -0.1215
    9ccc    C14  389   6.019   2.845   3.214 -0.0833 -0.3359 -1.0687
    9ccc    C15  390   6.088   2.985   3.224  0.0964  0.6383  0.2947
    9ccc    H18  391   5.921   2.850   3.164 -1.9867 -0.1516  2.3874
    9ccc    H19  392   6.210   2.764   3.174 -1.1064  2.7909  1.8631
    9ccc    H20  393   6.193   2.983   3.255  0.8812  0.4029 -2.1816
    9ccc     O1  394   6.010   3.081   3.295  0.6957 -0.3991  0.1937
    9ccc     O6  395   6.070   2.620   3.129 -0.0503  0.0067  0.1828
    9ccc    C16  396   6.181   3.039   2.859 -0.3057 -0.8911  0.2374
    9ccc    H21  397   6.101   2.579   3.046 -0.3884 -0.9678  0.5253
    9ccc    H22  398   6.063   2.703   3.353 -0.4106  0.2302  2.1768
    9ccc    H23  399   6.281   3.036   2.814 -0.4907 -0.0401 -0.2366
    9ccc    H24  400   6.175   3.145   2.884  2.4572  0.3211 -3.3545
    9ccc     O7  401   6.077   3.006   2.770 -0.4324  0.3449 -0.0426
    9ccc    H25  402   5.994   3.014   2.818 -0.3310 -0.2230  0.2271
    9ccc     O8  403   6.087   3.032   3.090  0.2611 -0.1788  0.0802
    9ccc    H26  404   5.954   3.022   3.347 -0.2327 -1.1814 -1.5955
    9ccc    H27  405   6.028   2.798   2.932 -0.0302 -1.0413  0.0179
    9ccc     O9  406   6.232   2.739   2.923  0.5823 -1.1781 -0.0795
    9ccc    H28  407   6.225   2.749   2.827 -2.1025 -1.8896 -0.0272
    9ccc     N3  408   5.990   2.773   3.341 -0.5335 -0.1982 -0.1717
    9ccc    C17  409   5.365   2.246   4.259 -0.8083  0.2754  1.1141
    9ccc    C18  410   5.338   2.224   4.105  0.0370  0.1447  0.6331
    9ccc    H29  411   5.362   2.354   4.280 -1.6376  0.7788 -1.2806
    9ccc    C19  412   5.444   2.280   4.008  0.2756  0.2518 -0.3106
    9ccc    C20  413   5.585   2.232   4.054  0.0821  0.5814 -0.2160
    9ccc    C21  414   5.605   2.248   4.212  0.2188  0.1689 -0.1291
    9ccc    H30  415   5.591   2.123   4.041  2.0041  0.6921 -0.6017
    9ccc    H31  416   5.438   2.389   4.001 -2.5046  0.1521 -0.4159
    9ccc    H32  417   5.623   2.353   4.240  0.7235  0.2552 -0.7686
    9ccc    O10  418   5.706   2.168   4.251  0.1490 -0.1340  0.2957
    9ccc    O11  419   5.417   2.231   3.874 -0.4521  0.0935  0.2099
    9ccc    C22  420   5.267   2.181   4.354  0.8627  0.1949  0.8716
    9ccc    H33  421   5.493   2.265   3.824 -0.4485  2.5008  1.6844
    9ccc    H34  422   5.764   2.236   3.928  0.0209  1.0458 -1.7295
    9ccc    H35  423   5.170   2.231   4.357  0.4277 -0.6503  1.0874
    9ccc    H36  424   5.300   2.199   4.458  1.4772 -1.2288  0.9502
    9ccc    O12  425   5.262   2.036   4.345  0.1292  0.0630  0.1376
    9ccc    H37  426   5.217   2.014   4.261 -1.3911  0.5336  0.7943
    9ccc    O13  427   5.497   2.191   4.281 -0.8462  0.3756  0.5985
    9ccc    H38  428   5.668   2.152   4.339  0.1625  0.8556  0.4911
    9ccc    H39  429   5.323   2.116   4.097 -2.9248  0.6115 -1.3140
    9ccc     O5  430   5.210   2.288   4.087 -0.4555 -0.1333 -0.2014
    9ccc    H40  431   5.216   2.385   4.093 -0.4497 -0.2525  3.3427
    9ccc     N4  432   5.697   2.299   3.973  0.0003 -0.0846 -0.0809
   10ccc     N1  433   5.528   1.263   4.937  0.3970 -0.0512  0.1418
   10ccc     H4  434   5.527   1.189   4.868 -2.0607 -0.0462  0.1052
   10ccc     C3  435   5.410   1.275   5.029 -0.4734 -0.6067  0.4070
   10ccc     H5  436   5.391   1.381   5.048  1.0088  0.4175 -3.1030
   10ccc     C4  437   5.432   1.204   5.169 -0.1397  0.0080 -0.3051
   10ccc     H6  438   5.317   1.240   4.982 -1.8425  0.3531  2.2769
   10ccc     H7  439   5.347   1.228   5.235  0.0266 -0.7349  0.1939
   10ccc     H8  440   5.522   1.242   5.217 -0.4224  0.1451  0.1234
   10ccc     N2  441   5.441   1.058   5.148 -0.3085 -0.0502 -0.1495
   10ccc     C5  442   5.520   1.004   5.258 -1.0620  0.1218  0.3534
   10ccc     C6  443   5.303   1.001   5.143 -0.1948 -0.7375  0.0111
   10ccc     H9  444   5.251   0.998   5.240  1.0894  2.2575  0.9135
   10ccc     C7  445   5.302   0.858   5.085  0.5932 -0.1776  0.6974
   10ccc    H10  446   5.247   1.065   5.074 -1.3352  1.9248  3.1407
   10ccc    H11  447   5.334   0.780   5.155  0.4081 -2.0697 -1.2512
   10ccc    H12  448   5.364   0.855   4.995 -0.6958  0.3721 -0.2414
   10ccc     C8  449   5.159   0.828   5.044 -1.1299  0.3816 -0.4831
   10ccc     O2  450   5.071   0.904   5.014 -0.1261  0.6950  0.2109
   10ccc    H13  451   5.494   0.897   5.261 -2.2767  0.3685 -0.6582
   10ccc    H14  452   5.494   1.054   5.352 -0.0250 -1.7558  1.6958
   10ccc     C9  453   5.667   1.020   5.219 -0.4764  0.1629  0.2536
   10ccc    H15  454   5.707   1.121   5.229  0.8726 -0.3241  0.0338
   10ccc    H16  455   5.675   0.988   5.114 -0.8664  1.4620 -0.1863
   10ccc    C10  456   5.750   0.916   5.289 -0.0170 -0.1439 -0.1928
   10ccc     O4  457   5.714   0.841   5.374 -0.2374 -0.5562  0.2304
   10ccc    C11  458   4.860   0.588   4.728 -0.5508  0.2715  0.4646
   10ccc    C12  459   5.007   0.542   4.700  0.0518  0.5412 -0.0931
   10ccc    H17  460   4.865   0.692   4.695 -2.7196 -0.0751 -1.1405
   10ccc    C13  461   5.103   0.630   4.782 -0.3737  0.2642  0.5337
   10ccc    C14  462   5.062   0.623   4.928  0.2099 -0.3731  0.1845
   10ccc    C15  463   4.915   0.662   4.951 -0.5361 -0.3262 -0.0743
   10ccc    H18  464   5.073   0.519   4.960  1.7318 -0.0820  0.6471
   10ccc    H19  465   5.103   0.733   4.744  2.7986  0.5239  0.9361
   10ccc    H20  466   4.896   0.767   4.924 -0.3658 -0.2727  0.0154
   10ccc     O1  467   4.875   0.647   5.083  0.5066  0.2513 -0.1858
   10ccc     O6  468   5.237   0.583   4.777 -0.0160 -0.9134 -0.3235
   10ccc    C16  469   4.764   0.491   4.659  0.5641 -0.3065  0.1716
   10ccc    H21  470   5.259   0.579   4.682  2.0790 -0.8403  0.1184
   10ccc    H22  471   5.241   0.652   5.024 -0.9045 -0.9104  1.8615
   10ccc    H23  472   4.751   0.397   4.714  0.5839 -0.9949 -0.9660
   10ccc    H24  473   4.809   0.449   4.568  3.6859  0.8873  1.0369
   10ccc     O7  474   4.636   0.555   4.647  0.4471  0.2424  0.4502
   10ccc    H25  475   4.599   0.572   4.735 -1.9904 -0.2775 -0.3971
   10ccc     O8  476   4.832   0.584   4.866 -0.5127 -0.0736 -1.0523
   10ccc    H26  477   4.940   0.585   5.121 -1.3690 -1.5986  0.1703
   10ccc    H27  478   5.017   0.440   4.738  0.6480  0.1344 -1.3102
   10ccc     O9  479   5.052   0.547   4.565 -0.2182 -0.1754  0.1534
   10ccc    H28  480   5.034   0.467   4.511 -0.5357 -0.3067  0.4523
   10ccc     N3  481   5.150   0.697   5.023 -0.4900 -0.0140 -0.1472
   10ccc    C17  482   6.072   0.549   5.304 -0.3223 -0.4455  0.0188
   10ccc    C18  483   6.079   0.601   5.155  0.2424 -0.3925 -0.2269
   10ccc    H29  484   5.978   0.500   5.332  0.4140 -1.6754  0.4013
   10ccc    C19  485   5.985   0.723   5.144 -0.3332  0.5573 -0.2703
   10ccc    C20  486   5.985   0.824   5.260 -0.9135 -0.4368  0.1298
   10ccc    C21  487   6.008   0.763   5.404  0.1803 -0.1056 -0.1148
   10ccc    H30  488   6.075   0.884   5.243  0.0319 -1.2549  1.8780
   10ccc    H31  489   5.885   0.682   5.128 -0.1905 -0.0186  0.2934
   10ccc    H32  490   5.913   0.731   5.449 -0.0513  1.2681  0.4534
   10ccc    O10  491   6.071   0.863   5.483  0.0976 -0.2795 -0.6232
   10ccc    O11  492   6.018   0.801   5.025  0.7501  0.1169  0.1139
   10ccc    C22  493   6.184   0.446   5.325  0.5217  0.1314 -0.7221
   10ccc    H33  494   5.950   0.770   4.963 -0.2830  0.7595  0.8878
   10ccc    H34  495   5.897   0.990   5.177  1.3075 -0.2905 -0.3271
   10ccc    H35  496   6.159   0.367   5.252 -3.6921  1.3983 -0.9168
   10ccc    H36  497   6.180   0.410   5.428 -3.0097  1.8286 -0.1154
   10ccc    O12  498   6.312   0.500   5.303  0.5908 -0.1491 -0.2383
   10ccc    H37  499   6.335   0.534   5.392  1.3543  0.4537 -0.6480
   10ccc    O13  500   6.103   0.655   5.399 -0.2507 -0.4966 -0.6888
   10ccc    H38  501   6.014   0.941   5.479  0.2205 -0.2153 -1.1285
   10ccc    H39  502   6.183   0.631   5.133 -0.2864  1.5389 -0.2612
   10ccc     O5  503   6.040   0.501   5.064  0.1116  0.1240 -0.2746
   10ccc    H40  504   6.070   0.532   4.977 -0.8402  3.0061  0.3124
   10ccc     N4  505   5.879   0.921   5.250 -0.2623  0.6265  0.1990
   11ccc     N1  506   6.357   1.219   5.079 -0.4404 -0.8064  0.4636
   11ccc     H4  507   6.379   1.278   5.000 -0.8038 -1.2085  0.0561
   11ccc     C3  508   6.460   1.205   5.185  0.3664  0.2243 -1.3891
   11ccc     H5  509   6.431   1.121   5.251 -0.0022  0.5244 -1.1633
   11ccc     C4  510   6.469   1.335   5.267 -1.0347  0.3419  0.7833
   11ccc     H6  511   6.558   1.187   5.139  1.3800 -0.1559  0.7881
   11ccc     H7  512   6.547   1.322   5.343  0.7205 -3.2217 -1.3729
   11ccc     H8  513   6.375   1.358   5.319 -1.2586  0.6371  0.2487
   11ccc     N2  514   6.517   1.439   5.173  0.5017 -0.5525  0.4698
   11ccc     C5  515   6.454   1.565   5.208 -0.2425 -0.1325 -0.2600
   11ccc     C6  516   6.658   1.445   5.149 -0.4035  0.4926 -0.5543
   11ccc     H9  517   6.699   1.544   5.171  1.6694 -0.0112 -1.9233
   11ccc     C7  518   6.687   1.425   5.001 -0.0987  0.8322 -0.0876
   11ccc    H10  519   6.720   1.373   5.204  0.7954  1.1265 -1.0518
   11ccc    H11  520   6.682   1.517   4.942  1.4239  1.3289  0.5083
   11ccc    H12  521   6.615   1.357   4.954 -0.2461  1.6456 -1.0860
   11ccc     C8  522   6.819   1.361   4.983 -0.0033  0.0750  0.2743
   11ccc     O2  523   6.836   1.247   4.951  0.1582  0.1277  0.2325
   11ccc    H13  524   6.492   1.592   5.308  1.8094 -3.5628  0.0824
   11ccc    H14  525   6.347   1.544   5.212 -0.2179 -0.3693 -0.7377
   11ccc     C9  526   6.477   1.664   5.096 -0.4346 -0.0628  0.6391
   11ccc    H15  527   6.436   1.613   5.008  1.9927 -0.5114 -0.2933
   11ccc    H16  528   6.572   1.718   5.093  0.1279 -1.0944 -1.1984
   11ccc    C10  529   6.376   1.778   5.126  0.0442  0.0424 -0.0380
   11ccc     O4  530   6.336   1.807   5.241 -0.3231  0.1380  0.3754
   11ccc    C11  531   7.303   1.242   4.918 -0.1152  0.7176 -0.1781
   11ccc    C12  532   7.243   1.345   4.807 -0.0148  0.4690  0.2997
   11ccc    H17  533   7.259   1.142   4.910 -0.2510  0.6378  1.3681
   11ccc    C13  534   7.093   1.374   4.834 -0.5795 -0.4330  0.3860
   11ccc    C14  535   7.070   1.405   4.982  0.0430  1.0751 -0.6660
   11ccc    C15  536   7.126   1.293   5.072 -0.1990  0.1583  0.3910
   11ccc    H18  537   7.134   1.491   5.007 -0.1093  0.8312  0.6397
   11ccc    H19  538   7.033   1.288   4.801  1.4489 -0.5201 -3.7133
   11ccc    H20  539   7.091   1.193   5.042 -0.9966  0.1835  1.1919
   11ccc     O1  540   7.115   1.324   5.208 -0.1174  0.0990 -0.5742
   11ccc     O6  541   7.046   1.482   4.745 -0.7598 -0.1400 -0.1238
   11ccc    C16  542   7.467   1.237   4.914 -0.3704 -1.1031 -0.0458
   11ccc    H21  543   7.069   1.458   4.654  0.5860  0.8443 -0.0782
   11ccc    H22  544   6.910   1.533   5.046 -3.5578  0.6543 -3.8052
   11ccc    H23  545   7.496   1.223   4.809 -0.1019 -0.7240 -0.0233
   11ccc    H24  546   7.504   1.170   4.993 -0.5419 -0.5043  0.5536
   11ccc     O7  547   7.510   1.367   4.947 -0.2520  0.0806  0.0669
   11ccc    H25  548   7.466   1.394   5.030  0.7175  0.9239  0.3220
   11ccc     O8  549   7.264   1.300   5.042 -0.2508  0.1212  0.2784
   11ccc    H26  550   7.024   1.343   5.237  1.2736  3.1492  2.4996
   11ccc    H27  551   7.294   1.441   4.815  1.4137 -0.2374 -0.0586
   11ccc     O9  552   7.272   1.286   4.679 -0.1271  0.0359  0.1147
   11ccc    H28  553   7.283   1.361   4.618 -1.6555 -0.1821 -0.4875
   11ccc     N3  554   6.923   1.439   5.011 -0.2762 -0.4246 -0.3833
   11ccc    C17  555   6.018   2.078   5.123 -0.0219 -0.3809  0.2279
   11ccc    C18  556   6.131   2.150   5.042 -0.2310 -0.2174 -0.0981
   11ccc    H29  557   6.047   2.070   5.228  0.8312  0.1647  0.0491
   11ccc    C19  558   6.257   2.064   5.069 -0.5691 -0.2737 -0.0325
   11ccc    C20  559   6.222   1.925   5.016  0.3527 -0.1011 -0.1668
   11ccc    C21  560   6.096   1.862   5.067 -0.0651 -0.2220  0.0285
   11ccc    H30  561   6.198   1.941   4.910 -1.7701 -2.0849 -0.0713
   11ccc    H31  562   6.269   2.067   5.178  2.3799  0.6357 -0.2934
   11ccc    H32  563   6.120   1.826   5.168  1.3057 -0.5997 -0.4000
   11ccc    O10  564   6.048   1.760   4.987  0.8136  0.3691  0.4136
   11ccc    O11  565   6.373   2.115   5.009 -0.1807 -0.0566  0.4240
   11ccc    C22  566   5.891   2.166   5.120  0.3434 -0.5544 -0.0790
   11ccc    H33  567   6.443   2.061   5.050 -1.0220 -0.5012  1.3213
   11ccc    H34  568   6.351   1.776   4.940 -1.0850 -0.6426  0.6731
   11ccc    H35  569   5.852   2.161   5.017 -0.2138  2.9353 -0.1298
   11ccc    H36  570   5.912   2.272   5.132 -1.0687  0.1162 -2.6591
   11ccc    O12  571   5.791   2.110   5.216 -0.5702 -0.1928  0.1141
   11ccc    H37  572   5.847   2.089   5.293  1.4361  1.9676 -0.6129
   11ccc    O13  573   5.993   1.955   5.060 -0.2130  0.7635 -0.1534
   11ccc    H38  574   5.971   1.717   5.027  1.7412  0.6282  2.5961
   11ccc    H39  575   6.101   2.149   4.936  0.9563  0.8180 -0.4691
   11ccc     O5  576   6.166   2.285   5.076 -0.1579 -0.4182 -0.0228
   11ccc    H40  577   6.260   2.292   5.097 -0.0747 -1.4533  0.0204
   11ccc     N4  578   6.337   1.837   5.020 -0.6396  0.2374  0.1022
   12ccc     N1  579   5.038   1.097   4.387 -0.1202  0.0958 -0.0424
   12ccc     H4  580   5.059   1.012   4.336 -1.2478  0.0371 -0.4428
   12ccc     C3  581   4.996   1.086   4.526  0.1992  0.5769 -0.0093
   12ccc     H5  582   4.955   1.179   4.565  0.7188  0.7936  0.0144
   12ccc     C4  583   5.113   1.034   4.612 -0.2693  0.0578 -0.4542
   12ccc     H6  584   4.914   1.012   4.524  0.0867  0.6973 -1.9934
   12ccc     H7  585   5.133   0.935   4.568 -0.1103 -0.5166  0.8648
   12ccc     H8  586   5.070   1.026   4.712 -2.2106 -1.4255 -1.3394
   12ccc     N2  587   5.233   1.125   4.611 -0.0611 -0.2575  0.0604
   12ccc     C5  588   5.204   1.248   4.691 -0.0309 -0.7499 -0.3012
   12ccc     C6  589   5.349   1.065   4.673  0.1114  0.0269  0.0991
   12ccc     H9  590   5.414   1.146   4.706  3.7762 -2.8939  0.7268
   12ccc     C7  591   5.431   0.980   4.578  0.0115 -0.2823 -0.3471
   12ccc    H10  592   5.332   1.007   4.764 -0.0091 -2.7785 -1.5690
   12ccc    H11  593   5.441   1.046   4.490  3.7854 -1.0251 -0.6231
   12ccc    H12  594   5.378   0.888   4.552 -0.2732 -0.5433  1.1041
   12ccc     C8  595   5.574   0.974   4.627 -0.2677  0.5266  0.2424
   12ccc     O2  596   5.616   1.040   4.716 -0.1852  0.6313  0.0549
   12ccc    H13  597   5.221   1.242   4.799  2.8599  2.0517 -0.4533
   12ccc    H14  598   5.104   1.287   4.666 -0.0160  0.1122  0.9004
   12ccc     C9  599   5.299   1.363   4.638 -0.1508 -0.5620 -0.0460
   12ccc    H15  600   5.282   1.370   4.530  0.9846 -1.6199 -0.3194
   12ccc    H16  601   5.406   1.341   4.653  0.4237  1.8324 -0.2597
   12ccc    C10  602   5.266   1.489   4.719 -0.8754  0.6756  0.6650
   12ccc     O4  603   5.174   1.491   4.801 -0.1794  0.2232  0.1906
   12ccc    C11  604   6.001   0.642   4.647 -0.0466  0.3652 -0.0484
   12ccc    C12  605   5.977   0.691   4.505  0.4462  0.4234  0.5773
   12ccc    H17  606   5.938   0.552   4.655  0.2073  0.1311 -0.6455
   12ccc    C13  607   5.825   0.732   4.488 -0.2753  0.4914  0.4265
   12ccc    C14  608   5.789   0.840   4.585  0.3385 -0.1771 -0.4587
   12ccc    C15  609   5.818   0.794   4.735 -0.1600  0.5509  0.7992
   12ccc    H18  610   5.847   0.932   4.572  1.2341 -0.6717 -0.1049
   12ccc    H19  611   5.778   0.633   4.504 -1.3899  0.6730 -1.4049
   12ccc    H20  612   5.751   0.711   4.760 -0.7307  1.0255  0.8609
   12ccc     O1  613   5.814   0.904   4.825 -0.2470  0.1753 -0.3170
   12ccc     O6  614   5.807   0.773   4.350 -0.0605 -0.0928  0.0789
   12ccc    C16  615   6.141   0.594   4.680  0.6150  0.7927 -0.2720
   12ccc    H21  616   5.841   0.693   4.305 -1.0785 -0.7314  0.4102
   12ccc    H22  617   5.605   0.809   4.500  1.7829 -0.0934 -1.8078
   12ccc    H23  618   6.206   0.681   4.693 -0.1186  1.9322 -3.3894
   12ccc    H24  619   6.174   0.526   4.600  1.9139  1.9481 -0.7537
   12ccc     O7  620   6.141   0.521   4.807 -0.1436 -0.1431 -0.2223
   12ccc    H25  621   6.229   0.485   4.829 -0.3980 -2.3256 -2.3038
   12ccc     O8  622   5.957   0.739   4.747  0.2567 -0.4553  0.0346
   12ccc    H26  623   5.738   0.962   4.810  0.3208  0.4414 -2.5883
   12ccc    H27  624   6.050   0.771   4.490  1.2658 -0.5394 -0.8712
   12ccc     O9  625   6.009   0.588   4.406 -0.2631  0.5392  0.6174
   12ccc    H28  626   6.106   0.583   4.400 -0.0141  3.1294  1.4231
   12ccc     N3  627   5.645   0.877   4.565 -0.4896 -0.4457  0.0714
   12ccc    C17  628   5.346   2.017   4.766  0.1925  0.2212  0.0535
   12ccc    C18  629   5.209   1.941   4.743 -0.3374 -0.6430 -0.1044
   12ccc    H29  630   5.394   2.062   4.678  0.6108  0.2552  0.2967
   12ccc    C19  631   5.223   1.800   4.683  0.5102 -0.1800  0.2215
   12ccc    C20  632   5.325   1.720   4.762 -0.2969  0.0418 -0.0411
   12ccc    C21  633   5.461   1.805   4.770  0.0172  0.5278 -0.9639
   12ccc    H30  634   5.295   1.700   4.865  0.5864 -1.1116  0.0026
   12ccc    H31  635   5.264   1.806   4.581 -0.6102  0.7713 -0.1966
   12ccc    H32  636   5.502   1.834   4.673  2.0873  3.1976  0.5439
   12ccc    O10  637   5.562   1.733   4.841  0.9976  0.0628 -0.4035
   12ccc    O11  638   5.098   1.733   4.671  0.0486  0.3908  0.5267
   12ccc    C22  639   5.321   2.130   4.873  0.3940 -0.3989 -0.3357
   12ccc    H33  640   5.128   1.662   4.611  2.5107  0.6912  1.3050
   12ccc    H34  641   5.417   1.587   4.629  1.6142  0.1981  1.5012
   12ccc    H35  642   5.299   2.086   4.972 -2.6770  1.2606 -0.1691
   12ccc    H36  643   5.227   2.178   4.845  1.7448  3.6360  1.3568
   12ccc    O12  644   5.424   2.228   4.877 -0.3844 -0.1683 -0.0573
   12ccc    H37  645   5.407   2.288   4.803  1.0984  0.9063  0.4488
   12ccc    O13  646   5.431   1.926   4.841 -0.4975  0.0110 -0.0909
   12ccc    H38  647   5.626   1.790   4.887 -0.4859  1.5865 -0.1505
   12ccc    H39  648   5.157   1.925   4.838 -0.3768 -1.8527 -0.3105
   12ccc     O5  649   5.132   2.028   4.663  0.6780  0.0014 -0.3353
   12ccc    H40  650   5.071   1.977   4.606  1.8866 -1.6216 -0.2320
   12ccc     N4  651   5.355   1.588   4.710 -0.0632  0.7033  0.2653
   13ccc     N1  652   5.708   1.457   4.472 -0.5702 -0.4957 -0.0419
   13ccc     H4  653   5.627   1.518   4.474  0.1942  0.5512  1.6361
   13ccc     C3  654   5.840   1.530   4.486 -0.4555  0.7580 -0.3578
   13ccc     H5  655   5.909   1.456   4.527 -0.8645 -0.5328 -1.9048
   13ccc     C4  656   5.838   1.652   4.575  0.4251 -0.0663  0.0105
   13ccc     H6  657   5.879   1.564   4.389 -0.5981  0.7718 -0.4104
   13ccc     H7  658   5.799   1.623   4.674 -1.7017  0.5008 -0.6163
   13ccc     H8  659   5.757   1.717   4.540 -1.0552 -2.1353 -0.6124
   13ccc     N2  660   5.966   1.723   4.570  0.6705  0.0509 -0.1703
   13ccc     C5  661   6.067   1.669   4.654 -0.3297  0.5215  0.2687
   13ccc     C6  662   5.946   1.866   4.603  0.0307 -0.3491 -0.0263
   13ccc     H9  663   5.875   1.886   4.684  0.3112  0.3688  0.0461
   13ccc     C7  664   5.905   1.947   4.485  0.0894 -0.5508  1.3334
   13ccc    H10  665   6.040   1.914   4.633 -1.2092  1.9897  0.3289
   13ccc    H11  666   5.904   2.054   4.509 -0.7890 -0.6653  1.8763
   13ccc    H12  667   5.799   1.929   4.463  0.2465  0.8180 -0.8484
   13ccc     C8  668   5.997   1.923   4.364  0.4258  0.1806 -0.6853
   13ccc     O2  669   5.957   1.879   4.259 -0.6096 -0.1879  0.0780
   13ccc    H13  670   6.043   1.565   4.680 -2.0515  0.8686  0.2040
   13ccc    H14  671   6.086   1.722   4.748 -0.5444  1.0731  0.0066
   13ccc     C9  672   6.191   1.677   4.569  0.2205  0.4997 -0.6474
   13ccc    H15  673   6.217   1.782   4.546 -0.0719  0.5766 -0.6386
   13ccc    H16  674   6.189   1.618   4.477  2.7166 -4.0495  1.8692
   13ccc    C10  675   6.302   1.618   4.656  0.1391  0.4676 -0.7944
   13ccc     O4  676   6.340   1.671   4.758 -0.0713 -0.3014  0.4341
   13ccc    C11  677   6.461   2.046   4.090 -0.0652 -0.5345 -0.0749
   13ccc    C12  678   6.491   1.978   4.228 -0.4422 -0.2799  0.1078
   13ccc    H17  679   6.474   2.155   4.094 -1.4048 -0.3416 -0.4500
   13ccc    C13  680   6.372   1.988   4.329 -0.3082  0.3659  0.3444
   13ccc    C14  681   6.227   1.963   4.268 -0.2358  0.1933 -0.1294
   13ccc    C15  682   6.217   2.045   4.139  0.1198 -0.2139 -0.5212
   13ccc    H18  683   6.230   1.858   4.237 -0.0599 -0.5328  2.1987
   13ccc    H19  684   6.373   2.086   4.377  1.0905 -0.1698  1.4884
   13ccc    H20  685   6.204   2.146   4.180 -0.9791 -0.7477  0.4826
   13ccc     O1  686   6.096   2.007   4.077 -0.1047  0.1087 -0.0664
   13ccc     O6  687   6.397   1.881   4.427 -0.0529  0.0389  0.0866
   13ccc    C16  688   6.569   2.001   3.983  0.4915 -0.2397 -0.1928
   13ccc    H21  689   6.384   1.926   4.513 -0.7621  1.0050 -0.5018
   13ccc    H22  690   6.149   2.028   4.454 -2.2970  0.6303 -0.1837
   13ccc    H23  691   6.549   1.894   3.972 -0.1578 -0.1519  0.0651
   13ccc    H24  692   6.671   2.006   4.023  0.5336  0.8781 -0.4098
   13ccc     O7  693   6.545   2.086   3.868 -0.1267  0.4307 -0.1303
   13ccc    H25  694   6.525   2.035   3.788 -1.4027  0.7382 -0.0410
   13ccc     O8  695   6.326   2.010   4.048  0.2876 -0.0369 -0.5126
   13ccc    H26  696   6.047   1.962   4.148  1.9488 -0.0129  1.3521
   13ccc    H27  697   6.515   1.872   4.212  2.9050  0.2861  0.5231
   13ccc     O9  698   6.609   2.032   4.284  0.0066  0.8565  0.2060
   13ccc    H28  699   6.628   1.978   4.363  2.1661 -0.3363 -1.0489
   13ccc     N3  700   6.123   1.977   4.370  0.1680  0.1576 -0.7617
   13ccc    C17  701   6.711   1.296   4.588  0.1286  0.4413  0.1995
   13ccc    C18  702   6.732   1.450   4.615  0.0294 -0.4079 -0.3672
   13ccc    H29  703   6.692   1.273   4.483 -0.7250  0.9702  0.2266
   13ccc    C19  704   6.598   1.531   4.594 -0.2570 -0.1411 -0.3974
   13ccc    C20  705   6.489   1.456   4.655  0.2449  0.4452  0.1967
   13ccc    C21  706   6.490   1.301   4.641 -0.3924 -0.4044 -0.5096
   13ccc    H30  707   6.485   1.468   4.764  0.7038 -2.8056  0.6854
   13ccc    H31  708   6.578   1.551   4.488  0.6394  1.4272 -0.3029
   13ccc    H32  709   6.452   1.270   4.543  2.1840  0.5591 -1.9114
   13ccc    O10  710   6.400   1.249   4.741 -0.0384 -0.8589  0.8709
   13ccc    O11  711   6.610   1.665   4.654  0.4950 -0.2102  0.2372
   13ccc    C22  712   6.844   1.223   4.612 -0.0044  1.1016  0.1792
   13ccc    H33  713   6.520   1.671   4.691  1.3029 -0.8330  2.4468
   13ccc    H34  714   6.328   1.465   4.518 -2.2168  1.7716 -0.1746
   13ccc    H35  715   6.857   1.220   4.721  0.2616  0.9052  0.1422
   13ccc    H36  716   6.925   1.279   4.564  0.5047  0.8572  0.7459
   13ccc    O12  717   6.839   1.093   4.554  0.7521 -0.5399  0.4653
   13ccc    H37  718   6.746   1.083   4.527  1.4219 -2.2397 -1.5720
   13ccc    O13  719   6.613   1.239   4.668 -0.3671  0.2095 -0.1347
   13ccc    H38  720   6.422   1.154   4.746 -0.5292 -0.9345  1.8693
   13ccc    H39  721   6.770   1.458   4.718  0.6256  1.5184 -0.7176
   13ccc     O5  722   6.819   1.496   4.512 -0.4208 -0.2859  0.1873
   13ccc    H40  723   6.842   1.588   4.532 -1.8254  0.1647 -0.1852
   13ccc     N4  724   6.366   1.512   4.600 -0.1097 -0.2069  0.0881
   14SOL     OW  725   5.180   0.970   2.559 -0.3353 -0.9101 -0.3654
   14SOL    HW1  726   5.256   0.941   2.610 -0.3523 -0.9174 -0.3438
   14SOL    HW2  727   5.199   1.061   2.538 -1.5486 -0.0122  1.9979
   15SOL     OW  728   6.444   2.840   2.122 -0.5397  0.1195  0.2306
   15SOL    HW1  729   6.524   2.891   2.136 -0.4137  0.0518 -0.2344
   15SOL    HW2  730   6.386   2.899   2.076 -0.6639  0.0836  0.3416
   16SOL     OW  731   2.929   1.316   0.048 -0.2452  0.3315  0.1602
   16SOL    HW1  732   2.987   1.284  -0.021 -1.1986 -0.5412 -0.2523
   16SOL    HW2  733   2.934   1.249   0.116 -0.3884  0.5021  0.3393
   17SOL     OW  734   1.893   3.883   0.001 -0.0445  0.1952  0.2061
   17SOL    HW1  735   1.857   3.828   0.070  1.2699  0.0312  0.7762
   17SOL    HW2  736   1.966   3.833  -0.035 -0.0724  0.7205 -0.6087
   18SOL     OW  737   0.303   4.946   6.178 -0.0148  0.9848 -0.4142
   18SOL    HW1  738   0.255   5.028   6.171  0.3752  1.1747 -0.9011
   18SOL    HW2  739   0.237   4.878   6.166 -0.8700  1.1123  2.6185
   19SOL     OW  740   5.290   3.093   0.123  0.2426  0.1132  0.3969
   19SOL    HW1  741   5.350   3.027   0.089  0.6471  2.3367 -4.0480
   19SOL    HW2  742   5.340   3.175   0.119 -0.5452  1.0612  4.7254
   20SOL     OW  743   1.391   2.750   3.475 -0.5164  0.1747 -0.1790
   20SOL    HW1  744   1.404   2.845   3.483  0.0915 -0.0019  1.3517
   20SOL    HW2  745   1.463   2.712   3.526 -2.7481 -1.0395  2.3077
   21SOL     OW  746   6.129   5.451   3.948  0.0827 -0.3887 -0.4180
   21SOL    HW1  747   6.140   5.368   3.902  0.1284 -0.9701  0.6025
   21SOL    HW2  748   6.060   5.496   3.901 -0.9495 -1.6397 -0.1515
   22SOL     OW  749   0.389   0.504   3.739 -0.1704 -0.3534 -0.5958
   22SOL    HW1  750   0.413   0.476   3.650 -1.3059  1.1031 -1.3908
   22SOL    HW2  751   0.294   0.499   3.742 -0.3037  1.6412 -0.1913
   23SOL     OW  752   2.096   5.431   0.246 -0.3407  0.3200  0.4278
   23SOL    HW1  753   2.023   5.425   0.308 -1.3992 -2.2827 -0.8906
   23SOL    HW2  754   2.122   5.340   0.231  0.3190  0.8778 -2.3500
   24SOL     OW  755   0.693   5.720   0.260 -0.6414 -0.7839 -0.3409
   24SOL    HW1  756   0.684   5.719   0.355 -1.5189 -0.2781 -0.4134
   24SOL    HW2  757   0.780   5.758   0.245 -0.5846 -0.6662  0.2439
   25SOL     OW  758   0.164   4.652   3.174  0.8161  0.1474 -0.3002
   25SOL    HW1  759   0.214   4.577   3.140  1.5366  0.3043  0.3760
   25SOL    HW2  760   0.100   4.671   3.106  0.4258 -1.2709 -0.3536
   26SOL     OW  761   6.013   5.002   2.721 -0.4338 -0.3207  0.1039
   26SOL    HW1  762   6.075   4.980   2.792  0.0263  2.5931  0.7603
   26SOL    HW2  763   5.993   4.919   2.680  0.5313 -1.9461  2.6737
   27SOL     OW  764   5.021   0.052   0.463 -0.0273 -0.5866  0.0168
   27SOL    HW1  765   5.085   0.116   0.433 -0.4250  0.2465  0.8856
   27SOL    HW2  766   5.073  -0.026   0.486  0.8157  0.4147  1.6641
   28SOL     OW  767   2.567   2.063   3.184 -0.0047 -0.8957 -0.5365
   28SOL    HW1  768   2.520   1.981   3.171  0.4359 -0.9751 -1.7506
   28SOL    HW2  769   2.659   2.039   3.172  0.2776 -0.5430  0.7854
   29SOL     OW  770   0.680   4.851   5.989 -0.0178 -0.3045 -0.0262
   29SOL    HW1  771   0.616   4.885   6.051  1.1574 -0.7143  1.4711
   29SOL    HW2  772   0.764   4.889   6.017  0.6354 -0.9728 -0.9946
   30SOL     OW  773   5.506   0.974   2.003  0.2277  0.0133  0.3425
   30SOL    HW1  774   5.584   1.028   2.014  0.9108 -1.1365  1.3270
   30SOL    HW2  775   5.533   0.887   2.029 -1.6161 -0.2615  1.5147
   31SOL     OW  776   2.008   0.181   5.915 -0.3442  0.3399  0.1818
   31SOL    HW1  777   1.978   0.271   5.928 -0.5057  0.2014  0.7770
   31SOL    HW2  778   2.089   0.175   5.966  0.7694  0.7341 -1.4734
   32SOL     OW  779   4.434   6.185   2.084  0.0372  0.0384  0.1627
   32SOL    HW1  780   4.465   6.267   2.046 -0.1268  0.2028  0.3772
   32SOL    HW2  781   4.439   6.122   2.012 -2.5956  0.8842 -0.9083
   33SOL     OW  782   2.256   3.805   4.505  0.1324 -0.1642 -0.0081
   33SOL    HW1  783   2.175   3.841   4.468  0.1062 -0.9309 -0.7231
   33SOL    HW2  784   2.294   3.753   4.435  1.2104  0.0968  0.3498
   34SOL     OW  785   6.483   1.703   1.980 -0.2452  0.3795  0.2613
   34SOL    HW1  786   6.494   1.608   1.988  0.2084  0.5043  1.2983
   34SOL    HW2  787   6.567   1.733   1.944  0.4086  0.5935  1.8753
   35SOL     OW  788   4.609   3.188   1.137  0.0574 -0.1146  0.6637
   35SOL    HW1  789   4.667   3.170   1.212  0.0441 -0.6926  0.5455
   35SOL    HW2  790   4.643   3.268   1.098  0.0113  0.2454  1.3451
   36SOL     OW  791   4.193   4.763   1.485 -0.3864 -0.2192  0.0294
   36SOL    HW1  792   4.131   4.829   1.455 -1.1073 -1.4035 -1.1894
   36SOL    HW2  793   4.178   4.757   1.579 -2.5991 -0.8983 -0.3095
   37SOL     OW  794   6.093   3.328   3.356  0.3311  0.0283 -0.0372
   37SOL    HW1  795   6.114   3.374   3.275 -2.8264  0.7979 -0.5558
   37SOL    HW2  796   6.095   3.236   3.333 -0.8350  0.2479 -1.1336
   38SOL     OW  797   3.164   5.623   5.683  0.5725 -0.0289 -0.0543
   38SOL    HW1  798   3.155   5.575   5.765 -0.4354 -1.1331 -0.7847
   38SOL    HW2  799   3.188   5.712   5.710  1.2270 -0.6075  1.3761
   39SOL     OW  800   5.228   1.499   5.377  0.0350  0.4724  0.6506
   39SOL    HW1  801   5.154   1.474   5.323  0.8043 -2.2758  0.7216
   39SOL    HW2  802   5.246   1.590   5.352 -1.7599  0.3991 -1.1848
   40SOL     OW  803   5.448   5.222   1.704  0.1389  0.1846  0.9170
   40SOL    HW1  804   5.493   5.144   1.737 -1.1020 -1.4379 -0.9279
   40SOL    HW2  805   5.453   5.213   1.608 -0.7618  1.9519  0.6664
   41SOL     OW  806   0.292   3.245   2.203 -0.7764 -0.1571 -0.0130
   41SOL    HW1  807   0.310   3.276   2.114  2.6673 -0.8606  0.3091
   41SOL    HW2  808   0.334   3.310   2.259 -1.6875 -0.4801  1.0790
   42SOL     OW  809   1.382   6.001   3.725  1.0725 -0.6483  0.3083
   42SOL    HW1  810   1.438   5.931   3.690  1.7033 -0.3702  0.7491
   42SOL    HW2  811   1.381   5.986   3.819 -0.3511 -1.1911  0.2294
   43SOL     OW  812   2.378   0.370   4.039 -0.0588  0.2526  0.8097
   43SOL    HW1  813   2.368   0.277   4.020 -2.2065  1.1299 -3.6163
   43SOL    HW2  814   2.473   0.384   4.040  0.3021 -1.7269 -0.1555
   44SOL     OW  815   0.464   4.588   2.967  0.6236  0.0072 -0.7831
   44SOL    HW1  816   0.475   4.498   2.938 -0.4441 -0.2201 -0.5228
   44SOL    HW2  817   0.441   4.581   3.060  1.1838  0.5842 -0.5898
   45SOL     OW  818   6.214   0.650   3.221  0.4540 -0.1737  0.0565
   45SOL    HW1  819   6.298   0.609   3.243 -0.3744 -0.7902  2.3022
   45SOL    HW2  820   6.175   0.592   3.156  0.7795 -1.1285  0.6940
   46SOL     OW  821   3.986   5.551   1.465 -0.0667  0.9225  0.0156
   46SOL    HW1  822   4.078   5.553   1.490  0.3733  0.4242 -1.4885
   46SOL    HW2  823   3.983   5.589   1.377 -1.4153  1.6648  0.3389
   47SOL     OW  824   6.470   3.048   3.494 -0.0619  0.4380 -0.5350
   47SOL    HW1  825   6.510   3.029   3.579  0.2396 -1.2330 -1.0073
   47SOL    HW2  826   6.412   3.123   3.510  0.2302  0.3493  1.0574
   48SOL     OW  827   3.813   3.102   4.980  0.7005  0.1023  0.4061
   48SOL    HW1  828   3.847   3.121   5.067  0.6928 -0.7261  0.5993
   48SOL    HW2  829   3.875   3.038   4.943  0.1627 -0.3148  0.2023
   49SOL     OW  830   0.382   4.899   1.207  0.0527 -0.3591 -0.1004
   49SOL    HW1  831   0.304   4.843   1.209 -0.5834  0.5211 -0.1908
   49SOL    HW2  832   0.418   4.887   1.119 -0.7479  0.2638 -0.5283
   50SOL     OW  833   2.128   4.747   3.230  0.2570  0.1076 -0.0901
   50SOL    HW1  834   2.207   4.769   3.180  0.8808 -0.9003  0.4213
   50SOL    HW2  835   2.155   4.757   3.322 -0.7493  1.5091  0.0867
   51SOL     OW  836   3.596   0.126   1.003 -0.2144  0.2618  0.0780
   51SOL    HW1  837   3.517   0.074   0.988  0.5008 -1.2442  1.2401
   51SOL    HW2  838   3.641   0.127   0.918 -1.2971  0.8588 -0.5066
   52SOL     OW  839   3.964   2.350   5.830 -0.1014  0.1946  0.3917
   52SOL    HW1  840   3.936   2.439   5.806 -2.2986 -0.5231  0.0433
   52SOL    HW2  841   3.990   2.310   5.748 -1.7857 -0.3217  0.0679
   53SOL     OW  842   3.357   4.660   2.894  0.4915  0.3535 -0.2695
   53SOL    HW1  843   3.323   4.574   2.869  0.0699  0.8547 -1.5053
   53SOL    HW2  844   3.408   4.644   2.973 -0.0889 -0.9288 -0.1392
   54SOL     OW  845   1.879   2.052   5.678  0.1805 -0.1057 -0.0144
   54SOL    HW1  846   1.880   1.987   5.608 -0.7690 -1.6026  1.2994
   54SOL    HW2  847   1.822   2.015   5.745 -1.1668  2.5214  0.4275
   55SOL     OW  848   5.756   4.400   5.933 -0.5018  0.3364  0.0486
   55SOL    HW1  849   5.694   4.462   5.893  1.2839  1.3565 -1.3333
   55SOL    HW2  850   5.834   4.406   5.877 -0.6927 -4.3118 -1.1101
   56SOL     OW  851   0.387   5.519   1.134  0.1523  0.8037 -0.2940
   56SOL    HW1  852   0.362   5.427   1.147 -0.1727  0.6599 -1.7681
   56SOL    HW2  853   0.453   5.536   1.201 -0.7281 -0.1147  0.8441
   57SOL     OW  854   0.412   3.455   4.727 -0.2214 -0.5868 -0.0308
   57SOL    HW1  855   0.506   3.462   4.747 -0.4440 -1.8480  1.5982
   57SOL    HW2  856   0.369   3.495   4.802 -1.0210 -0.1149 -0.7252
   58SOL     OW  857   0.785   1.554   2.000 -0.3043  0.0027 -0.1989
   58SOL    HW1  858   0.818   1.487   2.060  1.1147  0.5987 -0.2592
   58SOL    HW2  859   0.690   1.543   2.002 -0.2578 -0.4776  1.5823
   59SOL     OW  860   2.590   1.612   2.825 -0.1768 -0.6234  0.1785
   59SOL    HW1  861   2.645   1.685   2.797  0.0729 -0.5763  0.7671
   59SOL    HW2  862   2.637   1.574   2.900 -1.2720 -0.1640  1.1247
   60SOL     OW  863   1.474   5.015   1.709 -0.0665  0.1488  0.9345
   60SOL    HW1  864   1.444   4.935   1.665  0.9730 -0.8199  1.9082
   60SOL    HW2  865   1.464   5.084   1.643 -2.3660 -0.4864  0.5527
   61SOL     OW  866   0.890   2.698   2.577 -0.1984 -0.2222 -0.3212
   61SOL    HW1  867   0.817   2.644   2.608  1.5147 -1.9330  0.9834
   61SOL    HW2  868   0.908   2.758   2.649  0.3516 -0.5412 -0.1861
   62SOL     OW  869   3.282   0.760   5.620 -0.0136  0.5750  0.3798
   62SOL    HW1  870   3.306   0.686   5.676 -1.5205  0.3922  0.8361
   62SOL    HW2  871   3.309   0.733   5.532  0.0190 -0.2594  0.6325
   63SOL     OW  872   2.214   1.137   1.138  0.2171  0.2443  0.3399
   63SOL    HW1  873   2.129   1.181   1.130  0.2326  0.1061 -0.7433
   63SOL    HW2  874   2.192   1.048   1.166  0.0503  0.3910  0.6779
   64SOL     OW  875   1.749   0.605   5.237 -0.3862 -0.1419 -0.0074
   64SOL    HW1  876   1.797   0.525   5.214  0.3533 -0.0483  1.1492
   64SOL    HW2  877   1.755   0.660   5.159 -0.7964 -1.1436 -0.7785
   65SOL     OW  878   0.816   4.971   3.956 -0.3783 -0.1373 -0.2785
   65SOL    HW1  879   0.771   4.908   4.012  0.6227  0.1663  0.9228
   65SOL    HW2  880   0.766   5.052   3.967  1.5966  0.8243  2.8420
   66SOL     OW  881   1.757   4.298   6.301  0.2082  0.4087 -0.3901
   66SOL    HW1  882   1.783   4.390   6.292 -0.3701  0.3849 -3.2731
   66SOL    HW2  883   1.666   4.301   6.330  0.9323  0.6334  2.0413
   67SOL     OW  884   3.983   2.513   1.586  0.2143  0.7588 -0.0717
   67SOL    HW1  885   4.031   2.443   1.541 -1.1132 -0.9052  0.9458
   67SOL    HW2  886   4.019   2.514   1.675  0.4819  1.6424 -0.1851
   68SOL     OW  887   2.484   5.884   6.441 -0.0530 -0.0476  1.2178
   68SOL    HW1  888   2.454   5.975   6.441  1.3908  0.4553  1.6860
   68SOL    HW2  889   2.479   5.858   6.349  1.5577  1.2412  0.7234
   69SOL     OW  890   3.002   4.503   1.274 -0.1238  0.1480  0.3152
   69SOL    HW1  891   3.060   4.519   1.200  0.0140  1.8234  0.7394
   69SOL    HW2  892   2.916   4.533   1.245 -0.7869 -2.0729 -0.2135
   70SOL     OW  893   0.055   3.293   0.325  0.0249  0.0346  0.1943
   70SOL    HW1  894   0.068   3.233   0.398 -1.7371  0.0711  0.5651
   70SOL    HW2  895   0.079   3.379   0.360  1.5214 -0.2594 -0.0252
   71SOL     OW  896   0.774   5.866   5.429  1.0594  0.7762  0.7750
   71SOL    HW1  897   0.779   5.771   5.440 -0.4424  0.0802 -2.9617
   71SOL    HW2  898   0.828   5.883   5.351 -3.0345  1.9720 -2.1177
   72SOL     OW  899   1.613   0.116   0.042 -0.6249 -0.2938  1.0860
   72SOL    HW1  900   1.523   0.083   0.055 -0.0570 -1.7587  1.5084
   72SOL    HW2  901   1.614   0.200   0.088 -1.3650 -0.9670  2.4122
   73SOL     OW  902   1.669   3.780   5.354 -0.1715 -0.2704 -0.9406
   73SOL    HW1  903   1.640   3.703   5.402  1.2211 -1.1011 -1.3978
   73SOL    HW2  904   1.703   3.839   5.422 -1.9914  0.3457 -0.4954
   74SOL     OW  905   5.655   4.869   3.789 -0.2807 -0.1595  0.3501
   74SOL    HW1  906   5.680   4.954   3.826 -0.7287 -0.8438  2.3677
   74SOL    HW2  907   5.693   4.805   3.850 -0.6837 -1.3881 -0.6507
   75SOL     OW  908   5.067   6.037   5.849 -0.0182  0.0362  0.2654
   75SOL    HW1  909   5.144   6.092   5.837  1.2003 -1.2947  1.5328
   75SOL    HW2  910   5.000   6.095   5.883  0.6378  1.0931 -0.2067
   76SOL     OW  911   0.422   0.648   5.510 -0.2829  0.1987  0.3198
   76SOL    HW1  912   0.408   0.691   5.426  1.7845 -1.7254 -1.1029
   76SOL    HW2  913   0.517   0.645   5.521 -0.4603  1.3933  3.3250
   77SOL     OW  914   4.458   5.362   0.515  0.1793  0.1352  0.4554
   77SOL    HW1  915   4.449   5.371   0.610 -0.1808 -0.4619  0.4823
   77SOL    HW2  916   4.546   5.395   0.496  0.2546  0.2568  0.9948
   78SOL     OW  917   0.865   5.654   2.897 -0.0761 -0.5772  0.9836
   78SOL    HW1  918   0.906   5.732   2.860 -1.0535 -1.1731 -1.5245
   78SOL    HW2  919   0.928   5.622   2.962  1.8295  0.4632 -0.2778
   79SOL     OW  920   5.466   5.096   0.006 -0.0298 -0.3449  0.5835
   79SOL    HW1  921   5.427   5.182   0.025  0.3423 -0.0654  0.1147
   79SOL    HW2  922   5.551   5.116  -0.032  0.5042 -0.9534  1.4241
   80SOL     OW  923   3.272   3.721   5.375  0.0941  0.2203  0.0012
   80SOL    HW1  924   3.358   3.680   5.371  0.3902  0.9174 -1.3626
   80SOL    HW2  925   3.212   3.654   5.343  0.3552  0.2636 -0.5963
   81SOL     OW  926   4.690   2.908   1.929  0.0108 -0.3623  0.0947
   81SOL    HW1  927   4.629   2.967   1.886  1.5928 -0.4060 -2.4555
   81SOL    HW2  928   4.716   2.953   2.009 -1.5073  0.7268  0.0009
   82SOL     OW  929   2.617   1.218   0.767  0.4985  0.0133 -0.1985
   82SOL    HW1  930   2.597   1.309   0.745  1.0285  0.3083  0.4796
   82SOL    HW2  931   2.679   1.190   0.700 -1.4461 -0.6469 -1.8270
   83SOL     OW  932   4.009   6.162   5.409  0.3218  0.0769  0.2891
   83SOL    HW1  933   4.100   6.142   5.387 -0.2565 -1.1012 -1.1934
   83SOL    HW2  934   3.983   6.093   5.470  0.0869 -0.2594 -0.1875
   84SOL     OW  935   0.066   0.366   1.114 -0.2746  0.5855 -0.0641
   84SOL    HW1  936   0.037   0.308   1.184  1.2989  1.5830  1.5094
   84SOL    HW2  937   0.003   0.438   1.114 -0.8164  0.1183 -0.3388
   85SOL     OW  938   1.992   0.421   0.332  0.1360 -0.1987  1.0068
   85SOL    HW1  939   2.036   0.432   0.248 -2.0274 -0.3150 -0.2116
   85SOL    HW2  940   2.059   0.384   0.390  1.9912  0.9332 -0.3157
   86SOL     OW  941   6.069   3.022   4.333  0.0770  0.3052  0.3950
   86SOL    HW1  942   6.063   3.099   4.389  1.0505  0.5916  0.1191
   86SOL    HW2  943   6.105   3.056   4.251 -0.9616 -0.1714 -0.2851
   87SOL     OW  944   1.690   4.129   4.981  0.2015  0.2716 -0.3434
   87SOL    HW1  945   1.605   4.093   5.008 -0.1852 -1.1868 -3.1853
   87SOL    HW2  946   1.748   4.111   5.055 -1.6203  0.0718  1.1063
   88SOL     OW  947   2.733   6.063   4.325  0.2843 -0.5373  0.3792
   88SOL    HW1  948   2.780   5.980   4.321 -0.3118 -1.0525  2.6580
   88SOL    HW2  949   2.671   6.053   4.397  0.6901  2.1295  1.2350
   89SOL     OW  950   3.682   3.041   6.100 -1.0214 -0.0178 -0.2600
   89SOL    HW1  951   3.681   3.132   6.131  1.1143  0.6979 -2.0171
   89SOL    HW2  952   3.605   3.036   6.042 -1.2643  0.6024 -0.0123
   90SOL     OW  953   3.450   0.431   2.862  0.3559  0.1819  0.3000
   90SOL    HW1  954   3.358   0.431   2.835  0.3122  1.0022  0.4191
   90SOL    HW2  955   3.446   0.413   2.956  0.3958 -0.8893  0.1081
   91SOL     OW  956   0.632   3.641   6.237 -0.2505 -0.5844  0.3247
   91SOL    HW1  957   0.699   3.706   6.216  0.5314 -0.8404  1.9039
   91SOL    HW2  958   0.675   3.578   6.295 -1.7275 -0.9818  1.0665
   92SOL     OW  959   5.056   2.562   3.699 -0.5426 -0.0832  0.2283
   92SOL    HW1  960   5.060   2.514   3.616  1.2779  0.1043  0.1636
   92SOL    HW2  961   5.075   2.653   3.674 -0.2445  0.0151  0.7968
   93SOL     OW  962   1.026   0.954   3.280  0.6243  0.5414  0.3048
   93SOL    HW1  963   0.934   0.979   3.290  1.1253  3.3299 -0.9429
   93SOL    HW2  964   1.025   0.887   3.211 -0.6048 -1.1486  1.8784
   94SOL     OW  965   3.595   4.216   1.237 -0.4217  0.0473  0.0340
   94SOL    HW1  966   3.525   4.263   1.191 -0.3494 -0.6432 -0.8097
   94SOL    HW2  967   3.562   4.205   1.326 -0.0882  2.4224  0.5224
   95SOL     OW  968   2.283   5.540   5.430 -0.4309  0.1557  0.1483
   95SOL    HW1  969   2.336   5.469   5.468  0.6639  1.1386  0.5279
   95SOL    HW2  970   2.347   5.605   5.402 -1.4503  1.6112  1.0739
   96SOL     OW  971   4.859   4.608   2.762  0.0201  0.3912  0.0626
   96SOL    HW1  972   4.875   4.692   2.719  0.6268 -0.0607 -0.6316
   96SOL    HW2  973   4.860   4.628   2.856 -0.8753  1.3211 -0.1081
   97SOL     OW  974   1.730   3.297   3.594  0.5925 -0.1084  0.0783
   97SOL    HW1  975   1.711   3.234   3.664  0.9783  0.8275  1.0626
   97SOL    HW2  976   1.728   3.382   3.638  0.1838  0.5686 -1.1989
   98SOL     OW  977   2.949   2.223   2.528 -0.0368  0.4819  0.0093
   98SOL    HW1  978   2.974   2.305   2.485  0.3365  1.0313  1.2279
   98SOL    HW2  979   2.956   2.242   2.622 -2.1497 -0.2383  0.3789
   99SOL     OW  980   5.331   1.508   0.545  0.0360 -0.2071  0.0696
   99SOL    HW1  981   5.399   1.552   0.597 -0.2929  0.4335 -0.0284
   99SOL    HW2  982   5.339   1.546   0.458 -1.4410  1.0298  0.4265
  100SOL     OW  983   2.661   4.799   2.864 -0.3137 -0.4574  0.5088
  100SOL    HW1  984   2.754   4.819   2.876 -0.6135  0.9456  0.7151
  100SOL    HW2  985   2.616   4.869   2.911 -1.4865  0.3071 -1.6342
  101SOL     OW  986   2.436   3.374   5.265 -0.3307 -0.2655  0.6308
  101SOL    HW1  987   2.483   3.304   5.220 -0.2019 -1.5101  2.5687
  101SOL    HW2  988   2.478   3.380   5.351 -1.9056  0.4870  1.4039
  102SOL     OW  989   0.286   4.665   1.743 -0.2506 -0.6751  0.1664
  102SOL    HW1  990   0.276   4.757   1.720  1.4609 -0.7840 -1.2017
  102SOL    HW2  991   0.371   4.661   1.787 -0.9082 -1.4226  1.4312
  103SOL     OW  992   1.081   4.817   3.518  0.3549 -0.1341  0.3552
  103SOL    HW1  993   1.043   4.867   3.446 -0.0138 -0.6988  0.1488
  103SOL    HW2  994   1.046   4.858   3.598  0.2034  0.0498  0.1939
  104SOL     OW  995   2.146   4.348   0.556 -0.1555 -0.4198 -0.9010
  104SOL    HW1  996   2.079   4.280   0.553  0.7889 -1.5292  1.0818
  104SOL    HW2  997   2.098   4.427   0.582 -0.8727 -0.9644 -0.5259
  105SOL     OW  998   5.952   5.158   5.525 -0.1683  0.4003  0.0999
  105SOL    HW1  999   5.994   5.215   5.462 -1.1350  0.3215 -0.6459
  105SOL    HW2 1000   5.861   5.187   5.527 -0.5280 -0.6640  0.2056
  106SOL     OW 1001   4.674   3.490   3.880 -0.2958 -0.2778  0.0838
  106SOL    HW1 1002   4.629   3.552   3.823 -1.6856 -1.0547  0.2949
  106SOL    HW2 1003   4.694   3.541   3.959 -1.8012 -0.1802  0.4278
  107SOL     OW 1004   5.444   5.002   2.627 -0.4212  0.0312  0.7300
  107SOL    HW1 1005   5.424   4.988   2.719 -0.1889  0.5277  0.8626
  107SOL    HW2 1006   5.443   4.915   2.588 -0.9433 -0.1415  1.1139
  108SOL     OW 1007   0.935   2.897   4.054 -0.1826  0.1491 -0.2762
  108SOL    HW1 1008   0.918   2.940   3.970  0.6232 -0.6827 -0.8845
  108SOL    HW2 1009   1.031   2.891   4.058 -0.2243  0.0312  0.6250
  109SOL     OW 1010   3.431   2.364   2.193  0.3456  0.0960  0.3337
  109SOL    HW1 1011   3.508   2.309   2.210  1.0638  0.2027 -2.1468
  109SOL    HW2 1012   3.356   2.309   2.218  1.1528 -1.0088  0.3821
  110SOL     OW 1013   3.203   0.625   0.994  0.0600  0.6186 -0.5112
  110SOL    HW1 1014   3.252   0.706   0.977 -1.1932  1.3437 -0.8179
  110SOL    HW2 1015   3.165   0.602   0.909 -0.8289  0.5686 -0.1139
  111SOL     OW 1016   1.191   6.258   0.757 -0.2748 -0.1147 -0.0083
  111SOL    HW1 1017   1.244   6.178   0.750  0.7446  0.5662 -0.2324
  111SOL    HW2 1018   1.127   6.250   0.686  0.6272 -0.1432 -0.8313
  112SOL     OW 1019   1.209   2.669   2.280 -0.0756 -0.2368 -0.2287
  112SOL    HW1 1020   1.145   2.734   2.308 -0.4873 -0.4702 -0.6105
  112SOL    HW2 1021   1.158   2.605   2.230  0.2886 -0.9568  0.3042
  113SOL     OW 1022   3.719   5.598   4.503 -0.7576  0.3562  0.0290
  113SOL    HW1 1023   3.799   5.624   4.550 -0.8795 -0.5827  0.8088
  113SOL    HW2 1024   3.719   5.502   4.509 -1.9120  0.3472 -0.0131
  114SOL     OW 1025   6.269   1.880   2.400  0.4451  0.6542  0.2380
  114SOL    HW1 1026   6.223   1.951   2.445  1.2667  1.2826  0.1126
  114SOL    HW2 1027   6.200   1.829   2.359 -0.3300  0.1487  2.0683
  115SOL     OW 1028   1.468   6.138   0.296  0.0285  0.0989  0.3414
  115SOL    HW1 1029   1.385   6.178   0.270  0.3036  0.3831 -0.1106
  115SOL    HW2 1030   1.444   6.049   0.323 -0.3249 -0.0882 -0.5451
  116SOL     OW 1031   3.354   5.803   5.151  0.2001  0.0249  0.2602
  116SOL    HW1 1032   3.437   5.794   5.106 -0.0329 -2.3051  0.2094
  116SOL    HW2 1033   3.299   5.732   5.117 -1.2662  0.5252  1.4378
  117SOL     OW 1034   1.584   2.850   4.979  0.5116 -0.2160 -0.5068
  117SOL    HW1 1035   1.674   2.882   4.985  0.5459 -0.2800 -0.6832
  117SOL    HW2 1036   1.575   2.790   5.053  0.5579 -0.0732 -0.3846
  118SOL     OW 1037   2.365   5.149   3.189  0.0523  0.1626  0.0760
  118SOL    HW1 1038   2.346   5.150   3.095  1.1789 -0.5331 -0.1713
  118SOL    HW2 1039   2.297   5.205   3.227 -1.4221 -0.8488 -0.9450
  119SOL     OW 1040   5.748   2.852   2.214  0.1850 -0.2305 -0.5169
  119SOL    HW1 1041   5.820   2.899   2.256  2.0224 -2.7350 -0.6238
  119SOL    HW2 1042   5.728   2.780   2.275 -2.9778  0.8837 -0.0290
  120SOL     OW 1043   5.849   1.044   4.243  0.5566 -0.2889 -0.1468
  120SOL    HW1 1044   5.808   0.967   4.282 -1.0409  0.2395 -0.6746
  120SOL    HW2 1045   5.831   1.115   4.305 -1.0900  0.3410 -1.2537
  121SOL     OW 1046   1.499   1.761   4.258 -0.1245  0.4861 -0.3243
  121SOL    HW1 1047   1.431   1.810   4.303 -0.8301 -0.5269 -0.2616
  121SOL    HW2 1048   1.487   1.670   4.287  1.7629  0.4013  0.3080
  122SOL     OW 1049   2.189   4.714   6.381 -0.6786 -0.0575 -0.4761
  122SOL    HW1 1050   2.251   4.743   6.448 -1.5132 -0.6671  0.5952
  122SOL    HW2 1051   2.237   4.651   6.328 -0.5276 -0.9743  0.7120
  123SOL     OW 1052   5.642   6.421   4.929  0.2191  0.0488 -0.4233
  123SOL    HW1 1053   5.601   6.373   5.001  0.5477  0.2017 -0.1297
  123SOL    HW2 1054   5.630   6.514   4.953  1.9942  0.1016  0.4072
  124SOL     OW 1055   6.238   5.080   4.001 -0.1425 -0.1124  0.5349
  124SOL    HW1 1056   6.143   5.079   4.012 -0.3994 -1.3396 -1.2074
  124SOL    HW2 1057   6.269   5.009   4.058 -0.3398 -0.0932  0.6685
  125SOL     OW 1058   2.839   3.476   2.741  0.1076  0.4117 -0.6683
  125SOL    HW1 1059   2.754   3.443   2.769  0.4006  1.1844  1.2954
  125SOL    HW2 1060   2.896   3.399   2.743  0.0107  0.3408  0.5637
  126SOL     OW 1061   2.159   4.133   5.148 -0.4827 -0.0609 -0.0806
  126SOL    HW1 1062   2.145   4.227   5.158  1.2814  0.1886  0.4735
  126SOL    HW2 1063   2.144   4.116   5.055 -0.9042  0.7543 -0.1634
  127SOL     OW 1064   2.971   2.643   3.848 -0.2027 -0.2099 -0.7498
  127SOL    HW1 1065   2.976   2.622   3.941 -1.7310 -2.0790 -1.0384
  127SOL    HW2 1066   3.038   2.588   3.807  1.1932  1.3672 -0.7029
  128SOL     OW 1067   5.395   4.226   0.153  0.2442  0.0218  0.8595
  128SOL    HW1 1068   5.485   4.207   0.129 -0.0166 -0.4220  0.2072
  128SOL    HW2 1069   5.400   4.258   0.243  1.4850  3.4311 -0.2621
  129SOL     OW 1070   2.904   5.350   1.131  0.3800 -0.0001 -0.5568
  129SOL    HW1 1071   2.959   5.321   1.204  0.1875 -0.2672 -0.5181
  129SOL    HW2 1072   2.831   5.395   1.173 -0.3578 -1.1927 -0.5201
  130SOL     OW 1073   0.258   3.311   3.582  0.1913 -0.2208 -0.0216
  130SOL    HW1 1074   0.265   3.234   3.637  0.3436  0.4553  0.9169
  130SOL    HW2 1075   0.287   3.384   3.637 -2.1914  0.8625 -0.0773
  131SOL     OW 1076   3.524   3.216   1.834  0.1677  0.0463 -0.1793
  131SOL    HW1 1077   3.481   3.208   1.919 -0.0017  1.2697 -0.1380
  131SOL    HW2 1078   3.583   3.290   1.843  0.7912 -0.3568 -0.8690
  132SOL     OW 1079   5.034   1.390   5.241 -0.0146 -0.1533  0.3200
  132SOL    HW1 1080   4.941   1.410   5.248  0.1384  0.0373  2.1186
  132SOL    HW2 1081   5.047   1.370   5.148 -1.2762  2.5590 -0.5430
  133SOL     OW 1082   2.786   1.392   2.611  0.4233  0.5408  0.5156
  133SOL    HW1 1083   2.710   1.348   2.572 -0.2495  1.6437  0.5461
  133SOL    HW2 1084   2.804   1.466   2.553  0.3829  1.2917  1.4378
  134SOL     OW 1085   4.319   4.196   2.212  0.2110  0.2037 -0.5424
  134SOL    HW1 1086   4.247   4.136   2.196 -0.7659  1.2821 -0.3629
  134SOL    HW2 1087   4.356   4.214   2.126  1.3553 -1.6171 -0.4751
  135SOL     OW 1088   3.159   5.901   2.299  0.7688 -0.3739 -0.3739
  135SOL    HW1 1089   3.130   5.822   2.345 -0.6846 -0.2617 -1.0529
  135SOL    HW2 1090   3.081   5.932   2.253  1.5309  0.9971 -0.7879
  136SOL     OW 1091   3.436   0.238   6.344  0.4599  0.6448 -0.1572
  136SOL    HW1 1092   3.477   0.153   6.359 -1.1928  0.1817  2.5709
  136SOL    HW2 1093   3.486   0.299   6.399 -1.0629  0.4755  1.5122
  137SOL     OW 1094   4.356   1.801   5.710 -0.2568 -0.1361  0.5056
  137SOL    HW1 1095   4.399   1.726   5.669  2.5031  2.3202 -1.5319
  137SOL    HW2 1096   4.412   1.821   5.785 -0.9632 -0.0562  1.0168
  138SOL     OW 1097   4.090   2.098   4.483 -0.1003 -0.6702  0.0460
  138SOL    HW1 1098   4.169   2.084   4.431 -0.9451 -0.3462 -1.3627
  138SOL    HW2 1099   4.021   2.051   4.437 -1.4839  2.0097 -0.8202
  139SOL     OW 1100   6.288   0.889   5.671  0.3667  0.0156 -0.1356
  139SOL    HW1 1101   6.233   0.888   5.593 -0.7420 -1.3108  0.6142
  139SOL    HW2 1102   6.323   0.800   5.677  0.8303  0.2390  0.6111
  140SOL     OW 1103   0.002   3.023   4.846  0.2454  0.1014 -0.0433
  140SOL    HW1 1104  -0.051   3.076   4.905 -0.6212 -1.9297  1.1033
  140SOL    HW2 1105   0.084   3.008   4.893 -0.9738 -2.6890  1.4015
  141SOL     OW 1106   2.828   2.412   2.906  0.4204  0.1856  0.3242
  141SOL    HW1 1107   2.744   2.365   2.903  0.6943 -0.3613  0.9640
  141SOL    HW2 1108   2.818   2.474   2.978  0.9343 -0.6146  1.0955
  142SOL     OW 1109   5.937   4.009   4.106  0.4535  0.3060 -0.2669
  142SOL    HW1 1110   6.018   3.990   4.152 -0.2883  0.0783  0.9717
  142SOL    HW2 1111   5.949   3.970   4.019  1.6563  0.2887 -0.1106
  143SOL     OW 1112   1.638   1.162   3.205 -0.2101  0.2909 -0.0814
  143SOL    HW1 1113   1.647   1.086   3.262  0.5678  0.4318 -0.0087
  143SOL    HW2 1114   1.585   1.224   3.256 -1.8573 -0.6424 -0.6019
  144SOL     OW 1115   0.160   0.779   6.512 -0.2089 -0.0357 -0.0835
  144SOL    HW1 1116   0.212   0.852   6.545 -0.6738  1.0443 -1.6511
  144SOL    HW2 1117   0.196   0.761   6.425 -0.4299 -1.3561  0.0744
  145SOL     OW 1118   5.526   0.696   3.569  0.3483  0.1112 -0.9064
  145SOL    HW1 1119   5.575   0.709   3.488  1.0927 -2.7165 -1.0292
  145SOL    HW2 1120   5.591   0.661   3.631 -0.8623 -0.8897 -0.1450
  146SOL     OW 1121   0.963   3.471   6.150  0.2392  0.3193 -0.2194
  146SOL    HW1 1122   0.943   3.391   6.198 -0.9313  0.0375 -1.1351
  146SOL    HW2 1123   1.051   3.458   6.116 -0.2511 -0.9364 -1.0528
  147SOL     OW 1124   2.022   4.326   2.126  0.2256  0.4606  0.8660
  147SOL    HW1 1125   2.077   4.278   2.188  0.4738 -0.1219  0.2153
  147SOL    HW2 1126   2.016   4.268   2.050 -0.3389  1.0213  0.4729
  148SOL     OW 1127   4.085   0.935   4.068 -0.0272  0.3868  0.2271
  148SOL    HW1 1128   4.084   1.009   4.128  2.4648 -0.6098  1.6154
  148SOL    HW2 1129   4.176   0.905   4.066 -0.9167 -2.7408 -0.1506
  149SOL     OW 1130   2.527   1.663   1.708  0.2245  0.3340  1.2998
  149SOL    HW1 1131   2.571   1.651   1.793  0.3425  0.6715  1.2859
  149SOL    HW2 1132   2.452   1.720   1.728  0.0680  0.1515  1.2354
  150SOL     OW 1133   5.467   4.329   0.662  0.2124  0.9659  0.1515
  150SOL    HW1 1134   5.455   4.254   0.720 -1.3296  0.0202 -1.2799
  150SOL    HW2 1135   5.411   4.397   0.698 -1.9467 -0.1159 -0.9532
  151SOL     OW 1136   1.447   5.760   2.821 -0.0199  0.5658 -0.2236
  151SOL    HW1 1137   1.362   5.719   2.803  0.5686  0.0797 -2.2037
  151SOL    HW2 1138   1.492   5.760   2.736  2.3746 -0.1647  0.9343
  152SOL     OW 1139   1.779   5.653   3.659 -0.0017 -0.1355 -0.3474
  152SOL    HW1 1140   1.842   5.724   3.672  0.6590 -1.0442  1.9780
  152SOL    HW2 1141   1.827   5.586   3.611  0.3080 -0.1863  0.0305
  153SOL     OW 1142   1.571   4.638   1.458  0.1590  0.1715 -0.4226
  153SOL    HW1 1143   1.651   4.685   1.479  1.1153 -0.9708 -1.3770
  153SOL    HW2 1144   1.600   4.550   1.437 -1.6059 -0.9551  1.5338
  154SOL     OW 1145   5.490   4.761   2.473  0.0943  0.2780 -0.6685
  154SOL    HW1 1146   5.438   4.682   2.485  0.4769  0.2782  1.2115
  154SOL    HW2 1147   5.580   4.733   2.487  0.4922  0.5865 -2.3810
  155SOL     OW 1148   1.721   1.535   6.107 -0.1478  0.3097  0.4992
  155SOL    HW1 1149   1.720   1.444   6.077  1.5066 -0.1309  1.6715
  155SOL    HW2 1150   1.686   1.585   6.033 -2.3428 -1.3759  0.2929
  156SOL     OW 1151   0.243   3.099   3.369  0.0111 -0.2071 -0.2453
  156SOL    HW1 1152   0.246   3.010   3.404 -2.1325 -0.2559 -0.0398
  156SOL    HW2 1153   0.207   3.152   3.440 -0.7568  0.4014 -1.0559
  157SOL     OW 1154   3.636   5.134   5.679  0.0380  0.2111 -0.0948
  157SOL    HW1 1155   3.644   5.083   5.599  1.1751  0.7120 -0.3130
  157SOL    HW2 1156   3.640   5.226   5.650 -1.5081  0.4414  0.3402
  158SOL     OW 1157   2.398   3.771   1.773 -0.1509 -0.5166 -0.0327
  158SOL    HW1 1158   2.336   3.701   1.796 -0.9757 -0.5834 -2.2258
  158SOL    HW2 1159   2.477   3.725   1.747 -0.1868 -0.5707 -0.0483
  159SOL     OW 1160   3.548   3.962   1.042 -0.1821  0.4441 -0.3010
  159SOL    HW1 1161   3.634   3.920   1.055 -1.1021 -1.4615 -0.0191
  159SOL    HW2 1162   3.539   4.020   1.117  0.4397 -0.1128  0.2268
  160SOL     OW 1163   4.794   1.078   1.742 -0.2097  0.1460 -0.1740
  160SOL    HW1 1164   4.834   0.997   1.710 -1.1942 -0.4071 -0.0636
  160SOL    HW2 1165   4.706   1.077   1.704 -1.4218 -0.4890  2.3954
  161SOL     OW 1166   3.304   5.145   4.440  0.0767  0.1853 -1.1829
  161SOL    HW1 1167   3.224   5.137   4.491  0.3457  1.8794 -0.4053
  161SOL    HW2 1168   3.277   5.191   4.360 -0.4706 -3.0341 -3.0143
  162SOL     OW 1169   4.560   4.025   4.855  0.5859  0.3691  0.5146
  162SOL    HW1 1170   4.629   3.959   4.862 -0.0958 -0.2720  1.3151
  162SOL    HW2 1171   4.482   3.976   4.829 -0.2030  0.6646  2.2194
  163SOL     OW 1172   2.125   0.365   1.040 -0.4734  0.3366 -0.4192
  163SOL    HW1 1173   2.127   0.346   1.134  1.5629 -0.1697 -0.5186
  163SOL    HW2 1174   2.200   0.423   1.026 -1.8185  1.9200 -1.4616
  164SOL     OW 1175   5.125   3.700   5.596 -0.1580  0.2593 -0.1542
  164SOL    HW1 1176   5.175   3.778   5.620 -0.0621  0.2846 -0.4290
  164SOL    HW2 1177   5.052   3.699   5.657  0.5104 -0.1190  0.6517
  165SOL     OW 1178   1.094   4.989   2.760 -0.0851 -0.5503  0.0074
  165SOL    HW1 1179   1.160   5.057   2.744 -1.6376  0.9974 -0.0775
  165SOL    HW2 1180   1.011   5.030   2.735 -1.0173 -2.7266 -0.7181
  166SOL     OW 1181   3.769   1.419   4.546 -0.2852  0.0126  0.0887
  166SOL    HW1 1182   3.816   1.347   4.589  2.8898  1.1156 -1.2591
  166SOL    HW2 1183   3.836   1.484   4.526 -2.9476  3.3270  0.9752
  167SOL     OW 1184   4.174   1.973   1.951 -0.0037  0.7055  0.0066
  167SOL    HW1 1185   4.117   2.039   1.912 -0.2723  0.0017 -0.8088
  167SOL    HW2 1186   4.227   1.941   1.878  1.2513  1.1425  0.6903
  168SOL     OW 1187   6.347   2.093   0.098 -0.2711  0.2939 -0.0758
  168SOL    HW1 1188   6.312   2.176   0.133  0.4210  0.7682 -0.4973
  168SOL    HW2 1189   6.309   2.026   0.156 -1.8299  0.7814 -0.4721
  169SOL     OW 1190   2.953   2.737   0.184  0.2965 -0.4753  0.1824
  169SOL    HW1 1191   2.924   2.799   0.117  2.8870  1.4490  0.6576
  169SOL    HW2 1192   2.938   2.783   0.267  1.8222 -0.5908  0.5679
  170SOL     OW 1193   0.007   4.409   3.388  0.0182  0.2684 -0.1145
  170SOL    HW1 1194  -0.081   4.442   3.405  0.0470  0.7974 -0.9399
  170SOL    HW2 1195   0.065   4.477   3.421  0.1561 -0.4701  1.2422
  171SOL     OW 1196   2.919   3.903   4.580  0.2549 -0.0227  0.1665
  171SOL    HW1 1197   2.968   3.981   4.554 -1.6874  1.7543  1.5601
  171SOL    HW2 1198   2.981   3.852   4.632  0.9314  1.6843  1.0981
  172SOL     OW 1199   5.034   0.485   5.267  0.0506 -0.3060 -0.0477
  172SOL    HW1 1200   5.118   0.446   5.244 -1.4896 -3.2590 -1.1244
  172SOL    HW2 1201   4.992   0.420   5.323 -1.6666  0.9555  0.2052
  173SOL     OW 1202   3.290   2.542   2.036 -0.3467 -0.2305  0.3289
  173SOL    HW1 1203   3.357   2.584   1.983  0.6035  2.1905  3.1624
  173SOL    HW2 1204   3.335   2.469   2.080 -0.4635 -0.6352 -0.2147
  174SOL     OW 1205   5.536   1.417   1.321  0.4284 -0.3830 -0.9943
  174SOL    HW1 1206   5.457   1.366   1.305  1.8120 -2.7363 -0.8416
  174SOL    HW2 1207   5.580   1.419   1.236  0.6487  0.1057 -0.8682
  175SOL     OW 1208   0.639   1.692   3.092  0.2134  0.3783 -0.2594
  175SOL    HW1 1209   0.686   1.770   3.063  1.8928 -0.9987 -1.4738
  175SOL    HW2 1210   0.552   1.700   3.054 -0.2595  2.4566  1.0943
  176SOL     OW 1211   3.431   2.356   4.311 -0.6286 -0.2215 -0.6186
  176SOL    HW1 1212   3.355   2.306   4.340  0.8069 -1.4232  1.3286
  176SOL    HW2 1213   3.435   2.431   4.371 -0.5240  0.0809 -1.0005
  177SOL     OW 1214   4.074   3.645   3.830 -0.3327  0.1486  0.4511
  177SOL    HW1 1215   4.075   3.691   3.914  0.0776 -1.2228  1.2269
  177SOL    HW2 1216   4.011   3.693   3.777 -1.6828  0.1993  2.0275
  178SOL     OW 1217   5.487   0.699   6.073 -0.2215 -0.1621  0.1273
  178SOL    HW1 1218   5.403   0.653   6.066 -0.5283 -0.0309  2.2390
  178SOL    HW2 1219   5.552   0.635   6.044 -1.0863  0.3965 -3.6392
  179SOL     OW 1220   5.682   4.262   4.256 -0.5412 -0.2415 -0.2733
  179SOL    HW1 1221   5.764   4.229   4.293 -0.3631  1.2614  0.8235
  179SOL    HW2 1222   5.634   4.184   4.229 -1.0731 -1.6793  4.0293
  180SOL     OW 1223   4.074   4.302   5.618 -0.2290 -0.4600  0.3214
  180SOL    HW1 1224   4.070   4.323   5.712 -0.3773  0.2038  0.1765
  180SOL    HW2 1225   4.033   4.378   5.576 -1.6431 -1.4671 -0.1897
  181SOL     OW 1226   1.809   0.187   4.991  0.2115  0.0808 -0.2195
  181SOL    HW1 1227   1.894   0.231   4.987 -0.6055  1.7314 -0.5455
  181SOL    HW2 1228   1.745   0.259   4.994 -1.2272 -1.0899 -1.2466
  182SOL     OW 1229   4.164   4.968   4.829 -0.0793 -0.2078 -0.0219
  182SOL    HW1 1230   4.144   5.011   4.746  2.8266  2.3132  0.4439
  182SOL    HW2 1231   4.181   4.877   4.805 -0.2887  0.2387 -2.0313
  183SOL     OW 1232   2.616   0.691   0.998 -0.0070  0.0556  0.0550
  183SOL    HW1 1233   2.623   0.677   0.904  1.6302  0.7223  0.0505
  183SOL    HW2 1234   2.559   0.767   1.007 -1.5842 -1.0351 -0.2882
  184SOL     OW 1235   5.143   6.353   2.675  0.3445 -0.0954  0.2074
  184SOL    HW1 1236   5.064   6.304   2.697 -0.1615  0.6050 -0.0381
  184SOL    HW2 1237   5.124   6.443   2.700  0.7210  0.2470 -0.6947
  185SOL     OW 1238   2.473   2.318   0.444 -0.5423 -0.4613  0.2932
  185SOL    HW1 1239   2.414   2.394   0.447  0.3486  0.2414  0.4892
  185SOL    HW2 1240   2.541   2.338   0.508 -0.2466 -1.3998  0.2853
  186SOL     OW 1241   1.775   0.004   1.676  0.0714 -0.5005  0.0184
  186SOL    HW1 1242   1.788  -0.088   1.696 -1.3406 -0.7509 -0.1781
  186SOL    HW2 1243   1.797   0.012   1.583  0.2571 -0.6222  0.0522
  187SOL     OW 1244   2.876   1.815   3.730  0.2804 -0.9894  0.1085
  187SOL    HW1 1245   2.915   1.794   3.646  2.3536 -2.3642  1.3251
  187SOL    HW2 1246   2.819   1.740   3.750  1.1510 -1.5163  0.6803
  188SOL     OW 1247   4.217   1.551   2.105 -0.3660  0.0382  0.4447
  188SOL    HW1 1248   4.235   1.521   2.194  2.6414 -1.9755 -0.6754
  188SOL    HW2 1249   4.238   1.644   2.107  3.2498 -0.6159  1.2172
  189SOL     OW 1250   0.053   2.381   1.624  0.0201  0.2582  0.4667
  189SOL    HW1 1251  -0.035   2.369   1.589 -0.0266 -2.5514  1.3003
  189SOL    HW2 1252   0.038   2.408   1.715  0.0580  0.9881  0.2619
  190SOL     OW 1253   0.494   0.333   0.652 -0.1941  0.4994  0.0344
  190SOL    HW1 1254   0.528   0.421   0.668  1.2635 -0.1919  0.9895
  190SOL    HW2 1255   0.478   0.297   0.740 -1.9400  0.2254 -0.3630
  191SOL     OW 1256   1.543   0.969   0.291 -0.2522  0.1271  0.3410
  191SOL    HW1 1257   1.497   0.920   0.222 -0.0989  0.5946 -0.0967
  191SOL    HW2 1258   1.558   0.904   0.360 -1.1051 -0.1622  0.2720
  192SOL     OW 1259   5.054   2.368   3.490  0.0833  0.2695  0.2256
  192SOL    HW1 1260   5.081   2.302   3.427  0.7439 -1.5989  2.3287
  192SOL    HW2 1261   4.989   2.324   3.545 -1.7190  2.3396 -0.0989
  193SOL     OW 1262   5.021   5.639   3.201  0.0507  0.5228  0.1396
  193SOL    HW1 1263   4.931   5.638   3.233 -0.1750 -1.8858 -0.3740
  193SOL    HW2 1264   5.039   5.731   3.183 -2.0316  1.1517  0.9868
  194SOL     OW 1265   2.112   5.404   4.387  0.1714 -0.5727 -0.6223
  194SOL    HW1 1266   2.122   5.309   4.378  1.4040 -0.5082 -0.1490
  194SOL    HW2 1267   2.093   5.417   4.480  1.1130 -0.2943 -0.4552
  195SOL     OW 1268   6.399   5.328   6.324 -0.0840 -0.1168  0.0826
  195SOL    HW1 1269   6.412   5.331   6.419 -1.1624 -0.3509  0.2615
  195SOL    HW2 1270   6.333   5.395   6.308  0.4014  0.2112 -0.5682
  196SOL     OW 1271   4.623   5.754   2.293  0.2722  0.6613 -0.1426
  196SOL    HW1 1272   4.646   5.840   2.258 -0.3871  0.6327 -0.6549
  196SOL    HW2 1273   4.595   5.772   2.383  2.0138  0.7287  0.4293
  197SOL     OW 1274   3.654   6.205   4.657 -0.5916  0.7543  0.0711
  197SOL    HW1 1275   3.714   6.139   4.622 -1.0642  1.3231 -1.9301
  197SOL    HW2 1276   3.643   6.180   4.749  0.3587 -1.1002 -0.2597
  198SOL     OW 1277   4.278   5.226   3.248 -0.5628  0.1294 -0.5313
  198SOL    HW1 1278   4.298   5.143   3.204  0.2533  1.1780 -2.2482
  198SOL    HW2 1279   4.299   5.209   3.340 -3.4324 -2.4967 -0.2012
  199SOL     OW 1280   5.154   4.021   3.894  0.4867 -0.1193  0.1564
  199SOL    HW1 1281   5.139   4.115   3.880 -0.6955 -0.2744  0.2848
  199SOL    HW2 1282   5.095   3.978   3.833  0.9184 -0.7898  0.2062
  200SOL     OW 1283   5.272   5.832   5.279 -0.0100  0.2496 -0.2574
  200SOL    HW1 1284   5.269   5.774   5.356  0.4194  0.5296 -0.0238
  200SOL    HW2 1285   5.359   5.817   5.242  0.1557  0.8545 -0.1109
  201SOL     OW 1286   0.828   6.169   4.109 -0.2571  0.3805 -0.8768
  201SOL    HW1 1287   0.738   6.138   4.118  0.1871 -0.6102  0.5213
  201SOL    HW2 1288   0.880   6.105   4.158  1.2621  0.7184 -1.9788
  202SOL     OW 1289   1.862   3.204   1.381  0.6670  0.4498  0.1995
  202SOL    HW1 1290   1.785   3.253   1.353  0.5215  0.9263  1.3507
  202SOL    HW2 1291   1.831   3.147   1.451  1.5995  1.8435  1.8571
  203SOL     OW 1292   2.624   4.106   3.295  0.5229 -0.2825  0.1169
  203SOL    HW1 1293   2.700   4.049   3.282  0.2781 -0.2723 -1.5433
  203SOL    HW2 1294   2.554   4.046   3.321  0.1277 -0.8839 -2.1318
  204SOL     OW 1295   1.054   2.755   6.061 -0.3142  0.1218  0.1237
  204SOL    HW1 1296   1.137   2.708   6.074 -1.5859 -2.6424 -0.8855
  204SOL    HW2 1297   1.080   2.845   6.042  2.4263 -0.5538  0.2556
  205SOL     OW 1298   4.861   5.278   5.615  0.2870 -0.1091  0.3376
  205SOL    HW1 1299   4.778   5.302   5.656  0.5051 -0.2892  0.8915
  205SOL    HW2 1300   4.924   5.340   5.651  0.0859  1.1965 -1.4375
  206SOL     OW 1301   4.954   1.549   0.583 -0.5293 -0.4339  0.0543
  206SOL    HW1 1302   4.890   1.599   0.532  1.6888 -0.0773 -2.6697
  206SOL    HW2 1303   5.025   1.611   0.599 -0.5283 -0.9790  2.4434
  207SOL     OW 1304   2.510   6.248   6.127 -0.2090  0.2902 -0.1998
  207SOL    HW1 1305   2.478   6.172   6.078  0.2564  0.1354 -0.2736
  207SOL    HW2 1306   2.596   6.266   6.089  0.2116  0.0952  0.6408
  208SOL     OW 1307   3.329   3.038   2.483 -0.2287 -0.5826  0.3933
  208SOL    HW1 1308   3.327   2.953   2.439 -1.7167 -0.1692 -0.4123
  208SOL    HW2 1309   3.318   3.017   2.576  1.7841 -1.3889  0.5016
  209SOL     OW 1310   4.117   3.720   1.770  0.4940  0.5477 -0.5214
  209SOL    HW1 1311   4.200   3.701   1.813  0.6491  0.5964 -0.7951
  209SOL    HW2 1312   4.087   3.801   1.811  0.6719  0.6285 -0.5483
  210SOL     OW 1313   5.207   4.417   1.902  0.5265  0.7086 -1.0224
  210SOL    HW1 1314   5.150   4.422   1.825 -0.0715 -0.4500 -0.6678
  210SOL    HW2 1315   5.275   4.355   1.877 -0.3696 -0.6565 -0.2003
  211SOL     OW 1316   3.461   4.026   6.279  0.0307 -0.1282  0.1875
  211SOL    HW1 1317   3.508   3.999   6.358  1.0502  1.1352  0.0687
  211SOL    HW2 1318   3.377   4.060   6.311  1.3632  2.6713  1.1157
  212SOL     OW 1319   2.030   0.349   3.329  0.3630  0.1215  0.1037
  212SOL    HW1 1320   2.020   0.290   3.254  1.6441  0.0758 -0.0420
  212SOL    HW2 1321   2.013   0.293   3.406  0.0075 -0.0583 -0.1033
  213SOL     OW 1322   6.269   6.461   2.490 -0.0964  0.2426 -0.4481
  213SOL    HW1 1323   6.274   6.368   2.511  0.1223  0.2128 -0.6334
  213SOL    HW2 1324   6.360   6.491   2.490 -0.2477  0.8085  1.1826
  214SOL     OW 1325   0.492   2.919   4.470  0.1571  0.9240 -0.0116
  214SOL    HW1 1326   0.449   2.994   4.428 -0.5490  2.7012  3.5208
  214SOL    HW2 1327   0.572   2.956   4.508  0.2005 -0.2874  1.1351
  215SOL     OW 1328   2.578   0.723   3.148 -0.0692  0.2009 -0.1058
  215SOL    HW1 1329   2.539   0.674   3.075  2.2878  1.3795 -2.3332
  215SOL    HW2 1330   2.596   0.810   3.112  2.9200  0.2581  1.2201
  216SOL     OW 1331   1.708   5.966   5.704 -0.0524  0.1855  0.8957
  216SOL    HW1 1332   1.790   5.921   5.682 -0.5014  0.1768 -0.9427
  216SOL    HW2 1333   1.641   5.899   5.694 -0.6749  1.0471 -1.4024
  217SOL     OW 1334   5.334   0.201   2.857  0.8606 -0.1291  0.4143
  217SOL    HW1 1335   5.359   0.182   2.948  2.2642  0.6925  0.2295
  217SOL    HW2 1336   5.328   0.297   2.853  1.1574 -0.1383 -0.4455
  218SOL     OW 1337   2.698   4.312   3.127 -0.2175 -0.2583 -0.7193
  218SOL    HW1 1338   2.607   4.327   3.099 -0.5537 -1.2564 -0.2122
  218SOL    HW2 1339   2.696   4.225   3.167  1.3093 -1.0476 -2.2259
  219SOL     OW 1340   2.510   4.760   4.807 -0.4691 -0.2953  0.1122
  219SOL    HW1 1341   2.561   4.706   4.746  0.2189 -0.6292  0.9590
  219SOL    HW2 1342   2.485   4.700   4.877  1.4200  0.6909  1.7450
  220SOL     OW 1343   4.813   1.441   2.752  0.2329 -0.2678 -0.4399
  220SOL    HW1 1344   4.805   1.524   2.706  2.0953 -0.2062 -0.7269
  220SOL    HW2 1345   4.796   1.463   2.844  1.3491  0.5805 -0.4182
  221SOL     OW 1346   1.771   4.956   4.034  0.4051 -0.1690 -0.2160
  221SOL    HW1 1347   1.811   4.879   3.995 -0.5288  0.2378 -2.1120
  221SOL    HW2 1348   1.680   4.930   4.052  0.2660  0.2768 -0.2515
  222SOL     OW 1349   2.058   6.282   3.430 -0.3550 -0.1477 -0.0938
  222SOL    HW1 1350   2.153   6.275   3.418 -0.4245  0.6072 -1.2612
  222SOL    HW2 1351   2.032   6.195   3.460  0.5955 -0.6442 -0.6337
  223SOL     OW 1352   6.076   0.790   3.915 -0.4507 -1.0150  0.2940
  223SOL    HW1 1353   6.015   0.836   3.857  0.7388  1.5723  0.9696
  223SOL    HW2 1354   6.141   0.856   3.940  2.4423 -3.4928 -0.0335
  224SOL     OW 1355   1.163   3.284   2.534 -0.4189  0.2691 -0.4726
  224SOL    HW1 1356   1.156   3.232   2.454  0.1401  4.0291 -3.2035
  224SOL    HW2 1357   1.256   3.309   2.538 -0.2037 -0.6122  2.0309
  225SOL     OW 1358   2.808   4.662   0.012 -0.6222 -0.5478 -0.3587
  225SOL    HW1 1359   2.733   4.685  -0.043 -0.7540 -2.1136 -0.8797
  225SOL    HW2 1360   2.884   4.693  -0.037 -0.8408 -0.2856 -0.5345
  226SOL     OW 1361   2.576   3.631   3.422 -0.0779  0.5031  0.0927
  226SOL    HW1 1362   2.496   3.584   3.399  0.0608  0.0387  0.5277
  226SOL    HW2 1363   2.565   3.718   3.385 -0.3649  0.1422 -0.6769
  227SOL     OW 1364   1.450   2.674   1.007 -0.4387  0.0970  0.1389
  227SOL    HW1 1365   1.512   2.699   1.076 -2.7046 -0.9688  2.7638
  227SOL    HW2 1366   1.482   2.589   0.976  1.0285  0.9335 -0.7461
  228SOL     OW 1367   2.463   0.519   2.948  0.6382 -0.7387 -0.2049
  228SOL    HW1 1368   2.453   0.473   2.865 -0.1579  0.1007 -0.5893
  228SOL    HW2 1369   2.409   0.469   3.010  0.1596 -0.5939 -0.5056
  229SOL     OW 1370   5.740   2.977   4.216  0.4553  0.7609  0.4539
  229SOL    HW1 1371   5.812   2.989   4.154 -0.1630  0.6119 -0.2995
  229SOL    HW2 1372   5.732   2.883   4.227 -0.0707  0.7523  0.0086
  230SOL     OW 1373   0.338   3.289   6.481 -0.4773 -0.4427  0.3137
  230SOL    HW1 1374   0.331   3.384   6.491  3.2043 -0.0208  0.0643
  230SOL    HW2 1375   0.267   3.266   6.421 -2.7352  1.7543  1.9131
  231SOL     OW 1376   0.478   3.311   1.203 -0.2090  0.1973 -1.0886
  231SOL    HW1 1377   0.493   3.240   1.266  0.6850  1.2545 -0.0676
  231SOL    HW2 1378   0.554   3.309   1.145 -1.4142 -1.2941 -2.7092
  232SOL     OW 1379   2.312   0.287   2.236 -0.2965 -0.4588  0.5958
  232SOL    HW1 1380   2.378   0.270   2.168  0.5849  0.5511  1.1777
  232SOL    HW2 1381   2.232   0.306   2.187 -0.0774 -1.2917 -0.1259
  233SOL     OW 1382   0.627   1.005   1.837  0.4968 -0.3322 -0.2224
  233SOL    HW1 1383   0.543   0.975   1.801  0.0072  0.4237  0.2629
  233SOL    HW2 1384   0.608   1.028   1.928  0.9921  0.7987 -0.3811
  234SOL     OW 1385   6.497   4.148   4.109 -0.5797 -0.7448 -0.3056
  234SOL    HW1 1386   6.403   4.162   4.122 -1.1397 -3.3891 -0.9816
  234SOL    HW2 1387   6.512   4.057   4.134  1.8317 -0.4124 -0.2413
  235SOL     OW 1388   5.608   2.034   5.506  0.5091  0.2026  0.1952
  235SOL    HW1 1389   5.558   2.008   5.429 -0.3336 -0.1022  0.8219
  235SOL    HW2 1390   5.690   1.986   5.499 -0.3825 -1.4373  0.5180
  236SOL     OW 1391   1.136   6.098   4.289  0.0238 -0.0528 -0.3299
  236SOL    HW1 1392   1.216   6.116   4.240  0.5057  3.0258  1.3934
  236SOL    HW2 1393   1.164   6.092   4.380 -1.4282 -1.4950  0.0807
  237SOL     OW 1394   5.231   0.152   5.445 -0.4103  0.0224 -0.1170
  237SOL    HW1 1395   5.137   0.173   5.452 -0.4266  0.4054 -1.2763
  237SOL    HW2 1396   5.274   0.218   5.499 -0.6523  1.5028 -1.6323
  238SOL     OW 1397   5.460   5.970   6.104 -0.7164  0.4817  0.5436
  238SOL    HW1 1398   5.475   6.055   6.063 -1.1702 -0.3963 -1.6028
  238SOL    HW2 1399   5.365   5.960   6.105 -0.6479 -0.4518 -0.2892
  239SOL     OW 1400   1.594   3.594   1.122  0.0040 -0.7400  0.1841
  239SOL    HW1 1401   1.609   3.619   1.213  0.6621 -0.1844 -0.0665
  239SOL    HW2 1402   1.501   3.614   1.107  0.2599  0.6721  0.2952
  240SOL     OW 1403   0.372   0.384   6.360 -0.0215  0.1679 -0.2732
  240SOL    HW1 1404   0.382   0.367   6.266  0.1115  1.0462 -0.4213
  240SOL    HW2 1405   0.289   0.430   6.368 -0.3800 -0.5309  0.1303
  241SOL     OW 1406   3.213   4.592   0.796  0.0724  0.1359 -0.4708
  241SOL    HW1 1407   3.191   4.673   0.751 -1.6450  0.5290  0.9702
  241SOL    HW2 1408   3.287   4.556   0.747 -0.0032  1.8767 -1.9355
  242SOL     OW 1409   0.014   5.951   4.024  0.1416 -0.2479 -0.0244
  242SOL    HW1 1410   0.061   5.908   4.095 -1.2342 -0.9221  0.5103
  242SOL    HW2 1411   0.072   5.941   3.948  2.5534  2.1738  1.3136
  243SOL     OW 1412   3.557   5.037   2.716  0.3627  0.8275 -0.0538
  243SOL    HW1 1413   3.603   4.982   2.653 -1.2767 -0.6111 -0.0686
  243SOL    HW2 1414   3.564   4.990   2.799 -0.8397  0.6793 -0.0135
  244SOL     OW 1415   1.904   5.654   4.496  0.1330 -0.4001  0.6112
  244SOL    HW1 1416   1.944   5.643   4.409 -0.2228 -1.9616  0.6123
  244SOL    HW2 1417   1.941   5.582   4.547  0.9361  0.9548  2.0081
  245SOL     OW 1418   2.710   1.821   5.642  0.0812 -0.3753  0.1624
  245SOL    HW1 1419   2.743   1.794   5.728  1.0303  1.4258  0.4037
  245SOL    HW2 1420   2.622   1.855   5.660  0.6109  0.8300  0.6146
  246SOL     OW 1421   5.346   4.113   0.811 -0.9053  0.2753 -0.9772
  246SOL    HW1 1422   5.355   4.022   0.837  0.5939  0.5612 -0.4084
  246SOL    HW2 1423   5.379   4.163   0.885 -1.1741  1.2710 -1.5019
  247SOL     OW 1424   4.328   1.317   1.347 -0.2927 -0.4309  0.1045
  247SOL    HW1 1425   4.385   1.246   1.320 -0.4833 -0.8241  0.7234
  247SOL    HW2 1426   4.248   1.306   1.296 -0.1724 -0.4318 -0.0809
  248SOL     OW 1427   0.526   5.070   3.760 -0.0838  0.4325 -0.2134
  248SOL    HW1 1428   0.569   4.988   3.783 -2.3586 -0.8739 -0.3350
  248SOL    HW2 1429   0.556   5.088   3.671 -0.9901 -1.3169 -0.9135
  249SOL     OW 1430   1.474   1.645   2.594 -0.0793  0.1046  0.3995
  249SOL    HW1 1431   1.455   1.739   2.588  0.1320  0.1678  0.7053
  249SOL    HW2 1432   1.505   1.632   2.684 -3.1283 -0.8329  1.4267
  250SOL     OW 1433   2.798   3.110   0.316 -0.3428  0.6540  0.4555
  250SOL    HW1 1434   2.720   3.067   0.353 -0.3787  0.0243 -0.3363
  250SOL    HW2 1435   2.825   3.053   0.244  2.4509 -0.5987  2.3294
  251SOL     OW 1436   2.663   2.805   2.202 -0.3167  0.2142  0.1784
  251SOL    HW1 1437   2.751   2.815   2.165 -0.8111  1.3779 -0.7644
  251SOL    HW2 1438   2.656   2.713   2.224  1.3714  0.2160  0.8670
  252SOL     OW 1439   0.393   1.788   2.250 -0.0703 -0.5806 -0.1586
  252SOL    HW1 1440   0.435   1.861   2.205 -0.8656 -0.1506 -0.2153
  252SOL    HW2 1441   0.333   1.829   2.312  1.4410 -1.1437  1.7647
  253SOL     OW 1442   1.217   6.276   0.315  0.0694  0.2995 -0.6266
  253SOL    HW1 1443   1.166   6.328   0.376  1.1577  1.2576 -0.5193
  253SOL    HW2 1444   1.252   6.339   0.252  1.6313 -0.2341 -0.3378
  254SOL     OW 1445   0.893   0.650   2.646  0.3342  0.4799 -0.2596
  254SOL    HW1 1446   0.813   0.614   2.609 -0.1523  2.1323 -0.8703
  254SOL    HW2 1447   0.961   0.585   2.624 -0.2602  0.5376 -2.5021
  255SOL     OW 1448   2.479   5.579   1.282  0.2730  0.1322  0.3051
  255SOL    HW1 1449   2.544   5.521   1.321 -0.2580 -0.3229  0.5262
  255SOL    HW2 1450   2.441   5.528   1.210  2.8998  1.7744 -2.4713
  256SOL     OW 1451   4.879   4.569   3.489 -0.1964 -0.6979  0.4490
  256SOL    HW1 1452   4.884   4.641   3.426  2.3590 -0.5746  0.6756
  256SOL    HW2 1453   4.790   4.535   3.481 -0.1907 -0.2218 -2.6898
  257SOL     OW 1454   2.761   3.573   0.545  0.0015 -0.0712 -0.1013
  257SOL    HW1 1455   2.803   3.505   0.599 -1.0339  0.5325  1.5512
  257SOL    HW2 1456   2.777   3.655   0.592 -1.5916  0.3772 -0.2637
  258SOL     OW 1457   2.113   5.350   0.776  0.0073  0.1368  0.2542
  258SOL    HW1 1458   2.130   5.305   0.859 -0.0938  0.1377  0.2765
  258SOL    HW2 1459   2.101   5.280   0.713  0.6628  0.1430  0.1185
  259SOL     OW 1460   5.960   1.585   6.067  0.0318  0.5117  0.2204
  259SOL    HW1 1461   5.924   1.673   6.076  0.2024  0.5735  0.3107
  259SOL    HW2 1462   5.981   1.577   5.974  4.0410  2.1886  0.7947
  260SOL     OW 1463   0.506   0.359   5.657 -0.1674 -0.5163  0.6288
  260SOL    HW1 1464   0.576   0.344   5.721 -1.3672  1.2769  2.4762
  260SOL    HW2 1465   0.526   0.444   5.619 -1.0680 -0.1987  0.8434
  261SOL     OW 1466   3.296   4.010   1.501 -0.3199 -0.1036 -0.0759
  261SOL    HW1 1467   3.256   3.984   1.583  0.6416  0.1532  0.4888
  261SOL    HW2 1468   3.300   3.929   1.449 -0.9348 -0.2623  0.1234
  262SOL     OW 1469   0.588   1.305   2.555  0.2331  0.4756 -0.7189
  262SOL    HW1 1470   0.601   1.361   2.631 -2.0189 -1.0444  0.9053
  262SOL    HW2 1471   0.546   1.362   2.490 -1.1593  0.9351  0.5433
  263SOL     OW 1472   0.675   4.330   3.637  0.2883 -0.5705 -0.1764
  263SOL    HW1 1473   0.657   4.259   3.699  0.6032 -1.4381 -1.0494
  263SOL    HW2 1474   0.595   4.338   3.585 -0.4436  1.0015  1.1043
  264SOL     OW 1475   4.927   5.058   1.678 -0.7150 -0.1183 -0.0318
  264SOL    HW1 1476   4.874   5.055   1.758  0.3549 -2.7787  0.6698
  264SOL    HW2 1477   5.018   5.059   1.709 -0.2337 -2.5505 -1.1214
  265SOL     OW 1478   4.378   3.024   2.370 -0.0609 -0.0808 -0.0444
  265SOL    HW1 1479   4.357   3.117   2.364  1.0503  0.2017  0.2144
  265SOL    HW2 1480   4.340   2.996   2.453  0.6683  0.4479  0.4785
  266SOL     OW 1481   4.264   4.254   1.080  0.5799  0.4800 -0.0712
  266SOL    HW1 1482   4.344   4.213   1.113  0.8174  0.6914 -0.3780
  266SOL    HW2 1483   4.249   4.212   0.995  1.8919  2.3217 -1.3037
  267SOL     OW 1484   6.368   4.963   4.217  0.4120  0.2672 -0.5945
  267SOL    HW1 1485   6.415   4.893   4.171  0.7268 -0.2892  0.5214
  267SOL    HW2 1486   6.432   5.034   4.224  1.3453 -0.6971  1.4146
  268SOL     OW 1487   6.296   1.100   0.934  0.5801 -0.4023 -0.1601
  268SOL    HW1 1488   6.299   1.192   0.906  0.1272  0.9612  3.6637
  268SOL    HW2 1489   6.205   1.087   0.962  0.8161 -1.7787  0.0034
  269SOL     OW 1490   5.692   5.143   3.907  0.2239 -0.2271  0.6234
  269SOL    HW1 1491   5.744   5.140   3.987  1.7936  0.9024 -0.2909
  269SOL    HW2 1492   5.660   5.232   3.902 -1.2504 -0.7275  0.8060
  270SOL     OW 1493   2.179   5.123   4.804 -0.0378  0.0786  0.2756
  270SOL    HW1 1494   2.109   5.096   4.746 -1.2232 -0.5450  1.9402
  270SOL    HW2 1495   2.170   5.218   4.809  0.5573  0.2367 -1.1008
  271SOL     OW 1496   0.640   2.122   3.032  0.6656 -0.1756  0.1368
  271SOL    HW1 1497   0.692   2.055   2.988 -0.9542 -1.2601 -0.2422
  271SOL    HW2 1498   0.560   2.128   2.979 -1.3924 -1.5346  2.8371
  272SOL     OW 1499   5.680   2.904   5.165 -0.6269  0.0540 -0.0322
  272SOL    HW1 1500   5.678   2.979   5.105  0.0297 -0.1343 -0.2952
  272SOL    HW2 1501   5.763   2.861   5.148 -0.8278 -0.5241  0.3872
  273SOL     OW 1502   1.724   3.860   3.844  0.2490  0.1045 -0.0592
  273SOL    HW1 1503   1.648   3.852   3.787 -0.3763  0.5560  0.6887
  273SOL    HW2 1504   1.799   3.854   3.785 -0.3330 -1.1350 -0.7205
  274SOL     OW 1505   4.006   0.226   1.470 -0.2689  0.1717  0.6063
  274SOL    HW1 1506   3.932   0.175   1.436 -0.9402  1.6286 -0.2467
  274SOL    HW2 1507   3.967   0.283   1.536 -0.4720  2.6135 -1.4516
  275SOL     OW 1508   6.439   4.020   4.844  0.2832 -0.2834 -0.0157
  275SOL    HW1 1509   6.443   4.010   4.749 -0.4327  1.4517 -0.2717
  275SOL    HW2 1510   6.527   4.000   4.874  0.3039 -1.7180 -0.9300
  276SOL     OW 1511   5.034   4.678   2.019  0.1182  0.4824  0.3183
  276SOL    HW1 1512   4.972   4.654   1.950  0.6006 -1.3626  0.4630
  276SOL    HW2 1513   5.083   4.752   1.983  2.1113 -1.9451 -2.5272
  277SOL     OW 1514   2.832   0.200   5.809 -0.3618 -0.2408  0.3156
  277SOL    HW1 1515   2.777   0.158   5.742  1.4095  1.6705 -2.5542
  277SOL    HW2 1516   2.792   0.286   5.822  0.3984  0.1244  0.2520
  278SOL     OW 1517   2.803   2.533   1.536  0.1004 -0.2498 -0.6761
  278SOL    HW1 1518   2.761   2.618   1.522 -0.3641 -0.0796  1.3975
  278SOL    HW2 1519   2.730   2.471   1.539  0.0430 -0.1593  1.4535
  279SOL     OW 1520   1.854   1.445   3.893  0.0469 -0.0941  0.0272
  279SOL    HW1 1521   1.901   1.436   3.975 -1.0802 -0.5965  0.6424
  279SOL    HW2 1522   1.896   1.382   3.834  0.7723  0.1739  0.2427
  280SOL     OW 1523   2.875   4.822   4.148  0.1656 -0.1503 -0.0700
  280SOL    HW1 1524   2.931   4.841   4.223 -1.4271 -0.5574  1.2741
  280SOL    HW2 1525   2.817   4.898   4.141  1.1247  0.4714 -1.7254
  281SOL     OW 1526   2.029   1.476   2.726 -0.0674  0.1959 -0.0943
  281SOL    HW1 1527   2.091   1.536   2.767 -0.6098  0.7733 -0.0963
  281SOL    HW2 1528   1.944   1.520   2.735 -0.7288 -1.2777  1.2890
  282SOL     OW 1529   6.513   4.281   1.994  0.3813 -0.0227  0.3552
  282SOL    HW1 1530   6.585   4.339   1.969 -0.1677  1.3113  1.7028
  282SOL    HW2 1531   6.457   4.279   1.916  0.9494  0.3777 -0.0832
  283SOL     OW 1532   0.062   0.191   3.909 -0.2720 -0.3188 -0.4033
  283SOL    HW1 1533   0.051   0.147   3.993 -0.5105 -0.1343 -0.3361
  283SOL    HW2 1534  -0.018   0.170   3.860 -0.5069  0.2404 -0.2743
  284SOL     OW 1535   0.863   5.046   4.627  0.1919  0.5155 -0.2826
  284SOL    HW1 1536   0.835   5.033   4.718  1.5234 -1.2201 -0.0557
  284SOL    HW2 1537   0.813   5.122   4.597  0.1557  1.5194  2.0712
  285SOL     OW 1538   2.879   2.600   3.488 -0.3376 -0.7587 -0.0413
  285SOL    HW1 1539   2.933   2.667   3.446 -0.0496 -0.5081  0.7088
  285SOL    HW2 1540   2.934   2.566   3.559 -1.3759 -0.0410  1.1635
  286SOL     OW 1541   0.644   6.003   0.309 -0.4582  0.6492  0.4691
  286SOL    HW1 1542   0.703   5.945   0.357  1.0374  1.0880 -0.7649
  286SOL    HW2 1543   0.557   5.977   0.337  0.2979 -0.0116  2.3764
  287SOL     OW 1544   1.871   1.975   2.569 -0.4730  0.1285  0.0951
  287SOL    HW1 1545   1.886   1.921   2.492  0.3759  0.5691 -0.0659
  287SOL    HW2 1546   1.778   1.967   2.587 -0.3787 -1.2967  0.0226
  288SOL     OW 1547   5.801   1.966   0.225 -0.1261  0.2157 -0.0966
  288SOL    HW1 1548   5.825   2.053   0.257 -0.2685  0.2560 -0.0995
  288SOL    HW2 1549   5.825   1.968   0.132 -0.2868  0.3118 -0.1380
  289SOL     OW 1550   6.148   2.570   5.855  0.8990 -0.0922  0.3948
  289SOL    HW1 1551   6.073   2.603   5.806  0.1266 -1.1556  0.8185
  289SOL    HW2 1552   6.224   2.608   5.811  0.0931  1.7394  0.5142
  290SOL     OW 1553   2.780   5.571   0.216 -0.1837  0.5942  0.1589
  290SOL    HW1 1554   2.759   5.650   0.265 -1.0650  1.1292 -1.0320
  290SOL    HW2 1555   2.758   5.593   0.125  0.7728 -0.5848 -0.3798
  291SOL     OW 1556   0.458   0.013   1.252 -0.2465  0.1702  0.3761
  291SOL    HW1 1557   0.444   0.093   1.302  1.4891  0.3915  0.5619
  291SOL    HW2 1558   0.459  -0.056   1.318  0.2878  0.2447  0.4454
  292SOL     OW 1559   1.794   0.241   6.145 -0.7477  0.0489  0.1231
  292SOL    HW1 1560   1.770   0.207   6.059  0.4455 -0.4701 -0.0088
  292SOL    HW2 1561   1.847   0.173   6.186  1.2529  1.4726  0.0575
  293SOL     OW 1562   2.944   2.380   4.993  0.1279 -0.2397 -0.3088
  293SOL    HW1 1563   2.892   2.459   4.977 -0.9121 -1.0306 -0.9769
  293SOL    HW2 1564   3.035   2.407   4.980 -0.2384  0.7797 -0.7857
  294SOL     OW 1565   3.894   4.176   2.710  0.1117  0.4140  0.6529
  294SOL    HW1 1566   3.969   4.232   2.691 -0.0763  0.1578 -0.9904
  294SOL    HW2 1567   3.919   4.090   2.674 -0.2672 -0.1338  1.6678
  295SOL     OW 1568   1.198   1.255   3.181 -0.3825 -0.3285 -0.1798
  295SOL    HW1 1569   1.269   1.208   3.224 -0.1892  1.2306  1.3072
  295SOL    HW2 1570   1.122   1.198   3.191 -0.0947 -0.4841  1.2859
  296SOL     OW 1571   6.422   2.347   0.404 -0.2554 -0.0489 -0.7583
  296SOL    HW1 1572   6.434   2.424   0.459 -1.4894  0.3074 -0.9724
  296SOL    HW2 1573   6.446   2.273   0.460 -2.4739  0.2095  0.6443
  297SOL     OW 1574   4.502   0.105   4.706  0.0844 -0.0580  0.2859
  297SOL    HW1 1575   4.502   0.087   4.612  0.5477  0.5967  0.1485
  297SOL    HW2 1576   4.462   0.028   4.746  0.3750 -0.5723 -0.4024
  298SOL     OW 1577   0.510   0.188   0.874  0.1013  0.5037 -0.2535
  298SOL    HW1 1578   0.443   0.136   0.919 -0.0846  1.3869  0.5126
  298SOL    HW2 1579   0.575   0.207   0.942  0.5686  0.5984 -0.7216
  299SOL     OW 1580   5.241   0.595   6.020  0.1290  0.1077 -0.1452
  299SOL    HW1 1581   5.169   0.546   5.981  1.0049 -0.8755 -0.5681
  299SOL    HW2 1582   5.211   0.613   6.109 -0.8999  0.2846 -0.5104
  300SOL     OW 1583   5.081   4.384   5.816  0.3217  0.1963 -0.4230
  300SOL    HW1 1584   5.005   4.332   5.841  0.7673 -0.3786 -0.2424
  300SOL    HW2 1585   5.080   4.382   5.720 -0.1374  0.5550 -0.4263
  301SOL     OW 1586   4.890   5.534   3.765  0.5057 -0.3513 -1.1937
  301SOL    HW1 1587   4.973   5.496   3.794 -0.1039 -0.8392 -0.0470
  301SOL    HW2 1588   4.830   5.520   3.837 -0.5326  0.2002 -1.9187
  302SOL     OW 1589   3.131   5.048   4.645  0.3327 -0.4504  0.3910
  302SOL    HW1 1590   3.173   5.060   4.731  0.0382 -1.5972  0.7161
  302SOL    HW2 1591   3.038   5.059   4.662  0.2394 -1.0657  0.3044
  303SOL     OW 1592   4.923   1.974   2.697  0.1972 -0.4473  0.4266
  303SOL    HW1 1593   4.917   2.012   2.609 -0.6266 -0.0524  0.6392
  303SOL    HW2 1594   4.921   1.880   2.682 -0.2521 -0.3808  0.0246
  304SOL     OW 1595   4.561   4.655   3.018 -0.3730 -0.3351  0.2306
  304SOL    HW1 1596   4.653   4.681   3.022 -0.4241 -0.3236  1.8729
  304SOL    HW2 1597   4.533   4.680   2.929  1.6437 -1.9555 -0.9486
  305SOL     OW 1598   2.639   4.350   3.427  0.1985 -0.1500 -0.2619
  305SOL    HW1 1599   2.613   4.436   3.393 -2.4304 -0.5582  0.4784
  305SOL    HW2 1600   2.606   4.288   3.361 -0.1786 -0.6901  0.4274
  306SOL     OW 1601   1.541   5.574   0.143 -0.7548  0.0647  0.7553
  306SOL    HW1 1602   1.466   5.515   0.154 -1.4927  0.9558  0.6527
  306SOL    HW2 1603   1.614   5.517   0.122 -0.7273 -1.1502  3.6811
  307SOL     OW 1604   1.057   4.721   2.905 -0.1779  0.0300  0.3928
  307SOL    HW1 1605   1.042   4.796   2.962  0.5861 -0.8410  1.7821
  307SOL    HW2 1606   1.074   4.759   2.819 -1.3113  1.3719  0.7223
  308SOL     OW 1607   2.204   1.349   5.707 -0.0383  0.0339 -0.0290
  308SOL    HW1 1608   2.217   1.289   5.633  0.9063  0.3232 -0.1123
  308SOL    HW2 1609   2.125   1.398   5.684 -0.5692 -0.8610 -0.1663
  309SOL     OW 1610   3.950   0.295   3.906 -0.6046 -0.2012  0.5689
  309SOL    HW1 1611   4.041   0.324   3.899 -0.6934 -0.0155  0.1509
  309SOL    HW2 1612   3.934   0.248   3.824 -0.9797  0.0406  0.5033
  310SOL     OW 1613   5.226   2.831   3.612 -0.4413 -0.3054  0.4556
  310SOL    HW1 1614   5.312   2.842   3.652 -0.2244  1.2153 -0.3486
  310SOL    HW2 1615   5.235   2.869   3.524 -1.4334 -1.7642 -0.3322
  311SOL     OW 1616   2.183   6.173   0.582  0.0088  0.2475  0.6179
  311SOL    HW1 1617   2.131   6.229   0.524  1.4835  1.9602  0.8761
  311SOL    HW2 1618   2.231   6.116   0.522 -0.4553  0.1812  0.2936
  312SOL     OW 1619   0.515   2.427   1.052 -0.1806  0.1428 -0.1703
  312SOL    HW1 1620   0.507   2.379   1.134  1.2064  0.5809  0.2454
  312SOL    HW2 1621   0.545   2.514   1.077  1.4505 -0.0780 -1.1964
  313SOL     OW 1622   2.731   4.314   4.926  0.7537  0.1859  0.0144
  313SOL    HW1 1623   2.790   4.382   4.894  2.3784 -1.1871 -0.0711
  313SOL    HW2 1624   2.688   4.280   4.847 -1.4375  2.2149  0.2144
  314SOL     OW 1625   0.127   3.231   4.512  0.0328 -0.4450 -0.5897
  314SOL    HW1 1626   0.205   3.277   4.480 -0.2984 -0.3026 -1.2136
  314SOL    HW2 1627   0.133   3.236   4.607  1.7007 -1.9708 -0.5601
  315SOL     OW 1628   0.278   1.030   0.789 -0.2415 -0.3878  0.2276
  315SOL    HW1 1629   0.190   1.057   0.762 -0.4920  0.1347  1.5119
  315SOL    HW2 1630   0.265   0.952   0.842  0.1514 -0.7722 -0.2286
  316SOL     OW 1631   4.289   5.306   2.947  0.1042  0.1212  0.1177
  316SOL    HW1 1632   4.273   5.212   2.961  0.9209 -0.1507 -0.6410
  316SOL    HW2 1633   4.380   5.318   2.976 -0.4354  0.9813  1.5303
  317SOL     OW 1634   5.224   0.997   6.232  0.0810  0.3655 -0.5655
  317SOL    HW1 1635   5.171   1.050   6.292  0.0161 -0.9815  0.6115
  317SOL    HW2 1636   5.162   0.968   6.165 -0.2479  0.4192 -0.2900
  318SOL     OW 1637   2.701   6.184   5.764 -0.0696 -0.0019  0.1455
  318SOL    HW1 1638   2.734   6.171   5.852 -0.6662 -0.6420  0.2856
  318SOL    HW2 1639   2.644   6.261   5.771  0.4233  0.3680  0.1613
  319SOL     OW 1640   0.613   4.706   4.529 -0.5885 -0.1296 -0.3349
  319SOL    HW1 1641   0.658   4.752   4.458 -0.9041  1.4555  0.4402
  319SOL    HW2 1642   0.672   4.635   4.553 -0.5405 -0.7846 -2.2491
  320SOL     OW 1643   0.585   5.905   1.359 -0.7686 -0.4633  0.5249
  320SOL    HW1 1644   0.518   5.840   1.379 -1.4924  0.2440  0.4767
  320SOL    HW2 1645   0.627   5.922   1.443  0.2074 -1.8223  0.3261
  321SOL     OW 1646   2.268   4.079   4.616 -0.2140  0.4368 -0.0224
  321SOL    HW1 1647   2.188   4.132   4.619 -0.3958  0.1639 -0.0282
  321SOL    HW2 1648   2.280   4.060   4.523  0.1918  0.9775 -0.0886
  322SOL     OW 1649   0.725   0.850   5.034  0.0005 -0.0099 -0.1273
  322SOL    HW1 1650   0.667   0.911   4.988  0.3466  0.6028  0.2375
  322SOL    HW2 1651   0.811   0.866   4.997  0.5899  1.5755  1.7223
  323SOL     OW 1652   2.414   4.066   2.406 -0.0855  0.3137 -0.6188
  323SOL    HW1 1653   2.397   4.011   2.330  0.3962 -0.7009 -0.0170
  323SOL    HW2 1654   2.495   4.032   2.443 -0.9476 -0.0534  1.0614
  324SOL     OW 1655   1.527   2.312   2.919 -0.2765  0.3826  0.1225
  324SOL    HW1 1656   1.453   2.297   2.978  0.3192  3.1516  1.7134
  324SOL    HW2 1657   1.603   2.320   2.976  0.6785  1.0506 -1.1878
  325SOL     OW 1658   6.429   4.608   2.211 -0.3745  0.4415 -0.3070
  325SOL    HW1 1659   6.396   4.591   2.300  1.8877  0.6370  0.6220
  325SOL    HW2 1660   6.371   4.557   2.155 -1.8091  0.2190  1.2685
  326SOL     OW 1661   5.601   4.152   0.479 -0.3099 -0.8379  0.5031
  326SOL    HW1 1662   5.558   4.221   0.530 -0.6003 -0.4242 -0.2868
  326SOL    HW2 1663   5.624   4.086   0.544  0.5640  0.2740  1.3920
  327SOL     OW 1664   4.129   6.303   4.426 -0.2334 -0.0534 -0.3402
  327SOL    HW1 1665   4.102   6.256   4.347  0.8149 -0.7317 -0.3145
  327SOL    HW2 1666   4.049   6.345   4.457 -0.9351 -0.8069 -1.0602
  328SOL     OW 1667   2.853   1.614   4.981  0.3636  0.1601 -0.1340
  328SOL    HW1 1668   2.935   1.569   5.005  0.9796  1.2720 -0.0574
  328SOL    HW2 1669   2.851   1.690   5.040 -0.6726  0.2073 -0.2264
  329SOL     OW 1670   5.748   1.347   6.103 -0.3244 -0.0400 -0.1548
  329SOL    HW1 1671   5.806   1.414   6.066 -1.6435  1.5205  0.4765
  329SOL    HW2 1672   5.749   1.365   6.197 -1.4257 -0.3187 -0.0819
  330SOL     OW 1673   5.147   2.770   1.114 -0.4276 -0.1250 -0.1740
  330SOL    HW1 1674   5.171   2.706   1.047  0.6336  0.7549 -0.6587
  330SOL    HW2 1675   5.110   2.717   1.185 -2.5202 -1.0352 -1.8003
  331SOL     OW 1676   3.005   1.816   3.481  0.6831  0.0706  0.9559
  331SOL    HW1 1677   2.935   1.858   3.432 -0.2493  0.1676  2.2967
  331SOL    HW2 1678   3.043   1.752   3.421  0.7979  1.4246 -0.4599
  332SOL     OW 1679   4.933   6.130   2.637  0.0538  0.2061  0.1360
  332SOL    HW1 1680   4.999   6.084   2.689 -0.1813 -0.9614 -0.5459
  332SOL    HW2 1681   4.858   6.069   2.636 -0.1006  0.4066 -1.1820
  333SOL     OW 1682   6.018   1.075   0.242 -0.1406  0.3955  0.5195
  333SOL    HW1 1683   5.978   1.158   0.218  1.6283  1.0309 -0.3461
  333SOL    HW2 1684   6.099   1.071   0.192 -1.0861 -2.7884 -1.0771
  334SOL     OW 1685   6.109   3.470   4.798  0.0649 -0.4444 -0.1955
  334SOL    HW1 1686   6.193   3.511   4.776 -0.4199  0.4295 -0.4586
  334SOL    HW2 1687   6.085   3.421   4.719 -0.6756  1.0123 -0.9009
  335SOL     OW 1688   5.943   5.133   5.201  0.0495  0.7873  0.6338
  335SOL    HW1 1689   5.867   5.191   5.210 -0.5224  0.5857 -1.9926
  335SOL    HW2 1690   6.018   5.187   5.227 -0.8609  1.2807  2.3901
  336SOL     OW 1691   2.070   1.211   4.601  0.0070  0.1517 -0.2341
  336SOL    HW1 1692   2.074   1.237   4.693 -1.0129 -0.2811 -0.0592
  336SOL    HW2 1693   2.026   1.284   4.558 -2.0835 -0.8510  0.1149
  337SOL     OW 1694   5.320   1.099   5.560  0.2732  0.3567 -0.3917
  337SOL    HW1 1695   5.415   1.113   5.560  0.3008  0.1937  0.0576
  337SOL    HW2 1696   5.282   1.186   5.563  0.3643  0.5608 -2.7978
  338SOL     OW 1697   2.515   4.376   5.093  0.3104  0.8159  0.4691
  338SOL    HW1 1698   2.526   4.322   5.172 -2.7811  0.0777  0.5305
  338SOL    HW2 1699   2.568   4.333   5.027  0.5052 -0.3876  1.3694
  339SOL     OW 1700   5.590   2.116   0.927 -0.0427  0.2376 -0.0316
  339SOL    HW1 1701   5.569   2.209   0.927  0.1783  0.3116 -1.5280
  339SOL    HW2 1702   5.505   2.073   0.915  0.0354  0.3278 -0.9814
  340SOL     OW 1703   4.372   1.738   6.077  0.5758 -0.3057  0.5346
  340SOL    HW1 1704   4.321   1.673   6.028  0.1348  0.1926  0.3310
  340SOL    HW2 1705   4.430   1.777   6.012  1.5220 -1.1425  0.8374
  341SOL     OW 1706   2.952   3.214   4.084  0.0004 -0.1944  0.0439
  341SOL    HW1 1707   3.039   3.222   4.121 -0.2926  1.3190  0.4987
  341SOL    HW2 1708   2.900   3.281   4.130 -1.6921 -1.7848  0.5951
  342SOL     OW 1709   0.484   2.417   0.792 -0.5860  0.3129  0.0780
  342SOL    HW1 1710   0.434   2.342   0.759 -0.1455  0.2607 -0.4869
  342SOL    HW2 1711   0.474   2.412   0.887  1.0465 -1.6628  0.2378
  343SOL     OW 1712   6.149   0.514   2.723 -0.0629  0.3334  0.4867
  343SOL    HW1 1713   6.142   0.543   2.632  0.1568 -0.2825  0.2652
  343SOL    HW2 1714   6.216   0.572   2.761  1.5800 -0.8857 -0.3966
  344SOL     OW 1715   2.722   3.216   4.417 -0.5089  0.2643  0.1543
  344SOL    HW1 1716   2.642   3.266   4.438 -0.9505 -0.3366 -0.0571
  344SOL    HW2 1717   2.689   3.135   4.378  0.2101 -0.0428  0.1831
  345SOL     OW 1718   2.505   6.206   3.933  0.1922 -0.1451  0.1896
  345SOL    HW1 1719   2.566   6.265   3.888  0.2290 -1.4589 -1.5789
  345SOL    HW2 1720   2.546   6.120   3.927  0.5164 -0.3124  3.4218
  346SOL     OW 1721   3.714   1.672   2.764  0.1443  0.0336  0.1212
  346SOL    HW1 1722   3.777   1.735   2.800  1.0223  0.0070 -1.2991
  346SOL    HW2 1723   3.743   1.587   2.796 -0.7412  0.2371  1.6124
  347SOL     OW 1724   2.030   4.705   5.811 -0.3128  0.7211 -0.1401
  347SOL    HW1 1725   2.031   4.658   5.728  1.3241 -0.8261  0.6955
  347SOL    HW2 1726   1.960   4.770   5.801 -1.1645 -0.4294 -2.1449
  348SOL     OW 1727   0.734   1.034   3.275  0.1784  0.4583 -0.0496
  348SOL    HW1 1728   0.712   0.976   3.202 -0.5871  0.3452  0.2588
  348SOL    HW2 1729   0.649   1.054   3.315  0.3301  2.4397 -0.6344
  349SOL     OW 1730   2.248   3.191   6.215  0.1715  0.0812 -0.3031
  349SOL    HW1 1731   2.306   3.146   6.276  0.6100 -0.8930 -1.3946
  349SOL    HW2 1732   2.297   3.269   6.189 -0.2178  0.7521  0.9270
  350SOL     OW 1733   6.226   0.363   0.659  0.0540  0.4987  0.5504
  350SOL    HW1 1734   6.304   0.417   0.652  0.1427  0.2122 -0.7699
  350SOL    HW2 1735   6.214   0.352   0.754  1.7799  0.2820  0.7821
  351SOL     OW 1736   1.754   5.947   0.464 -0.1532  0.2514  0.2901
  351SOL    HW1 1737   1.748   5.864   0.416 -1.8134 -0.1764  1.1512
  351SOL    HW2 1738   1.663   5.973   0.479  0.3030  0.8642  2.3442
  352SOL     OW 1739   5.577   0.738   4.060  0.6156  0.2479  0.0865
  352SOL    HW1 1740   5.487   0.717   4.036  1.0100 -2.2743  0.4929
  352SOL    HW2 1741   5.628   0.720   3.981  1.1073 -1.5193  0.7634
  353SOL     OW 1742   0.412   1.763   4.533 -0.1163 -0.4192  0.0864
  353SOL    HW1 1743   0.456   1.847   4.519 -2.6316  1.3013  1.6616
  353SOL    HW2 1744   0.418   1.748   4.627 -0.4660 -1.5705 -0.0624
  354SOL     OW 1745   4.086   5.148   5.260  0.2932  0.4116 -0.7022
  354SOL    HW1 1746   3.993   5.167   5.248 -0.0607 -1.8003 -1.9262
  354SOL    HW2 1747   4.124   5.232   5.286 -2.5839  0.7202  3.6819
  355SOL     OW 1748   0.348   1.295   5.571  0.1294 -0.2169 -0.3791
  355SOL    HW1 1749   0.269   1.303   5.625  0.0008 -0.6744 -0.4933
  355SOL    HW2 1750   0.336   1.213   5.522  0.5137 -0.1099 -0.6614
  356SOL     OW 1751   1.361   2.135   0.126 -0.2506 -0.3769  0.5361
  356SOL    HW1 1752   1.416   2.167   0.055 -1.2528  0.2899  0.0479
  356SOL    HW2 1753   1.320   2.214   0.162  0.1847 -0.7044  1.8259
  357SOL     OW 1754   4.197   6.284   3.857  0.1345 -0.0157  0.1815
  357SOL    HW1 1755   4.292   6.274   3.851 -0.0309 -1.6747  0.0221
  357SOL    HW2 1756   4.185   6.373   3.890  1.7353  0.2699  0.0797
  358SOL     OW 1757   0.404   5.231   1.150  0.6587  0.0375  0.5279
  358SOL    HW1 1758   0.327   5.180   1.174  1.6839 -1.3469  1.0034
  358SOL    HW2 1759   0.414   5.219   1.056  0.9029 -0.6623  0.6423
  359SOL     OW 1760   2.333   3.666   2.366  0.0999 -0.8079  0.1938
  359SOL    HW1 1761   2.359   3.606   2.296  0.0646  1.1472 -1.5930
  359SOL    HW2 1762   2.293   3.740   2.320 -1.7221 -0.3038  2.4258
  360SOL     OW 1763   0.752   2.453   6.399 -0.0323  0.0810  0.3107
  360SOL    HW1 1764   0.659   2.474   6.387 -0.3939 -1.2317  0.6703
  360SOL    HW2 1765   0.798   2.519   6.348 -1.1341  1.1867  0.7050
  361SOL     OW 1766   3.916   1.075   6.434  0.1258 -0.0965  0.2448
  361SOL    HW1 1767   4.001   1.056   6.473 -0.2948 -0.1357  1.1814
  361SOL    HW2 1768   3.866   0.994   6.447  0.3915 -0.5781 -1.5807
  362SOL     OW 1769   4.190   3.168   0.328  0.8995  0.1034  0.0211
  362SOL    HW1 1770   4.100   3.147   0.302  0.8762 -1.4607  1.2309
  362SOL    HW2 1771   4.188   3.167   0.423  2.4927 -1.4761  0.0787
  363SOL     OW 1772   2.952   0.603   5.614 -0.4662 -0.2350 -0.3596
  363SOL    HW1 1773   2.865   0.574   5.643 -0.1148 -0.7009  0.2525
  363SOL    HW2 1774   2.993   0.525   5.578 -0.1008 -0.1405 -0.1515
  364SOL     OW 1775   4.543   3.328   5.861 -0.4989  0.0614 -0.1624
  364SOL    HW1 1776   4.492   3.248   5.865 -0.5162 -0.0712 -1.9907
  364SOL    HW2 1777   4.587   3.324   5.776  1.0349  1.0836  0.5226
  365SOL     OW 1778   2.399   6.469   1.825 -0.1585  0.5083  0.1280
  365SOL    HW1 1779   2.358   6.522   1.756 -2.9435  3.4371  3.6182
  365SOL    HW2 1780   2.383   6.378   1.798 -0.7154  1.4713 -3.1982
  366SOL     OW 1781   5.962   1.330   2.632 -0.2412 -0.0628  0.2986
  366SOL    HW1 1782   6.002   1.412   2.664 -0.4488 -0.1762  0.8561
  366SOL    HW2 1783   5.883   1.320   2.684 -0.7137 -0.1309 -0.4280
  367SOL     OW 1784   1.977   3.171   6.310  0.1927  0.2302  0.4965
  367SOL    HW1 1785   1.927   3.185   6.230 -0.3016 -1.1536  0.5463
  367SOL    HW2 1786   2.069   3.172   6.282  0.0023 -1.1918 -0.2645
  368SOL     OW 1787   0.761   4.518   4.272 -0.0366 -0.0132  0.2261
  368SOL    HW1 1788   0.710   4.474   4.204  0.6517  0.7468 -0.8040
  368SOL    HW2 1789   0.720   4.489   4.354 -1.6399 -0.0287 -0.5256
  369SOL     OW 1790   3.044   5.151   0.396  0.3506  0.5542  0.2998
  369SOL    HW1 1791   3.102   5.208   0.448  0.8806  0.2909 -0.0037
  369SOL    HW2 1792   3.007   5.209   0.329 -1.1142  1.1413  1.5403
  370SOL     OW 1793   2.574   6.039   2.087  0.3843  0.0905 -0.1222
  370SOL    HW1 1794   2.582   6.078   2.173  0.9713 -1.3612  0.5250
  370SOL    HW2 1795   2.494   5.987   2.091 -0.5106  1.3349 -1.0418
  371SOL     OW 1796   4.760   3.894   3.242  0.4917 -0.5759 -0.0620
  371SOL    HW1 1797   4.804   3.978   3.254 -1.6076  0.8588 -1.6892
  371SOL    HW2 1798   4.697   3.888   3.314  2.2507 -2.0115  1.4879
  372SOL     OW 1799   0.967   2.722   3.292 -0.6917 -0.1602 -0.0583
  372SOL    HW1 1800   0.933   2.684   3.211 -3.1910 -0.6594  1.1219
  372SOL    HW2 1801   0.909   2.687   3.361  2.7133 -1.7016  2.3231
  373SOL     OW 1802   5.268   1.269   5.856 -0.1391 -0.0758 -0.3734
  373SOL    HW1 1803   5.188   1.292   5.902  0.4790  0.7624  0.3215
  373SOL    HW2 1804   5.263   1.319   5.774  0.5726  1.6082  0.5496
  374SOL     OW 1805   3.038   6.511   0.122 -0.0306  0.4632  0.6654
  374SOL    HW1 1806   3.056   6.567   0.046  0.2777 -0.3021  0.1515
  374SOL    HW2 1807   3.095   6.544   0.191  2.2019 -0.8395 -0.4204
  375SOL     OW 1808   1.196   0.504   5.667  0.0673 -0.1899 -0.1299
  375SOL    HW1 1809   1.255   0.575   5.690 -2.1274  1.9385 -0.6793
  375SOL    HW2 1810   1.125   0.509   5.731 -0.8215 -0.9963 -1.0099
  376SOL     OW 1811   2.864   2.801   6.416 -0.0461  0.1149  0.3593
  376SOL    HW1 1812   2.860   2.719   6.366  0.6860  1.2013 -1.5569
  376SOL    HW2 1813   2.936   2.850   6.376 -1.3584  2.2982  0.5213
  377SOL     OW 1814   0.385   5.612   0.201  0.2169  0.0663  0.1341
  377SOL    HW1 1815   0.371   5.706   0.209 -0.1351 -0.0523  0.9746
  377SOL    HW2 1816   0.298   5.577   0.179  0.6873  0.1163 -2.1367
  378SOL     OW 1817   4.647   5.433   0.165  0.2557 -0.4635  0.0997
  378SOL    HW1 1818   4.644   5.446   0.260  2.1463 -0.9514  0.2773
  378SOL    HW2 1819   4.712   5.363   0.153  0.4121 -0.0728 -1.5817
  379SOL     OW 1820   5.279   4.135   6.117  0.8684 -0.1056  0.7986
  379SOL    HW1 1821   5.297   4.054   6.069 -2.3922 -1.1310  1.0623
  379SOL    HW2 1822   5.346   4.137   6.187  1.5159 -2.1378  0.3098
  380SOL     OW 1823   6.360   5.274   3.130  0.5832  0.0955 -0.2763
  380SOL    HW1 1824   6.393   5.216   3.061 -1.2064  0.1592 -1.2594
  380SOL    HW2 1825   6.281   5.230   3.162 -1.6561  2.5188 -2.0197
  381SOL     OW 1826   1.059   4.304   3.818 -0.5179 -0.0082 -0.0591
  381SOL    HW1 1827   1.124   4.297   3.888 -0.9250 -1.4856  0.2004
  381SOL    HW2 1828   1.037   4.398   3.815  1.2664  0.4496  0.1432
  382SOL     OW 1829   1.838   6.138   0.054  0.1835 -0.1851 -0.4131
  382SOL    HW1 1830   1.855   6.165  -0.036 -0.3398 -0.2040 -0.5238
  382SOL    HW2 1831   1.766   6.195   0.083 -0.0822 -0.6085 -0.2247
  383SOL     OW 1832   2.725   5.876   1.035 -0.0339  0.4080 -0.4007
  383SOL    HW1 1833   2.789   5.805   1.045  0.4204  0.9281  0.5679
  383SOL    HW2 1834   2.652   5.851   1.091  1.0790  1.7153  1.8175
  384SOL     OW 1835   2.655   2.822   0.200 -0.5619  0.1893  0.0163
  384SOL    HW1 1836   2.645   2.732   0.231 -0.2058  0.2204  0.2277
  384SOL    HW2 1837   2.603   2.825   0.120  0.1520 -0.4641 -0.4932
  385SOL     OW 1838   0.423   4.954   4.155 -0.1414  0.2085  0.2075
  385SOL    HW1 1839   0.355   4.919   4.213 -0.9077 -0.0448 -0.8128
  385SOL    HW2 1840   0.409   4.908   4.072  1.2536  0.1928 -0.0408
  386SOL     OW 1841   6.429   0.581   1.147  0.2430  0.2900  0.1920
  386SOL    HW1 1842   6.403   0.660   1.100  1.1520  0.5505  0.0975
  386SOL    HW2 1843   6.356   0.562   1.206 -0.8144  0.0993 -1.1358
  387SOL     OW 1844   3.731   1.987   1.796  0.0088 -0.0738  0.3007
  387SOL    HW1 1845   3.757   2.076   1.775  1.2424  0.1516  2.3850
  387SOL    HW2 1846   3.791   1.932   1.746 -0.6327  0.2601 -0.8476
  388SOL     OW 1847   5.678   0.156   2.897  0.0506 -0.5923  0.4495
  388SOL    HW1 1848   5.688   0.200   2.812 -3.2192  1.2514  0.8603
  388SOL    HW2 1849   5.662   0.064   2.874 -0.6119 -0.1679 -0.9613
  389SOL     OW 1850   6.067   1.387   0.402  0.4728 -1.1126  0.0163
  389SOL    HW1 1851   6.106   1.306   0.435 -0.6324 -1.5379  0.3499
  389SOL    HW2 1852   6.011   1.359   0.329 -2.6889 -1.2631  2.2572
  390SOL     OW 1853   1.183   3.749   5.722  0.0094  0.3424 -0.1062
  390SOL    HW1 1854   1.180   3.669   5.669 -0.7750  1.0125 -1.1131
  390SOL    HW2 1855   1.094   3.759   5.755  0.2621  0.4606  0.5410
  391SOL     OW 1856   4.236   0.133   5.843 -0.5621 -0.1765  0.1246
  391SOL    HW1 1857   4.149   0.127   5.882  0.5119  0.0853  2.8155
  391SOL    HW2 1858   4.230   0.081   5.763 -2.9017 -1.0128  0.7503
  392SOL     OW 1859   3.607   5.785   5.684  0.3996  0.2845  0.5678
  392SOL    HW1 1860   3.637   5.726   5.615  1.2168 -0.3417  1.4318
  392SOL    HW2 1861   3.571   5.727   5.751 -2.4160  0.9777 -0.2029
  393SOL     OW 1862   2.087   5.302   5.835  0.2692 -0.4444 -0.3310
  393SOL    HW1 1863   2.038   5.237   5.886  0.0951 -0.4942 -0.5600
  393SOL    HW2 1864   2.176   5.267   5.833  0.7375  0.4987  1.5574
  394SOL     OW 1865   3.987   3.497   5.168  0.3525 -0.0345  0.3364
  394SOL    HW1 1866   4.035   3.509   5.250  0.5993  3.0170 -0.1443
  394SOL    HW2 1867   3.904   3.543   5.182 -0.2163 -0.7189 -0.6521
  395SOL     OW 1868   5.624   3.927   0.943  0.1303 -0.7522  0.1728
  395SOL    HW1 1869   5.633   4.009   0.991 -0.3380 -0.0832 -0.8512
  395SOL    HW2 1870   5.703   3.878   0.965  0.0986 -0.3173  1.3191
  396SOL     OW 1871   3.132   5.739   3.471  0.2612 -0.3769  0.1195
  396SOL    HW1 1872   3.190   5.810   3.444 -0.5909 -0.4577 -2.1029
  396SOL    HW2 1873   3.044   5.776   3.462 -0.1854 -1.5869 -0.8071
  397SOL     OW 1874   0.867   4.638   6.115 -0.5190 -0.1115 -0.2125
  397SOL    HW1 1875   0.883   4.732   6.106  1.6410 -0.5993 -2.2936
  397SOL    HW2 1876   0.804   4.631   6.188 -0.8642  2.9122 -0.1170
  398SOL     OW 1877   0.727   4.843   3.144  0.7644 -0.4020 -0.4049
  398SOL    HW1 1878   0.641   4.852   3.185  0.2185  0.3254 -1.6435
  398SOL    HW2 1879   0.708   4.841   3.050  2.0530 -0.9630 -0.6686
  399SOL     OW 1880   3.216   2.196   5.950 -0.6694  0.0028 -0.7101
  399SOL    HW1 1881   3.123   2.214   5.941 -0.5023  0.5916 -1.3450
  399SOL    HW2 1882   3.259   2.272   5.911  0.0771 -0.2540 -0.4036
  400SOL     OW 1883   1.101   3.686   2.720 -0.0128 -0.1142  0.1314
  400SOL    HW1 1884   1.014   3.706   2.754  0.6470  1.6936  0.8766
  400SOL    HW2 1885   1.128   3.766   2.675  0.5233 -1.3010 -1.7572
  401SOL     OW 1886   4.104   3.221   4.683 -0.1859 -0.3439  0.4006
  401SOL    HW1 1887   4.147   3.307   4.685  2.4657 -1.5950  1.3590
  401SOL    HW2 1888   4.176   3.158   4.676 -2.0481 -2.5262 -0.4035
  402SOL     OW 1889   4.983   3.716   1.137  0.4317  0.3040 -0.5136
  402SOL    HW1 1890   5.002   3.622   1.134 -0.0476  0.1671  0.3562
  402SOL    HW2 1891   4.989   3.738   1.230 -2.6690  0.4293 -0.2243
  403SOL     OW 1892   0.192   5.274   0.280 -0.0716 -0.2410 -0.0620
  403SOL    HW1 1893   0.171   5.363   0.309 -0.8828  0.2175 -1.8870
  403SOL    HW2 1894   0.233   5.233   0.356 -0.9825  1.2280  1.2913
  404SOL     OW 1895   3.375   1.336   1.974  0.2102  0.1102 -0.2478
  404SOL    HW1 1896   3.437   1.274   1.935 -2.7124 -1.6627 -2.4774
  404SOL    HW2 1897   3.358   1.400   1.906 -0.4403  0.5306  0.2923
  405SOL     OW 1898   4.840   2.923   3.837 -0.4377 -0.2288  0.1511
  405SOL    HW1 1899   4.770   2.911   3.772  0.9045 -0.5192 -1.3164
  405SOL    HW2 1900   4.801   2.979   3.904 -2.6979 -1.9975  0.4336
  406SOL     OW 1901   6.402   0.612   5.797  0.2085 -0.7228  0.4002
  406SOL    HW1 1902   6.331   0.582   5.854  0.2772  0.0985  0.9285
  406SOL    HW2 1903   6.467   0.649   5.856  0.2148  0.2862 -0.2012
  407SOL     OW 1904   5.317   4.120   6.437  0.0791  0.0026  0.2596
  407SOL    HW1 1905   5.326   4.154   6.526  0.6614 -1.3433  0.7549
  407SOL    HW2 1906   5.406   4.124   6.401  0.0002 -0.1958  0.0366
  408SOL     OW 1907   2.620   3.638   2.441 -0.0133  0.7377  0.3649
  408SOL    HW1 1908   2.641   3.614   2.351  0.0841  0.2511  0.5180
  408SOL    HW2 1909   2.536   3.684   2.434  0.5805  1.7965 -0.1187
  409SOL     OW 1910   2.742   0.234   3.904  0.4999  0.1640 -0.2258
  409SOL    HW1 1911   2.834   0.207   3.908  0.9108  1.5648  0.1137
  409SOL    HW2 1912   2.735   0.305   3.967 -1.3437 -1.3460  1.4157
  410SOL     OW 1913   1.260   5.473   4.529  0.4594  0.2531 -1.0407
  410SOL    HW1 1914   1.183   5.506   4.483 -0.2697 -0.7756 -0.6014
  410SOL    HW2 1915   1.226   5.439   4.611  1.5537  0.7823 -0.3436
  411SOL     OW 1916   6.445   0.067   2.843  0.1166 -0.0228  0.5977
  411SOL    HW1 1917   6.484   0.096   2.925 -0.7001  0.0727  0.9643
  411SOL    HW2 1918   6.376   0.130   2.825  0.6012  0.2419 -0.4337
  412SOL     OW 1919   3.505   4.387   1.704  0.0403 -0.3551  0.7364
  412SOL    HW1 1920   3.576   4.438   1.666 -0.0769 -1.0815 -0.5057
  412SOL    HW2 1921   3.427   4.443   1.695 -0.1263 -0.7929 -0.8016
  413SOL     OW 1922   6.177   1.606   0.317 -0.4031 -0.0073 -0.1028
  413SOL    HW1 1923   6.142   1.527   0.357 -1.3844  1.0341  1.2151
  413SOL    HW2 1924   6.115   1.675   0.343  1.3485  1.4959  0.2713
  414SOL     OW 1925   6.473   6.381   0.895 -0.0224  0.3254 -0.3790
  414SOL    HW1 1926   6.562   6.354   0.918  0.1987  0.5229 -0.9756
  414SOL    HW2 1927   6.467   6.472   0.923 -0.1650  0.2020 -0.0015
  415SOL     OW 1928   0.946   4.072   4.217  0.3233  0.2060 -0.2801
  415SOL    HW1 1929   0.932   3.986   4.179  0.2076 -0.3071  0.8694
  415SOL    HW2 1930   1.030   4.101   4.182  0.2026 -0.2265 -0.9294
  416SOL     OW 1931   1.709   0.281   1.728 -0.0994  0.1974  0.1422
  416SOL    HW1 1932   1.657   0.275   1.808  1.2623 -0.2071  1.0239
  416SOL    HW2 1933   1.734   0.191   1.708 -0.6382  0.2543 -0.9235
  417SOL     OW 1934   2.721   1.198   1.436 -0.0723  0.0948 -0.7503
  417SOL    HW1 1935   2.699   1.266   1.371 -0.0816  1.5242  0.6822
  417SOL    HW2 1936   2.807   1.224   1.468 -0.3677 -0.1992  0.2933
  418SOL     OW 1937   5.262   1.714   3.193  0.3071  0.0862  0.2042
  418SOL    HW1 1938   5.301   1.687   3.109  2.1735  1.9174  0.4188
  418SOL    HW2 1939   5.335   1.715   3.254 -0.5927  1.0781  1.2972
  419SOL     OW 1940   4.832   2.691   5.662  0.0648  0.2931 -0.0370
  419SOL    HW1 1941   4.824   2.642   5.744  1.9402  1.1573  0.7290
  419SOL    HW2 1942   4.865   2.777   5.689 -1.4227  1.4054 -1.5092
  420SOL     OW 1943   0.613   1.119   0.189  0.2330  0.2104  0.0885
  420SOL    HW1 1944   0.593   1.092   0.099  0.7448  1.8655 -0.5521
  420SOL    HW2 1945   0.697   1.166   0.182 -0.1938  1.2065  1.2717
  421SOL     OW 1946   2.215   2.135   3.188  0.4819  0.1080 -0.1908
  421SOL    HW1 1947   2.212   2.039   3.187  2.1653 -0.0217 -3.0488
  421SOL    HW2 1948   2.198   2.161   3.097  1.9030  2.4169  0.1170
  422SOL     OW 1949   3.553   5.427   4.734  0.8052  0.1942  0.2385
  422SOL    HW1 1950   3.523   5.518   4.736 -2.6322 -0.7905 -0.1739
  422SOL    HW2 1951   3.550   5.403   4.642  0.2875 -0.7255  0.4830
  423SOL     OW 1952   0.866   0.896   5.977  0.2276  0.2750  0.0081
  423SOL    HW1 1953   0.879   0.874   6.069 -0.9949  0.7401  0.3059
  423SOL    HW2 1954   0.788   0.848   5.952 -0.5468  1.6353 -0.2488
  424SOL     OW 1955   6.068   3.275   3.925 -0.5699 -0.5837 -0.1763
  424SOL    HW1 1956   6.023   3.304   4.004  1.2500  1.5097  0.1897
  424SOL    HW2 1957   6.035   3.335   3.857 -0.1985 -0.6710 -0.4317
  425SOL     OW 1958   6.267   3.639   4.213 -0.6505  0.6632 -0.4377
  425SOL    HW1 1959   6.301   3.638   4.124  2.3188  0.1133  0.5902
  425SOL    HW2 1960   6.213   3.560   4.219 -0.1980  0.2530 -1.5028
  426SOL     OW 1961   4.482   3.687   1.511  0.2503  0.1318 -0.3909
  426SOL    HW1 1962   4.573   3.662   1.500  0.9294  2.8478 -1.8007
  426SOL    HW2 1963   4.432   3.621   1.462  1.3997 -1.3606  0.3662
  427SOL     OW 1964   2.442   0.823   3.836  0.0601 -0.5951  0.1742
  427SOL    HW1 1965   2.379   0.769   3.789  0.5193  0.1900 -1.4357
  427SOL    HW2 1966   2.527   0.787   3.812  0.3219  0.1573 -0.0519
  428SOL     OW 1967   3.905   5.511   6.260  0.1836  0.3366  0.0892
  428SOL    HW1 1968   3.971   5.570   6.296  0.2216 -0.4678  1.4185
  428SOL    HW2 1969   3.898   5.535   6.168  0.1385  2.4443  0.6046
  429SOL     OW 1970   2.811   6.182   6.392 -0.1233 -0.6015  0.2337
  429SOL    HW1 1971   2.856   6.261   6.362 -0.2809 -1.1984 -1.7527
  429SOL    HW2 1972   2.808   6.126   6.315 -0.1100 -2.5254  1.5642
  430SOL     OW 1973   0.620   0.506   1.306  0.8256  0.1460 -0.2211
  430SOL    HW1 1974   0.617   0.599   1.281  1.6163  0.1368 -0.3660
  430SOL    HW2 1975   0.539   0.492   1.354 -0.1599  0.4600 -1.7340
  431SOL     OW 1976   2.077   1.636   0.758  0.0401  0.2465  0.8144
  431SOL    HW1 1977   2.112   1.564   0.810 -0.3392 -0.7469 -0.2823
  431SOL    HW2 1978   2.108   1.620   0.669 -1.2582  0.6016  0.2670
  432SOL     OW 1979   4.747   6.132   4.007  0.3144 -0.6449 -0.0766
  432SOL    HW1 1980   4.681   6.075   3.968  0.4113  0.0937 -1.4080
  432SOL    HW2 1981   4.699   6.207   4.039  0.1664 -1.5164  1.8375
  433SOL     OW 1982   5.313   2.458   3.045 -0.0717  0.2781  0.4766
  433SOL    HW1 1983   5.294   2.430   2.955 -0.5850 -0.2632  0.7465
  433SOL    HW2 1984   5.361   2.540   3.035  0.5125 -0.1402 -0.3102
  434SOL     OW 1985   0.259   3.409   5.291  0.1200  0.2663 -0.4429
  434SOL    HW1 1986   0.188   3.449   5.241 -1.3598 -0.7284  0.7724
  434SOL    HW2 1987   0.220   3.329   5.327  1.9356 -0.4221  0.0875
  435SOL     OW 1988   0.975   4.917   3.743 -0.3020  0.4370  0.1602
  435SOL    HW1 1989   0.913   4.908   3.815 -0.7265  0.2504 -0.2211
  435SOL    HW2 1990   0.970   5.009   3.718  0.2525  0.6310  0.7166
  436SOL     OW 1991   0.721   2.804   4.675  0.4044 -0.6813  0.3856
  436SOL    HW1 1992   0.793   2.802   4.738 -1.4497  2.5559  2.8984
  436SOL    HW2 1993   0.681   2.717   4.681  1.5677 -1.1366  2.0524
  437SOL     OW 1994   3.576   4.848   2.478  0.5027 -0.3112 -0.6107
  437SOL    HW1 1995   3.589   4.805   2.393 -0.7304 -1.2123 -0.3709
  437SOL    HW2 1996   3.524   4.785   2.528 -1.2860  1.4343 -0.1991
  438SOL     OW 1997   5.875   1.332   5.600 -0.2115 -0.7275  0.1701
  438SOL    HW1 1998   5.852   1.425   5.608  2.2692  0.1522 -1.5522
  438SOL    HW2 1999   5.864   1.297   5.688 -0.6009  1.3593  1.0218
  439SOL     OW 2000   1.006   1.991   2.043  0.1141 -0.9720  0.5858
  439SOL    HW1 2001   1.067   1.929   2.083 -0.0431 -1.6538 -0.1984
  439SOL    HW2 2002   1.032   2.076   2.078  3.0099 -0.8775 -1.3681
  440SOL     OW 2003   1.208   3.404   2.810 -0.0252 -0.0870  0.3232
  440SOL    HW1 2004   1.232   3.469   2.876 -0.1134 -1.3775  1.6937
  440SOL    HW2 2005   1.289   3.356   2.793  0.2563  0.9134 -1.3583
  441SOL     OW 2006   6.203   5.130   3.458 -0.3648  0.3051  0.3472
  441SOL    HW1 2007   6.284   5.115   3.508 -0.9958 -0.9395  1.0344
  441SOL    HW2 2008   6.147   5.056   3.480  0.1490 -1.6404 -3.9407
  442SOL     OW 2009   2.856   1.396   0.835 -0.4607  0.6935  0.1622
  442SOL    HW1 2010   2.844   1.316   0.887 -0.5355  0.7441  0.2225
  442SOL    HW2 2011   2.860   1.365   0.744 -0.7639  0.6495  0.1651
  443SOL     OW 2012   5.966   0.701   2.123  0.0085  0.3000 -0.2172
  443SOL    HW1 2013   5.929   0.623   2.081 -0.7311  0.9054 -0.7162
  443SOL    HW2 2014   5.927   0.702   2.211 -2.6399  1.8669 -1.2934
  444SOL     OW 2015   2.055   0.534   4.382  0.0536  0.4470 -0.3667
  444SOL    HW1 2016   2.122   0.530   4.314 -0.6793  0.6152 -1.1149
  444SOL    HW2 2017   2.002   0.611   4.359 -0.3272  0.3861  0.2812
  445SOL     OW 2018   1.907   4.132   0.551  0.1172  0.1290  0.0323
  445SOL    HW1 2019   1.876   4.213   0.509  3.0339  1.2788 -0.1169
  445SOL    HW2 2020   1.897   4.150   0.645  1.3507  0.9999  0.0268
  446SOL     OW 2021   2.516   5.408   4.040 -0.3861  0.1215 -0.4792
  446SOL    HW1 2022   2.428   5.405   4.076 -1.0686  1.2157 -1.9723
  446SOL    HW2 2023   2.565   5.342   4.090 -1.9635 -0.3247  0.5338
  447SOL     OW 2024   0.516   6.226   2.810  0.5262  0.4811 -0.3301
  447SOL    HW1 2025   0.443   6.187   2.762  0.4292  0.5185 -0.2121
  447SOL    HW2 2026   0.527   6.312   2.770 -0.9722  1.4189  1.1336
  448SOL     OW 2027   1.130   3.997   1.049  0.0257  0.6567 -0.2980
  448SOL    HW1 2028   1.113   4.048   0.969 -0.1900  1.1554  0.0588
  448SOL    HW2 2029   1.176   4.058   1.107 -1.3739  0.8698  0.6376
  449SOL     OW 2030   2.000   0.862   1.905 -0.1264  0.7598 -0.1098
  449SOL    HW1 2031   1.932   0.811   1.861  1.0698  0.1495 -1.2963
  449SOL    HW2 2032   2.081   0.840   1.860  1.0141  0.9274  1.7217
  450SOL     OW 2033   6.418   5.717   2.849  0.0379 -0.0356 -0.8825
  450SOL    HW1 2034   6.383   5.792   2.801  1.9973  2.5484  1.4019
  450SOL    HW2 2035   6.495   5.690   2.798  0.6842  1.0863 -0.5355
  451SOL     OW 2036   5.004   5.069   5.846 -0.1037 -0.2029 -0.0564
  451SOL    HW1 2037   4.911   5.083   5.864 -0.1234  1.9883 -1.4908
  451SOL    HW2 2038   5.008   5.050   5.752  0.8600 -0.8992  0.1062
  452SOL     OW 2039   3.978   3.137   3.352  0.0291  0.1401 -0.7250
  452SOL    HW1 2040   3.979   3.043   3.372  1.3415  0.0036 -1.3702
  452SOL    HW2 2041   3.886   3.162   3.364 -0.5072 -1.3987 -1.2968
  453SOL     OW 2042   4.550   0.271   4.957  0.1878 -0.2860 -0.3550
  453SOL    HW1 2043   4.491   0.202   4.927  0.7821 -0.8797 -0.1621
  453SOL    HW2 2044   4.508   0.352   4.928  0.1447 -0.7801 -1.7430
  454SOL     OW 2045   3.347   4.715   3.630  0.7588  0.0941 -0.2492
  454SOL    HW1 2046   3.296   4.651   3.579  0.9785  1.0819 -1.7702
  454SOL    HW2 2047   3.367   4.784   3.568  1.9848  0.8414  0.9355
  455SOL     OW 2048   2.327   1.694   2.267  0.2765 -0.2148  0.2054
  455SOL    HW1 2049   2.269   1.653   2.331 -0.8563  0.2224 -0.5125
  455SOL    HW2 2050   2.393   1.738   2.320 -0.1143 -0.6103  1.0490
  456SOL     OW 2051   4.765   1.933   4.107  0.3745  0.4073 -1.2181
  456SOL    HW1 2052   4.808   1.872   4.167 -0.6121 -0.1231 -1.0321
  456SOL    HW2 2053   4.817   2.013   4.112  0.3018  0.3788  0.3568
  457SOL     OW 2054   4.434   2.014   5.113 -0.1628 -0.1321 -0.5313
  457SOL    HW1 2055   4.374   1.983   5.181 -2.0964  0.1915 -2.0040
  457SOL    HW2 2056   4.498   1.943   5.103  0.5069  0.0360  1.9218
  458SOL     OW 2057   0.039   5.333   0.873  0.0567 -0.0729  0.3219
  458SOL    HW1 2058  -0.022   5.359   0.942  0.3375  0.1133  0.5040
  458SOL    HW2 2059   0.056   5.240   0.889  0.4541  0.0701  0.7704
  459SOL     OW 2060   6.487   4.012   3.147  0.8401 -0.0872  0.3748
  459SOL    HW1 2061   6.411   3.954   3.157 -0.8125  1.4817 -2.0009
  459SOL    HW2 2062   6.558   3.955   3.118  0.0779 -1.3242  0.8769
  460SOL     OW 2063   4.439   5.977   2.466 -0.2296  0.3265  0.2128
  460SOL    HW1 2064   4.425   5.905   2.528  1.0360  0.5649  0.8061
  460SOL    HW2 2065   4.362   5.973   2.408  0.7386 -2.8193 -1.1038
  461SOL     OW 2066   1.230   4.723   5.008 -1.0732 -0.2364 -0.0361
  461SOL    HW1 2067   1.286   4.658   5.049  0.5442  0.2500 -1.3736
  461SOL    HW2 2068   1.208   4.784   5.079  2.1384  0.9261  0.1142
  462SOL     OW 2069   1.214   0.402   3.370  0.3465  0.4016  0.2655
  462SOL    HW1 2070   1.161   0.456   3.429 -2.2587 -1.1351 -0.4767
  462SOL    HW2 2071   1.187   0.431   3.282  0.2225 -0.8522 -0.1280
  463SOL     OW 2072   0.369   4.205   5.492  0.2811 -0.2319 -0.4441
  463SOL    HW1 2073   0.299   4.178   5.432  0.3512  0.6272 -0.9287
  463SOL    HW2 2074   0.442   4.229   5.434  0.7822 -0.5939  0.0375
  464SOL     OW 2075   0.263   5.692   5.573 -0.2434 -0.5746 -0.0855
  464SOL    HW1 2076   0.203   5.706   5.646  0.5405  1.3197  0.2383
  464SOL    HW2 2077   0.215   5.724   5.496 -0.0932 -0.1790 -0.0125
  465SOL     OW 2078   3.399   4.538   5.916 -0.4159 -0.0970  0.6258
  465SOL    HW1 2079   3.493   4.527   5.928 -0.4086 -0.2115  0.4662
  465SOL    HW2 2080   3.390   4.616   5.862 -0.3882 -0.4033  0.1735
  466SOL     OW 2081   5.323   4.453   3.326  0.4659  0.1767 -0.3348
  466SOL    HW1 2082   5.280   4.413   3.250 -0.6057  1.0716 -0.2304
  466SOL    HW2 2083   5.268   4.430   3.400  1.7051 -0.9908  0.2534
  467SOL     OW 2084   1.606   0.181   5.369  0.4823 -0.0113 -0.0259
  467SOL    HW1 2085   1.526   0.161   5.321 -0.0383  0.2518  0.7054
  467SOL    HW2 2086   1.671   0.122   5.333 -0.6034 -1.9189  0.9459
  468SOL     OW 2087   0.662   2.892   1.310  0.1669  0.4406  0.5317
  468SOL    HW1 2088   0.682   2.881   1.403 -0.6953 -0.8570  0.5976
  468SOL    HW2 2089   0.734   2.848   1.265 -0.3736 -0.6004  0.6552
  469SOL     OW 2090   3.737   3.234   3.432  0.2045 -0.0444  0.0477
  469SOL    HW1 2091   3.685   3.170   3.480 -0.2029 -0.0670 -0.4070
  469SOL    HW2 2092   3.751   3.306   3.494 -1.4795  0.5565 -0.1907
  470SOL     OW 2093   0.351   4.987   5.873  0.1008 -0.2485 -0.1372
  470SOL    HW1 2094   0.332   4.995   5.967 -0.9373 -1.4242 -0.2253
  470SOL    HW2 2095   0.398   5.068   5.852 -0.9144  0.7163  1.0881
  471SOL     OW 2096   3.555   0.751   1.107  0.5329  0.2945  1.1058
  471SOL    HW1 2097   3.461   0.761   1.091  0.4585  1.0202  1.8861
  471SOL    HW2 2098   3.576   0.664   1.074 -0.3040  0.3242  0.4391
  472SOL     OW 2099   3.132   1.528   3.740  0.3633  0.0475  0.5214
  472SOL    HW1 2100   3.077   1.554   3.814  0.4408  0.0374  0.5818
  472SOL    HW2 2101   3.143   1.433   3.750 -0.1203 -0.0534  0.1687
  473SOL     OW 2102   4.846   2.997   3.137 -1.0072 -0.8812 -0.4538
  473SOL    HW1 2103   4.788   3.048   3.079 -0.2120  1.0644  0.3551
  473SOL    HW2 2104   4.811   3.011   3.224 -0.1396 -0.8313 -0.1030
  474SOL     OW 2105   0.649   3.819   1.599 -0.3071  0.0387  0.2840
  474SOL    HW1 2106   0.640   3.863   1.514 -1.2793 -0.5594  0.0516
  474SOL    HW2 2107   0.738   3.786   1.600  0.5235  2.1454  0.5498
  475SOL     OW 2108   6.434   2.252   2.221  0.1235 -0.0676  0.6288
  475SOL    HW1 2109   6.497   2.231   2.151  1.3691 -0.0254  1.6929
  475SOL    HW2 2110   6.398   2.337   2.195  0.3356 -0.1983 -0.1270
  476SOL     OW 2111   2.207   5.887   5.901  0.6690 -0.3991  0.0972
  476SOL    HW1 2112   2.131   5.854   5.852  0.6663  0.4837 -0.5172
  476SOL    HW2 2113   2.169   5.946   5.966  0.7606 -0.7142  0.4387
  477SOL     OW 2114   2.382   3.704   1.235 -0.5941  0.0272  0.2624
  477SOL    HW1 2115   2.350   3.702   1.325 -0.8429  1.5857  0.2299
  477SOL    HW2 2116   2.466   3.749   1.241 -0.9489  0.7841 -0.3756
  478SOL     OW 2117   5.146   1.779   0.512  0.3567 -0.2914 -0.2572
  478SOL    HW1 2118   5.100   1.859   0.487  0.2591 -0.0616  0.5971
  478SOL    HW2 2119   5.164   1.734   0.430  0.4488  0.6293 -0.7552
  479SOL     OW 2120   0.141   4.529   1.950  0.2886  0.1568 -0.2919
  479SOL    HW1 2121   0.181   4.553   1.866 -0.6980 -0.2019 -0.8766
  479SOL    HW2 2122   0.129   4.613   1.995 -1.8257  0.7068 -1.7308
  480SOL     OW 2123   5.447   4.669   3.016  0.1311 -0.1362  0.2243
  480SOL    HW1 2124   5.491   4.599   3.065  0.6368  1.3726  2.0508
  480SOL    HW2 2125   5.370   4.626   2.978  1.3488 -2.0642 -0.2206
  481SOL     OW 2126   3.321   5.230   1.344  0.0179 -0.5332  0.4487
  481SOL    HW1 2127   3.399   5.260   1.391 -0.6733  2.3296 -0.0852
  481SOL    HW2 2128   3.289   5.157   1.397  1.3730  0.1479  2.3426
  482SOL     OW 2129   5.324   6.139   4.918  0.0795 -0.2166 -0.0057
  482SOL    HW1 2130   5.281   6.151   4.833  0.7766  2.1065 -0.1034
  482SOL    HW2 2131   5.314   6.223   4.962  0.2241 -1.1992  2.0194
  483SOL     OW 2132   2.525   3.797   2.706 -0.3458  0.3559  0.1120
  483SOL    HW1 2133   2.619   3.794   2.726 -0.4374 -0.8565  0.4739
  483SOL    HW2 2134   2.519   3.848   2.625  0.3989  2.3661  1.2379
  484SOL     OW 2135   0.096   2.680   1.862  0.0737  0.0038 -0.0810
  484SOL    HW1 2136   0.057   2.593   1.874 -0.9044  0.2503 -1.2424
  484SOL    HW2 2137   0.029   2.741   1.894  0.6928  0.3547  0.5801
  485SOL     OW 2138   1.965   2.484   4.784 -0.0067  0.5010 -0.0383
  485SOL    HW1 2139   1.965   2.494   4.879  0.6379  0.6212 -0.0467
  485SOL    HW2 2140   1.910   2.555   4.752 -0.9655 -0.0797  0.2918
  486SOL     OW 2141   6.106   0.972   1.181 -0.1445  0.4155 -0.4986
  486SOL    HW1 2142   6.138   0.913   1.249  1.2525 -0.4721 -1.8543
  486SOL    HW2 2143   6.081   0.915   1.109 -1.5672  1.3389 -0.7825
  487SOL     OW 2144   1.903   4.833   1.974 -0.6548  0.5476  0.5297
  487SOL    HW1 2145   1.810   4.840   1.952 -0.1765  1.9606 -1.3260
  487SOL    HW2 2146   1.946   4.823   1.889  0.9469  0.8393  1.2793
  488SOL     OW 2147   0.518   1.699   6.299 -0.3880  0.0624 -0.0692
  488SOL    HW1 2148   0.545   1.609   6.283 -0.0586  0.3622 -1.2454
  488SOL    HW2 2149   0.427   1.692   6.326 -0.6929 -0.5488 -1.2009
  489SOL     OW 2150   5.761   3.236   2.311 -0.2814 -0.0864 -0.2604
  489SOL    HW1 2151   5.672   3.255   2.282 -0.1099  0.2094 -0.6052
  489SOL    HW2 2152   5.771   3.287   2.391  0.3116  1.6721 -1.3937
  490SOL     OW 2153   3.789   0.849   3.387 -0.6607  0.3373 -0.0700
  490SOL    HW1 2154   3.869   0.901   3.376 -0.2549  0.0969  1.4618
  490SOL    HW2 2155   3.723   0.913   3.415 -0.4249  0.1937  0.8239
  491SOL     OW 2156   5.746   1.899   4.975  0.0789  0.4038 -0.0870
  491SOL    HW1 2157   5.840   1.879   4.982 -0.1173 -0.2720  0.7649
  491SOL    HW2 2158   5.728   1.954   5.051 -0.2511  0.3658 -0.1377
  492SOL     OW 2159   2.715   0.951   4.362  0.3379  0.0689 -0.1869
  492SOL    HW1 2160   2.770   1.021   4.397 -0.9075  0.8998  0.1863
  492SOL    HW2 2161   2.722   0.961   4.267  0.6871  0.2832 -0.1416
  493SOL     OW 2162   4.365   2.985   5.877 -0.3366  0.8329  0.5905
  493SOL    HW1 2163   4.452   3.026   5.886 -0.8532  1.8841  0.9596
  493SOL    HW2 2164   4.383   2.899   5.840  0.9894  0.4769  1.9593
  494SOL     OW 2165   0.662   4.421   3.295 -0.1353 -0.0181 -0.2211
  494SOL    HW1 2166   0.653   4.398   3.202  1.8586  0.5059 -0.5853
  494SOL    HW2 2167   0.657   4.337   3.341  1.3925 -0.5917 -1.0370
  495SOL     OW 2168   4.359   0.628   1.895 -0.1306  0.6571 -0.3354
  495SOL    HW1 2169   4.384   0.702   1.949  0.6884  0.4259 -0.3787
  495SOL    HW2 2170   4.348   0.555   1.956  2.3114  0.0070 -0.5792
  496SOL     OW 2171   4.933   1.785   3.360  0.1848  0.1805  0.1591
  496SOL    HW1 2172   5.009   1.777   3.417  0.8087  0.9001 -0.5506
  496SOL    HW2 2173   4.899   1.873   3.378 -1.6227 -0.7701  1.8241
  497SOL     OW 2174   6.002   5.391   0.430 -0.6445  0.0479 -0.1866
  497SOL    HW1 2175   6.044   5.370   0.347  1.3324  0.2578  0.6934
  497SOL    HW2 2176   6.059   5.459   0.469 -1.4105 -0.1742  1.4013
  498SOL     OW 2177   2.588   5.123   1.868  0.2695 -0.3453 -0.1292
  498SOL    HW1 2178   2.666   5.159   1.911  0.6554  0.8451 -1.7277
  498SOL    HW2 2179   2.617   5.037   1.837  0.7066 -0.2420 -0.0267
  499SOL     OW 2180   6.214   3.699   6.429  0.0849  0.1453 -0.2423
  499SOL    HW1 2181   6.185   3.611   6.403  0.7102 -0.2664  0.3877
  499SOL    HW2 2182   6.143   3.757   6.403  0.2695 -0.3528 -2.0017
  500SOL     OW 2183   3.521   0.104   4.086 -0.3224 -0.7395  0.1834
  500SOL    HW1 2184   3.466   0.117   4.163 -0.2135 -1.0048  0.3080
  500SOL    HW2 2185   3.474   0.149   4.015 -0.3851 -0.4336  0.4191
  501SOL     OW 2186   0.189   3.695   4.071 -0.1913  0.1220  0.8332
  501SOL    HW1 2187   0.139   3.731   4.144 -0.9431 -3.0697  2.1015
  501SOL    HW2 2188   0.128   3.699   3.997 -1.1731 -0.6881  1.5570
  502SOL     OW 2189   4.714   0.626   3.148 -0.1098 -0.6115 -0.5177
  502SOL    HW1 2190   4.681   0.670   3.227 -0.7945 -2.4490  0.2829
  502SOL    HW2 2191   4.807   0.613   3.166 -0.2795 -1.1087  0.0618
  503SOL     OW 2192   0.145   1.105   2.188 -0.1149  0.1334  0.2823
  503SOL    HW1 2193   0.160   1.160   2.111 -3.6512  2.0973  0.7689
  503SOL    HW2 2194   0.050   1.090   2.188  0.1552 -2.3028  2.6826
  504SOL     OW 2195   0.279   0.395   3.426  0.3673  0.0027 -0.2480
  504SOL    HW1 2196   0.277   0.434   3.339 -0.8240  1.4529  0.3790
  504SOL    HW2 2197   0.372   0.392   3.448  0.7715 -1.3319 -1.9312
  505SOL     OW 2198   5.521   4.118   4.797 -0.1012  0.0911 -0.3118
  505SOL    HW1 2199   5.427   4.121   4.779 -0.1917 -0.6469  0.0122
  505SOL    HW2 2200   5.562   4.134   4.713 -0.4921  2.4939 -0.1296
  506SOL     OW 2201   2.843   2.813   0.417 -0.5618  0.0895  0.4170
  506SOL    HW1 2202   2.796   2.770   0.488 -0.0408  0.0460  0.7433
  506SOL    HW2 2203   2.776   2.835   0.352 -0.6735 -2.3353 -0.3613
  507SOL     OW 2204   2.203   3.895   1.576 -0.0305 -0.5114 -0.1239
  507SOL    HW1 2205   2.229   3.982   1.546 -0.8793 -0.2236 -0.0459
  507SOL    HW2 2206   2.253   3.881   1.656  0.5044 -0.3131 -0.4227
  508SOL     OW 2207   2.748   1.296   4.072  0.1703 -0.1048 -0.0308
  508SOL    HW1 2208   2.727   1.362   4.005  1.3619  1.8461  1.3974
  508SOL    HW2 2209   2.684   1.309   4.141  0.9277  0.1672  0.6402
  509SOL     OW 2210   0.130   2.698   1.545 -0.5690  0.5130 -0.3333
  509SOL    HW1 2211   0.091   2.647   1.616 -0.3923 -0.1692 -0.7146
  509SOL    HW2 2212   0.151   2.783   1.584 -0.3228  0.0871  0.4688
  510SOL     OW 2213   4.483   1.280   5.581 -0.3528  0.7709  0.0287
  510SOL    HW1 2214   4.444   1.243   5.502  0.0271  1.0299 -0.2831
  510SOL    HW2 2215   4.571   1.243   5.584  0.0346  1.6387 -0.2924
  511SOL     OW 2216   3.111   2.705   2.200  0.2683 -0.3103 -0.1368
  511SOL    HW1 2217   3.047   2.649   2.246 -0.0017 -1.9697 -2.3444
  511SOL    HW2 2218   3.179   2.644   2.171  0.6968  0.7459 -1.4237
  512SOL     OW 2219   5.932   3.758   0.740  0.0114 -0.3993  0.3648
  512SOL    HW1 2220   5.873   3.752   0.665 -0.4342  0.4978  0.6290
  512SOL    HW2 2221   5.882   3.718   0.812  0.7918 -2.0961  0.0057
  513SOL     OW 2222   0.527   5.140   1.632  0.0978 -0.6762 -0.0688
  513SOL    HW1 2223   0.519   5.102   1.544 -1.7282 -0.2191 -0.1332
  513SOL    HW2 2224   0.574   5.222   1.618 -0.9359 -0.1773 -0.7734
  514SOL     OW 2225   3.222   3.028   5.622  0.8274  0.3264  0.0593
  514SOL    HW1 2226   3.198   3.072   5.540 -0.1443 -1.1537 -0.5054
  514SOL    HW2 2227   3.318   3.022   5.619  0.7674 -0.4048 -1.3826
  515SOL     OW 2228   4.515   0.012   1.751 -0.1927 -0.5934 -0.1993
  515SOL    HW1 2229   4.555  -0.007   1.666  2.9456 -1.0474  1.2424
  515SOL    HW2 2230   4.527   0.107   1.762 -1.4297 -0.3710 -0.6030
  516SOL     OW 2231   0.728   6.042   5.023  0.1527 -0.3700 -0.1237
  516SOL    HW1 2232   0.643   6.086   5.024  1.1195  1.6347 -1.2912
  516SOL    HW2 2233   0.773   6.075   5.101  0.2823 -0.5495 -0.1223
  517SOL     OW 2234   2.305   3.786   2.985 -0.2199 -0.1887  0.0270
  517SOL    HW1 2235   2.246   3.860   2.974 -0.6503 -0.1682  2.0636
  517SOL    HW2 2236   2.246   3.710   2.994 -0.1062 -0.0530  3.0010
  518SOL     OW 2237   4.122   3.608   0.906 -0.3132 -0.8019  0.2554
  518SOL    HW1 2238   4.088   3.590   0.818  3.3558 -0.2400 -1.4575
  518SOL    HW2 2239   4.142   3.701   0.906  0.9129 -1.0386  1.2133
  519SOL     OW 2240   5.423   3.851   2.574  0.0138 -0.1749  0.0715
  519SOL    HW1 2241   5.504   3.870   2.620  0.6207 -2.5409  0.1235
  519SOL    HW2 2242   5.442   3.772   2.523 -1.8971 -0.0767 -0.9001
  520SOL     OW 2243   1.289   5.956   1.393  0.0407 -0.3690  0.2999
  520SOL    HW1 2244   1.254   5.934   1.480  0.7901 -0.2098  0.6525
  520SOL    HW2 2245   1.373   5.998   1.411  0.0119  0.0480 -0.4947
  521SOL     OW 2246   3.248   2.534   1.397  0.4337 -0.3391  0.3215
  521SOL    HW1 2247   3.329   2.563   1.355  0.4188 -2.2106 -1.1020
  521SOL    HW2 2248   3.278   2.480   1.471  0.4607 -0.1789  0.4299
  522SOL     OW 2249   1.624   2.092   2.323  0.6714  0.3909  0.2088
  522SOL    HW1 2250   1.669   2.051   2.249  0.2458  0.5243 -0.1279
  522SOL    HW2 2251   1.532   2.070   2.310  0.5867  0.4652  0.6680
  523SOL     OW 2252   2.791   6.108   2.447  0.0440 -0.2607  0.2256
  523SOL    HW1 2253   2.719   6.155   2.404 -0.2119 -1.3762 -0.6089
  523SOL    HW2 2254   2.749   6.032   2.488  0.7473 -0.9394 -0.2969
  524SOL     OW 2255   5.257   5.719   4.493  0.0056  0.4492  0.1972
  524SOL    HW1 2256   5.211   5.771   4.426 -0.4591 -0.4722 -0.2092
  524SOL    HW2 2257   5.337   5.769   4.510  0.2342  0.6025 -1.1903
  525SOL     OW 2258   2.441   5.183   2.589 -0.2726 -0.3918  0.5442
  525SOL    HW1 2259   2.421   5.113   2.527 -0.3890  1.6950 -1.9642
  525SOL    HW2 2260   2.359   5.196   2.638 -1.7432  0.7795 -2.0116
  526SOL     OW 2261   5.569   3.430   4.931  0.2471 -0.2930 -0.5576
  526SOL    HW1 2262   5.623   3.436   4.852  1.8515  1.3200  0.5519
  526SOL    HW2 2263   5.631   3.403   4.999 -1.3246 -2.7021  0.0039
  527SOL     OW 2264   1.767   1.840   4.455  0.0652  0.0351  0.2381
  527SOL    HW1 2265   1.737   1.750   4.468 -1.2365  0.6677  2.0106
  527SOL    HW2 2266   1.859   1.832   4.429  0.2396 -1.7735  1.2952
  528SOL     OW 2267   4.090   4.357   6.405  0.6439  0.3855  0.1086
  528SOL    HW1 2268   4.095   4.355   6.501  2.1501  2.1329  0.1266
  528SOL    HW2 2269   4.030   4.429   6.386  1.6929  1.1775 -0.2498
  529SOL     OW 2270   4.749   4.054   3.827  0.0592 -0.0562 -0.2227
  529SOL    HW1 2271   4.789   4.095   3.904 -0.9015  2.1747 -0.8122
  529SOL    HW2 2272   4.795   4.092   3.753 -2.4166  1.9066 -0.8748
  530SOL     OW 2273   0.881   1.163   3.056  0.5632 -0.4680 -0.6085
  530SOL    HW1 2274   0.896   1.150   2.962 -0.4171 -1.5119 -0.6386
  530SOL    HW2 2275   0.869   1.075   3.090  2.1035 -0.2055  0.7356
  531SOL     OW 2276   4.922   5.906   4.470  0.1307 -0.0925 -0.3913
  531SOL    HW1 2277   4.913   5.867   4.557  0.4391 -1.6966 -1.0397
  531SOL    HW2 2278   4.991   5.971   4.481  0.6238 -0.7265  0.4352
  532SOL     OW 2279   0.924   2.870   2.796  0.7498 -0.1840 -0.2045
  532SOL    HW1 2280   0.986   2.825   2.853  0.9337  1.0345  0.5778
  532SOL    HW2 2281   0.871   2.923   2.855  0.7568  0.8801 -1.1222
  533SOL     OW 2282   3.135   0.653   3.480 -0.5773  0.1916 -0.1013
  533SOL    HW1 2283   3.224   0.668   3.514 -1.1607 -0.9060  2.0469
  533SOL    HW2 2284   3.093   0.738   3.486  0.3650  0.7872 -1.3720
  534SOL     OW 2285   4.271   0.514   5.520 -0.2009  0.5355  0.2234
  534SOL    HW1 2286   4.182   0.542   5.496 -0.5929 -0.8233  0.0226
  534SOL    HW2 2287   4.283   0.430   5.476  0.6843  0.0494  1.3281
  535SOL     OW 2288   4.571   0.785   1.590 -0.5815  0.2529 -0.0220
  535SOL    HW1 2289   4.479   0.807   1.600 -0.2518  0.7905  2.3206
  535SOL    HW2 2290   4.573   0.689   1.596 -0.9295  0.2823  0.7072
  536SOL     OW 2291   5.152   5.626   0.423 -0.0800 -0.4809  0.2518
  536SOL    HW1 2292   5.181   5.557   0.484 -1.6771  0.5151  2.2603
  536SOL    HW2 2293   5.064   5.648   0.452  0.0615  1.8275 -0.8636
  537SOL     OW 2294   3.578   0.328   1.480  0.4173  0.1459 -0.2286
  537SOL    HW1 2295   3.557   0.249   1.530 -0.0017  0.6514  0.4171
  537SOL    HW2 2296   3.597   0.296   1.392 -2.3355 -0.4760 -0.7093
  538SOL     OW 2297   1.565   3.159   3.164 -0.1457 -0.7315 -0.2088
  538SOL    HW1 2298   1.592   3.092   3.101  0.1129 -1.4607  0.6632
  538SOL    HW2 2299   1.564   3.240   3.113  4.0901 -0.4982 -0.3434
  539SOL     OW 2300   3.865   6.246   5.875 -0.5291  0.1439  0.2343
  539SOL    HW1 2301   3.812   6.302   5.933  0.0356 -1.1205  2.0437
  539SOL    HW2 2302   3.800   6.203   5.819 -0.9873  2.4570 -1.1382
  540SOL     OW 2303   1.891   3.238   2.058 -0.0568  0.0601  0.6608
  540SOL    HW1 2304   1.932   3.292   2.126 -0.5744  2.6132 -0.9221
  540SOL    HW2 2305   1.962   3.221   1.996 -0.1506 -0.1509  0.6135
  541SOL     OW 2306   1.910   2.796   2.733 -0.2254 -0.0997  0.6529
  541SOL    HW1 2307   1.828   2.817   2.689 -0.0316 -0.1807  0.2518
  541SOL    HW2 2308   1.897   2.825   2.824 -0.3441  0.7666  0.3632
  542SOL     OW 2309   4.558   4.742   5.789 -0.2760 -0.2768 -0.2423
  542SOL    HW1 2310   4.627   4.786   5.838 -1.2009 -0.6867  1.5042
  542SOL    HW2 2311   4.593   4.734   5.700  0.9935  1.5185  0.0467
  543SOL     OW 2312   3.983   0.628   3.397  0.0924  0.7337  0.7766
  543SOL    HW1 2313   3.963   0.553   3.453 -0.6278  0.0357 -0.3944
  543SOL    HW2 2314   3.904   0.682   3.400 -0.3475  0.1830 -0.3475
  544SOL     OW 2315   4.149   3.993   2.170  0.7249  0.4359 -0.2418
  544SOL    HW1 2316   4.061   4.004   2.205  1.2128 -0.4492  1.3554
  544SOL    HW2 2317   4.136   3.968   2.079 -0.6204  1.7359 -0.4422
  545SOL     OW 2318   3.503   3.041   5.626  0.2635 -0.1807  0.4672
  545SOL    HW1 2319   3.497   2.960   5.676  0.6815 -0.6182 -0.1842
  545SOL    HW2 2320   3.551   3.017   5.547  0.8914  0.8158  0.5251
  546SOL     OW 2321   3.647   3.258   2.740 -0.0125  0.0802 -0.6583
  546SOL    HW1 2322   3.555   3.238   2.754  0.0322  0.9189  1.1316
  546SOL    HW2 2323   3.651   3.354   2.743  1.1829  0.0404  1.6903
  547SOL     OW 2324   1.553   3.540   1.999 -1.0181 -0.3477 -0.2279
  547SOL    HW1 2325   1.543   3.633   2.021 -2.4334 -0.3620 -0.7252
  547SOL    HW2 2326   1.563   3.496   2.084 -1.3649  0.1449  0.0732
  548SOL     OW 2327   6.492   2.564   6.156 -0.2374  0.4738  0.1808
  548SOL    HW1 2328   6.568   2.542   6.101  0.4439 -0.4158  1.4074
  548SOL    HW2 2329   6.514   2.526   6.241 -1.5601  1.2306  0.8779
  549SOL     OW 2330   1.261   5.248   6.451  0.4716  0.4486 -0.4085
  549SOL    HW1 2331   1.296   5.169   6.411  0.2734  0.4074 -0.5006
  549SOL    HW2 2332   1.171   5.253   6.421 -0.3442 -0.6886  1.6556
  550SOL     OW 2333   4.512   3.753   5.110  0.2702 -0.5556 -0.0809
  550SOL    HW1 2334   4.534   3.668   5.149  1.7179 -0.1303  0.0839
  550SOL    HW2 2335   4.585   3.810   5.134 -0.5203  0.6573 -0.4735
  551SOL     OW 2336   4.707   1.108   5.592  0.3908 -0.2579  0.0982
  551SOL    HW1 2337   4.800   1.096   5.613  0.5609 -0.3617 -0.6667
  551SOL    HW2 2338   4.704   1.102   5.497 -0.2445  0.9043  0.0396
  552SOL     OW 2339   6.414   0.911   0.681  0.0929 -0.6224 -0.1365
  552SOL    HW1 2340   6.437   0.994   0.724 -0.3423 -1.4701  1.8844
  552SOL    HW2 2341   6.492   0.887   0.631 -0.3669  1.8056 -2.2022
  553SOL     OW 2342   4.430   3.730   2.538 -0.3252 -0.3277  0.5680
  553SOL    HW1 2343   4.362   3.694   2.595  0.6732 -2.3091  0.6072
  553SOL    HW2 2344   4.386   3.745   2.454 -0.5206 -3.2446  0.0484
  554SOL     OW 2345   0.392   4.385   5.166  0.1845  0.0268 -0.4545
  554SOL    HW1 2346   0.323   4.405   5.229 -0.1997 -1.9300 -0.1916
  554SOL    HW2 2347   0.454   4.458   5.173 -1.0423  1.0074  0.4567
  555SOL     OW 2348   1.367   6.425   0.528 -0.7520 -0.0774 -0.0149
  555SOL    HW1 2349   1.393   6.369   0.455 -0.6820  0.5028 -0.4466
  555SOL    HW2 2350   1.444   6.429   0.585  0.3084  1.9305 -1.4673
  556SOL     OW 2351   1.928   0.565   5.674  0.7042 -0.2706 -0.5677
  556SOL    HW1 2352   1.899   0.638   5.619  1.2475  0.0317 -0.4668
  556SOL    HW2 2353   2.013   0.594   5.709 -0.1201 -0.0019  1.3205
  557SOL     OW 2354   2.063   3.866   0.709 -0.9797 -0.0652 -0.0580
  557SOL    HW1 2355   2.105   3.916   0.779 -1.9076  0.3790  0.1980
  557SOL    HW2 2356   2.050   3.930   0.639 -1.1285 -0.2189 -0.1699
  558SOL     OW 2357   3.050   0.576   3.027 -0.1703 -0.0578  0.5731
  558SOL    HW1 2358   2.978   0.521   3.058  0.1268 -0.3692  0.7224
  558SOL    HW2 2359   3.129   0.526   3.048  0.0281 -0.8391 -1.7436
  559SOL     OW 2360   3.628   6.394   1.128 -0.3256  0.4534 -0.0881
  559SOL    HW1 2361   3.615   6.486   1.104 -1.3781  0.6481  1.1082
  559SOL    HW2 2362   3.544   6.367   1.164  0.4215 -0.5493  0.9580
  560SOL     OW 2363   5.722   5.155   6.349  0.2588 -0.0012 -0.0919
  560SOL    HW1 2364   5.793   5.175   6.410  0.7424 -0.9262 -0.3196
  560SOL    HW2 2365   5.764   5.100   6.282 -0.7334 -0.8169 -0.0642
  561SOL     OW 2366   0.500   1.064   2.662  0.0818 -0.2171  0.3542
  561SOL    HW1 2367   0.539   1.150   2.646  1.1515 -0.4060  1.8123
  561SOL    HW2 2368   0.423   1.081   2.715 -0.7531 -0.0173 -0.8911
  562SOL     OW 2369   6.212   4.658   0.017  0.1828  0.6351  0.0154
  562SOL    HW1 2370   6.275   4.728  -0.001  0.4813  0.5649  0.7574
  562SOL    HW2 2371   6.181   4.675   0.106  0.2963 -0.1934  0.2269
  563SOL     OW 2372   3.929   4.106   1.807 -0.2581 -0.2432  0.1509
  563SOL    HW1 2373   3.896   4.124   1.719 -1.0321  1.2425  0.7096
  563SOL    HW2 2374   3.852   4.079   1.856  0.3576 -2.1564  0.1352
  564SOL     OW 2375   2.634   2.601   6.363 -0.4981 -0.2557  0.3183
  564SOL    HW1 2376   2.608   2.645   6.282  1.9236 -1.7781 -1.4427
  564SOL    HW2 2377   2.721   2.564   6.344 -1.3128 -3.7748  2.3777
  565SOL     OW 2378   1.329   2.691   1.371  0.3249 -0.0115  0.4364
  565SOL    HW1 2379   1.351   2.644   1.451  1.2343 -1.0496 -0.4026
  565SOL    HW2 2380   1.343   2.783   1.393 -0.0186 -0.2285  1.6361
  566SOL     OW 2381   0.793   0.307   2.295 -0.3074 -0.5004  0.0231
  566SOL    HW1 2382   0.886   0.328   2.288 -0.7466  1.7823  0.1121
  566SOL    HW2 2383   0.779   0.238   2.231  1.3969 -0.7282 -0.1542
  567SOL     OW 2384   2.613   5.136   4.946 -0.3122  0.7831 -0.0259
  567SOL    HW1 2385   2.608   5.048   4.984  0.9317  1.0032  0.7250
  567SOL    HW2 2386   2.638   5.192   5.020 -2.3349  2.0020 -0.2021
  568SOL     OW 2387   3.487   1.072   1.456  0.2149  0.5903 -0.3932
  568SOL    HW1 2388   3.443   1.143   1.504  1.0452 -1.3421  3.6378
  568SOL    HW2 2389   3.416   1.010   1.435  0.1369  0.3109  0.6392
  569SOL     OW 2390   5.011   1.965   1.306  0.4308 -0.2116  0.0976
  569SOL    HW1 2391   4.963   1.901   1.359  0.9914  0.4516  1.4379
  569SOL    HW2 2392   5.028   1.919   1.224 -0.9543 -1.0634  0.2566
  570SOL     OW 2393   1.904   5.297   1.598 -1.0794  0.2715 -0.4119
  570SOL    HW1 2394   1.926   5.222   1.543 -1.2412 -0.2515  0.2153
  570SOL    HW2 2395   1.985   5.318   1.644 -1.3510 -0.3527  0.3749
  571SOL     OW 2396   3.297   0.514   1.232 -0.2359  0.1071  0.5030
  571SOL    HW1 2397   3.267   0.564   1.156  1.8600  1.5471  0.5430
  571SOL    HW2 2398   3.346   0.441   1.193  1.2276  1.0950  0.3993
  572SOL     OW 2399   4.963   3.718   1.974  0.2220  0.2389 -0.5525
  572SOL    HW1 2400   5.020   3.643   1.957  0.7589  0.7285 -0.9452
  572SOL    HW2 2401   4.933   3.705   2.064 -0.5332 -0.9907 -0.9521
  573SOL     OW 2402   5.958   6.404   2.406  0.3888  0.3050 -0.3976
  573SOL    HW1 2403   5.868   6.426   2.427  0.7248 -0.2707  1.9130
  573SOL    HW2 2404   6.008   6.483   2.428  0.5257  0.3845 -0.9929
  574SOL     OW 2405   2.228   6.198   3.179 -0.1633  0.4383 -0.2399
  574SOL    HW1 2406   2.306   6.164   3.224  0.6758  0.9038 -1.2977
  574SOL    HW2 2407   2.183   6.120   3.147 -0.5221  0.1284  0.9823
  575SOL     OW 2408   3.310   5.950   5.990 -0.3281  0.3153 -0.0282
  575SOL    HW1 2409   3.405   5.958   5.980 -0.4199  0.4187 -0.8775
  575SOL    HW2 2410   3.278   6.040   5.989 -0.4849  0.2572 -0.2869
  576SOL     OW 2411   3.146   2.381   0.355  0.6144  0.0253 -0.1253
  576SOL    HW1 2412   3.142   2.475   0.338 -0.0716  0.4492  2.0255
  576SOL    HW2 2413   3.234   2.355   0.329  0.7433  1.2051 -0.9446
  577SOL     OW 2414   1.459   2.127   5.201 -0.8696 -0.5876  0.2854
  577SOL    HW1 2415   1.371   2.160   5.222 -2.0373 -3.0645 -0.3434
  577SOL    HW2 2416   1.481   2.172   5.119 -0.9797  0.9607  1.0601
  578SOL     OW 2417   3.528   0.504   0.978  0.2070 -0.5964  0.1008
  578SOL    HW1 2418   3.571   0.449   0.913  0.2029 -1.7100  1.0120
  578SOL    HW2 2419   3.438   0.471   0.982  0.4321 -1.1371  1.2707
  579SOL     OW 2420   1.425   4.251   3.564 -0.4018 -0.5720 -0.7039
  579SOL    HW1 2421   1.357   4.315   3.542  0.9695  1.3642  0.3883
  579SOL    HW2 2422   1.506   4.301   3.563  0.6509 -2.1077  1.0339
  580SOL     OW 2423   4.758   3.902   5.566 -0.2070  0.3364 -0.2783
  580SOL    HW1 2424   4.689   3.930   5.626  0.8700  1.2800  0.5409
  580SOL    HW2 2425   4.714   3.895   5.481 -1.8692 -1.4713  0.6359
  581SOL     OW 2426   4.840   1.269   6.275  0.2264 -0.0428  0.1762
  581SOL    HW1 2427   4.877   1.209   6.211  1.2049 -0.5890  1.2126
  581SOL    HW2 2428   4.806   1.343   6.224 -0.1009 -1.0101 -1.0364
  582SOL     OW 2429   5.700   4.535   1.579 -0.6862 -0.2894  0.1837
  582SOL    HW1 2430   5.726   4.522   1.670  1.4398  0.8422 -0.2107
  582SOL    HW2 2431   5.642   4.461   1.560  1.4757 -2.4669  1.4579
  583SOL     OW 2432   0.755   4.556   3.784 -0.3877 -0.1152  0.0338
  583SOL    HW1 2433   0.838   4.561   3.831 -0.9125 -0.4180  1.0059
  583SOL    HW2 2434   0.749   4.465   3.755 -1.0979 -0.4945  1.3175
  584SOL     OW 2435   4.428   4.614   2.194 -0.4836 -0.5201  0.6213
  584SOL    HW1 2436   4.371   4.543   2.165 -0.4526  0.0023 -0.8359
  584SOL    HW2 2437   4.388   4.693   2.157  0.3097  0.0377  0.9359
  585SOL     OW 2438   5.544   0.611   0.594 -0.3639  0.3404  0.2126
  585SOL    HW1 2439   5.542   0.672   0.667 -1.0264 -1.8150  2.1290
  585SOL    HW2 2440   5.455   0.576   0.590 -0.6818  1.2391 -2.4527
  586SOL     OW 2441   2.814   1.019   1.167  0.4726  0.3260 -0.5751
  586SOL    HW1 2442   2.787   1.094   1.114  2.8845  1.5993 -0.1543
  586SOL    HW2 2443   2.861   0.963   1.106  1.7468  0.9488 -0.2090
  587SOL     OW 2444   4.250   2.043   5.610  0.5689 -0.1930 -0.0050
  587SOL    HW1 2445   4.290   1.959   5.631  1.8634 -0.1598 -2.0187
  587SOL    HW2 2446   4.322   2.096   5.577 -0.5960  0.9944 -0.7404
  588SOL     OW 2447   5.165   3.916   3.214 -0.8272 -0.2364 -0.0477
  588SOL    HW1 2448   5.133   3.833   3.177 -0.6876 -0.6600  0.7656
  588SOL    HW2 2449   5.090   3.950   3.264 -0.5900 -0.3300  0.3736
  589SOL     OW 2450   6.090   3.385   1.476  0.2310  0.4541 -0.5129
  589SOL    HW1 2451   6.079   3.311   1.416  0.2337  1.0389 -1.2607
  589SOL    HW2 2452   6.059   3.353   1.560 -0.1186 -0.2809 -0.9124
  590SOL     OW 2453   1.115   2.711   5.376 -0.1889  0.4414  0.8189
  590SOL    HW1 2454   1.063   2.790   5.358  1.9678  1.8785  0.5459
  590SOL    HW2 2455   1.201   2.744   5.402  0.5687 -1.8403  1.4416
  591SOL     OW 2456   2.874   2.819   2.409 -0.3640 -0.1342  0.0572
  591SOL    HW1 2457   2.783   2.846   2.399  0.4844  2.4416 -1.4843
  591SOL    HW2 2458   2.874   2.727   2.383 -2.0430  0.6029 -3.0700
  592SOL     OW 2459   0.659   3.207   2.871  0.4202 -0.4880  0.0370
  592SOL    HW1 2460   0.659   3.222   2.966 -0.5938  1.3223 -0.2191
  592SOL    HW2 2461   0.577   3.245   2.840  0.8701 -0.7870 -1.6198
  593SOL     OW 2462   2.596   2.344   1.496 -0.6430  0.0823  0.3998
  593SOL    HW1 2463   2.670   2.288   1.474  0.3390  1.2919  0.4524
  593SOL    HW2 2464   2.529   2.324   1.431  0.3089  0.0274 -0.5859
  594SOL     OW 2465   2.909   2.033   4.748 -0.0223 -0.2379  0.4011
  594SOL    HW1 2466   2.995   2.029   4.790  0.1822  0.2784  0.0361
  594SOL    HW2 2467   2.862   2.103   4.795 -0.2199 -0.4661  0.5491
  595SOL     OW 2468   2.002   3.322   1.761 -0.0690  0.1369  0.4464
  595SOL    HW1 2469   2.038   3.403   1.797  0.5866  0.0070  0.1083
  595SOL    HW2 2470   1.909   3.324   1.784  0.0401  0.7528  0.8550
  596SOL     OW 2471   5.027   6.191   2.377 -0.2870 -0.1804  0.2732
  596SOL    HW1 2472   5.001   6.117   2.323 -0.9706 -1.1374  1.8548
  596SOL    HW2 2473   4.993   6.171   2.464  0.5451  1.4308  1.0176
  597SOL     OW 2474   4.147   3.114   3.568 -0.2221 -0.3076 -0.3068
  597SOL    HW1 2475   4.103   3.146   3.489 -2.2717 -1.6413  0.2114
  597SOL    HW2 2476   4.156   3.190   3.624 -1.1475  0.1639 -0.7794
  598SOL     OW 2477   1.899   2.307   5.004  0.0971  0.2523 -0.1061
  598SOL    HW1 2478   1.920   2.299   5.097 -0.4307 -0.7662 -0.0508
  598SOL    HW2 2479   1.843   2.385   4.999  1.6163  1.3924  0.1364
  599SOL     OW 2480   2.713   5.418   1.316  0.2757  0.4364 -0.1668
  599SOL    HW1 2481   2.686   5.361   1.388  1.3283  1.0782  0.7855
  599SOL    HW2 2482   2.776   5.479   1.357 -0.4186  1.9374 -1.2498
  600SOL     OW 2483   2.809   1.965   6.129  0.3763  0.2157 -0.0825
  600SOL    HW1 2484   2.902   1.974   6.109  0.9138 -1.6246  1.4136
  600SOL    HW2 2485   2.780   1.892   6.075  0.2800 -0.4772  0.8849
  601SOL     OW 2486   5.920   3.888   1.507 -0.4394 -0.2474  0.4147
  601SOL    HW1 2487   6.001   3.933   1.531 -0.0306 -0.2306 -0.9467
  601SOL    HW2 2488   5.929   3.801   1.547 -0.8915  0.5626  2.3961
  602SOL     OW 2489   4.332   0.537   3.447  0.1927 -0.4242  0.4752
  602SOL    HW1 2490   4.294   0.614   3.405 -0.6513 -0.1554  1.6802
  602SOL    HW2 2491   4.426   0.548   3.436  0.0514  0.4185  0.0264
  603SOL     OW 2492   0.744   2.111   6.099  0.6908  0.0828 -0.0168
  603SOL    HW1 2493   0.745   2.149   6.187 -0.8948  0.5437 -0.1627
  603SOL    HW2 2494   0.833   2.081   6.084  0.4039 -2.7742  2.9430
  604SOL     OW 2495   5.634   5.392   3.802  0.2285  0.6649  0.3576
  604SOL    HW1 2496   5.600   5.478   3.826 -0.5027  0.3769  0.3757
  604SOL    HW2 2497   5.589   5.370   3.720  0.9248  0.5945 -0.0174
  605SOL     OW 2498   3.590   6.083   3.882  0.2987 -0.1424  0.1128
  605SOL    HW1 2499   3.580   6.008   3.941 -0.1970 -1.0956 -1.1319
  605SOL    HW2 2500   3.609   6.157   3.940  2.2120 -1.4637  1.3165
  606SOL     OW 2501   5.701   3.305   3.419 -0.4267 -0.3065 -0.2262
  606SOL    HW1 2502   5.666   3.220   3.390  1.0062 -1.2609  0.7385
  606SOL    HW2 2503   5.661   3.319   3.505  0.8831 -1.0344  0.5376
  607SOL     OW 2504   4.561   0.183   5.555  0.4681 -0.6130  0.0326
  607SOL    HW1 2505   4.617   0.177   5.478  0.4434 -1.2544  0.0574
  607SOL    HW2 2506   4.622   0.179   5.629  0.5320  0.4355  0.0585
  608SOL     OW 2507   2.021   4.143   1.935 -0.4050  0.5483  0.4731
  608SOL    HW1 2508   2.079   4.185   1.872 -1.1512  0.9226  0.0148
  608SOL    HW2 2509   1.980   4.071   1.886  0.8184 -0.7154  1.2360
  609SOL     OW 2510   3.667   2.391   2.898  0.7383  0.7438 -0.3265
  609SOL    HW1 2511   3.751   2.360   2.933  1.0895  1.9971  0.0148
  609SOL    HW2 2512   3.654   2.476   2.940 -0.9256  0.3899 -0.0377
  610SOL     OW 2513   1.601   1.884   0.591  0.2348 -0.6040  0.7242
  610SOL    HW1 2514   1.637   1.911   0.506 -1.9082  0.0925 -0.0157
  610SOL    HW2 2515   1.616   1.789   0.594  2.5292 -0.3075  0.7186
  611SOL     OW 2516   2.181   3.941   1.210 -0.2033 -0.0257 -0.3027
  611SOL    HW1 2517   2.249   3.983   1.263  1.0002  1.7940 -3.0411
  611SOL    HW2 2518   2.199   3.847   1.218  1.1940  0.3055  0.8431
  612SOL     OW 2519   4.855   1.406   4.563  0.4981  0.1849  0.0574
  612SOL    HW1 2520   4.931   1.383   4.510 -0.3606 -1.7391 -0.4194
  612SOL    HW2 2521   4.801   1.459   4.505 -0.0197 -1.1756 -0.7546
  613SOL     OW 2522   4.129   1.390   5.106  0.2829 -0.2023  0.1465
  613SOL    HW1 2523   4.077   1.470   5.100 -0.9129 -0.8642  1.2084
  613SOL    HW2 2524   4.196   1.399   5.038  0.3324  1.8021  0.4177
  614SOL     OW 2525   4.234   5.791   3.856  0.1938  0.3297 -0.5594
  614SOL    HW1 2526   4.222   5.703   3.891 -0.8363 -0.0314 -1.7498
  614SOL    HW2 2527   4.318   5.787   3.810  1.1824  0.5975  1.1018
  615SOL     OW 2528   3.561   6.198   6.065  0.2394  0.2259 -0.5113
  615SOL    HW1 2529   3.591   6.288   6.055  0.4746  0.5069  2.0968
  615SOL    HW2 2530   3.641   6.146   6.062  0.0270 -0.1209 -3.1224
  616SOL     OW 2531   4.334   5.447   4.037  0.2901  0.9326  0.0038
  616SOL    HW1 2532   4.350   5.523   4.093  0.2158  1.1768 -0.3059
  616SOL    HW2 2533   4.342   5.372   4.096  1.5982  1.0954  0.0637
  617SOL     OW 2534   3.166   1.520   6.277  0.1074  0.0629 -0.3551
  617SOL    HW1 2535   3.104   1.578   6.321  0.0760 -0.4308  0.2605
  617SOL    HW2 2536   3.209   1.473   6.348 -1.9100 -2.8025 -0.8981
  618SOL     OW 2537   3.667   5.101   4.390  0.4481  0.3568 -0.4593
  618SOL    HW1 2538   3.616   5.135   4.317 -1.1150  2.8103  1.6150
  618SOL    HW2 2539   3.608   5.041   4.435  1.0739 -0.4154 -0.6426
  619SOL     OW 2540   0.783   4.430   0.631 -0.2922  0.1298  0.3443
  619SOL    HW1 2541   0.719   4.360   0.643 -2.9220  2.4705  1.0459
  619SOL    HW2 2542   0.825   4.439   0.717 -1.0833  0.3796  0.7217
  620SOL     OW 2543   2.256   5.661   4.000 -0.0187 -0.1484  0.0910
  620SOL    HW1 2544   2.235   5.742   3.954 -0.9285 -0.3480  0.1347
  620SOL    HW2 2545   2.174   5.611   3.998  0.5051 -1.0196  0.1519
  621SOL     OW 2546   3.995   2.343   3.448  1.0177 -0.0554 -0.0090
  621SOL    HW1 2547   3.941   2.378   3.377 -0.1217 -1.6596 -0.0045
  621SOL    HW2 2548   3.996   2.249   3.432  2.6879 -0.2092  0.8119
  622SOL     OW 2549   2.342   1.670   4.927  0.0228 -0.0340 -0.7853
  622SOL    HW1 2550   2.396   1.708   4.858 -1.0659  3.3848  0.0506
  622SOL    HW2 2551   2.253   1.673   4.894 -0.4290  1.0041  0.4187
  623SOL     OW 2552   5.774   4.466   3.095 -0.2728 -0.2563 -0.3638
  623SOL    HW1 2553   5.838   4.397   3.081 -0.0736 -0.2135  0.2977
  623SOL    HW2 2554   5.792   4.530   3.027  0.8834  0.1146  0.2706
  624SOL     OW 2555   2.925   3.933   5.944 -0.2680 -0.6554  0.0203
  624SOL    HW1 2556   2.945   3.883   6.023 -0.2811 -2.2352 -0.9412
  624SOL    HW2 2557   3.009   3.968   5.915 -0.2542 -0.1318  0.6875
  625SOL     OW 2558   3.917   3.123   0.306 -0.6689  0.1630  0.3319
  625SOL    HW1 2559   3.900   3.144   0.214 -0.2439 -0.0563  0.2005
  625SOL    HW2 2560   3.900   3.029   0.312  2.6963 -0.6302 -0.3681
  626SOL     OW 2561   4.715   2.820   2.675 -0.0263  0.2349  0.4800
  626SOL    HW1 2562   4.692   2.912   2.661  0.0562  0.0221 -1.2883
  626SOL    HW2 2563   4.679   2.774   2.599  2.6295 -0.7165 -0.3129
  627SOL     OW 2564   1.146   3.058   4.731 -0.3508  0.2616 -0.1505
  627SOL    HW1 2565   1.225   3.024   4.774  0.4732  0.2577 -1.6154
  627SOL    HW2 2566   1.082   3.064   4.801  1.0624  0.6423  1.1755
  628SOL     OW 2567   0.305   0.980   0.157 -0.3936 -0.2216 -0.1554
  628SOL    HW1 2568   0.225   0.983   0.210 -0.5254 -1.6355 -0.2234
  628SOL    HW2 2569   0.372   0.949   0.218  0.1298  0.9774 -0.0942
  629SOL     OW 2570   3.103   0.813   1.561 -0.4927  0.1133  0.5598
  629SOL    HW1 2571   3.134   0.772   1.642  1.0414  2.2480  1.1462
  629SOL    HW2 2572   3.010   0.789   1.556 -0.1610 -1.6661  1.9008
  630SOL     OW 2573   0.668   2.192   1.947  0.6627  0.0127 -0.1728
  630SOL    HW1 2574   0.701   2.211   1.859 -0.5485 -0.4248 -0.7473
  630SOL    HW2 2575   0.670   2.277   1.992  0.4510  0.4238 -0.9197
  631SOL     OW 2576   4.197   3.636   4.809  0.4260  0.6916 -0.0841
  631SOL    HW1 2577   4.286   3.664   4.787  0.8440 -1.1528 -0.9373
  631SOL    HW2 2578   4.182   3.559   4.754 -0.9682 -0.2015  1.4437
  632SOL     OW 2579   2.860   1.842   1.685  0.1996  0.4628  0.0473
  632SOL    HW1 2580   2.883   1.752   1.709 -0.4667  0.2305 -0.1511
  632SOL    HW2 2581   2.935   1.875   1.637  0.7920  0.2958  0.8385
  633SOL     OW 2582   0.060   5.477   5.732  0.2187  0.1264  0.6281
  633SOL    HW1 2583   0.133   5.461   5.791  0.0821 -0.5828  0.6156
  633SOL    HW2 2584  -0.010   5.421   5.764  0.0047  0.0524  0.0566
  634SOL     OW 2585   2.015   5.737   3.272  0.6713  0.1754  0.5244
  634SOL    HW1 2586   1.937   5.733   3.216  2.6206 -0.5622 -2.3558
  634SOL    HW2 2587   2.011   5.824   3.312 -0.2974  1.2209 -1.6682
  635SOL     OW 2588   6.334   4.453   0.299 -0.1113  0.0647 -0.2430
  635SOL    HW1 2589   6.258   4.511   0.298  0.3472  0.6693 -0.6153
  635SOL    HW2 2590   6.397   4.495   0.241 -0.3055 -1.5698 -1.7298
  636SOL     OW 2591   0.900   5.581   1.149  0.1845  0.0772  0.1222
  636SOL    HW1 2592   0.856   5.543   1.225 -0.3304  0.2552 -0.0806
  636SOL    HW2 2593   0.941   5.506   1.105  0.3300 -0.0502  0.4697
  637SOL     OW 2594   2.673   1.669   3.106 -0.3711  0.2951 -0.2266
  637SOL    HW1 2595   2.728   1.733   3.062  0.0136 -0.7338 -1.2894
  637SOL    HW2 2596   2.587   1.712   3.111 -0.1610  0.8430 -1.0443
  638SOL     OW 2597   3.534   0.630   3.918 -0.0006 -0.4995 -0.0357
  638SOL    HW1 2598   3.582   0.551   3.944 -1.8562 -1.6240  0.1645
  638SOL    HW2 2599   3.584   0.702   3.955  0.0737 -1.7561  2.5429
  639SOL     OW 2600   0.141   2.768   6.350 -0.3664  0.0231 -0.2146
  639SOL    HW1 2601   0.209   2.792   6.413  0.1184  0.7842 -1.0139
  639SOL    HW2 2602   0.074   2.836   6.361 -1.0768 -0.7904  0.6560
  640SOL     OW 2603   3.181   5.038   5.544 -0.0293 -0.1770 -0.1918
  640SOL    HW1 2604   3.230   5.103   5.594 -1.8842 -0.3179  1.9485
  640SOL    HW2 2605   3.182   5.072   5.454  0.2827  2.0718  0.5822
  641SOL     OW 2606   5.111   2.836   0.437  0.1856  0.4634 -0.0230
  641SOL    HW1 2607   5.016   2.837   0.438  0.1839  0.6079  1.2546
  641SOL    HW2 2608   5.137   2.928   0.433  0.2621  0.4581  0.2979
  642SOL     OW 2609   1.298   4.847   4.389  0.5742 -0.1755  0.1915
  642SOL    HW1 2610   1.268   4.931   4.424 -0.9876 -0.4517 -0.3930
  642SOL    HW2 2611   1.382   4.831   4.432 -1.1630 -0.5218  3.8483
  643SOL     OW 2612   5.253   5.120   1.048 -0.0162 -0.0506 -0.0885
  643SOL    HW1 2613   5.321   5.187   1.041 -1.9073  2.7360  4.2223
  643SOL    HW2 2614   5.180   5.154   0.997  0.1146 -0.5795 -0.6457
  644SOL     OW 2615   4.171   1.484   4.791  0.0960 -0.1374  0.6175
  644SOL    HW1 2616   4.136   1.564   4.751 -1.1153 -1.1817 -0.5055
  644SOL    HW2 2617   4.226   1.445   4.723 -0.7321 -1.1435  0.5061
  645SOL     OW 2618   0.681   0.123   1.485 -0.4996  0.2035 -0.1398
  645SOL    HW1 2619   0.729   0.203   1.465  0.0111  0.0235  0.3378
  645SOL    HW2 2620   0.589   0.148   1.480 -0.3496  0.6977 -0.4727
  646SOL     OW 2621   4.571   0.863   1.020 -0.1325  0.1719 -0.2201
  646SOL    HW1 2622   4.553   0.770   1.032  1.6722 -0.3061 -0.9965
  646SOL    HW2 2623   4.638   0.884   1.084 -0.5694  0.9745 -0.0038
  647SOL     OW 2624   2.075   4.399   4.791 -0.6576  0.2072  0.3835
  647SOL    HW1 2625   1.989   4.403   4.832 -0.8362  0.4203 -0.0086
  647SOL    HW2 2626   2.068   4.329   4.726 -0.0314 -0.9206  1.4891
  648SOL     OW 2627   4.425   2.347   3.621  0.1737  0.2767 -0.3984
  648SOL    HW1 2628   4.511   2.323   3.654 -0.5180  1.6256  2.8082
  648SOL    HW2 2629   4.380   2.263   3.610  1.2559 -0.3561 -0.1676
  649SOL     OW 2630   1.622   3.822   6.094 -0.8001  0.2399  0.1240
  649SOL    HW1 2631   1.530   3.821   6.068 -1.2090 -1.8087  1.3784
  649SOL    HW2 2632   1.669   3.788   6.018 -1.3831 -0.8878  0.2413
  650SOL     OW 2633   3.803   4.031   0.402  0.1310 -0.0452 -0.2699
  650SOL    HW1 2634   3.868   4.037   0.472  0.3863 -0.6272 -0.4524
  650SOL    HW2 2635   3.832   4.095   0.337 -0.7449  1.3486  0.6496
  651SOL     OW 2636   3.035   3.400   5.496 -0.8930 -0.2128 -0.2683
  651SOL    HW1 2637   2.972   3.423   5.563 -0.5582 -1.0561  0.3478
  651SOL    HW2 2638   2.997   3.434   5.415 -2.5021 -1.3303 -0.0354
  652SOL     OW 2639   1.530   5.207   4.253 -0.3906  0.1116 -0.5283
  652SOL    HW1 2640   1.556   5.136   4.311 -0.7023 -0.1157 -0.6657
  652SOL    HW2 2641   1.462   5.255   4.301  0.3203  0.7516 -0.1376
  653SOL     OW 2642   4.670   2.498   0.334  0.4420 -0.2376  0.3409
  653SOL    HW1 2643   4.718   2.541   0.263 -1.0930  0.8818 -0.0629
  653SOL    HW2 2644   4.583   2.482   0.298  0.2679 -1.5699  1.2883
  654SOL     OW 2645   2.090   1.636   3.813  0.0713 -0.5603 -0.1731
  654SOL    HW1 2646   2.079   1.656   3.906  0.0084  0.2159 -0.3383
  654SOL    HW2 2647   2.030   1.696   3.768 -0.1422 -1.1550 -0.6986
  655SOL     OW 2648   1.848   0.829   1.141  0.0475 -0.4647  0.5258
  655SOL    HW1 2649   1.786   0.771   1.185 -1.3039  0.1340 -0.4838
  655SOL    HW2 2650   1.838   0.913   1.186 -1.6962  0.2860 -1.0901
  656SOL     OW 2651   2.011   2.282   5.729  0.2528  0.3795  0.4577
  656SOL    HW1 2652   2.103   2.292   5.705  0.8219 -0.6086  2.0541
  656SOL    HW2 2653   1.984   2.201   5.686  0.3017  0.3687  0.4467
  657SOL     OW 2654   0.693   2.527   4.106  0.5405  0.3443 -0.0545
  657SOL    HW1 2655   0.733   2.440   4.114 -0.5162 -0.2773 -1.1663
  657SOL    HW2 2656   0.670   2.552   4.195  2.1275  0.1240  0.4463
  658SOL     OW 2657   2.741   6.235   1.255 -0.2612 -0.0660  0.5708
  658SOL    HW1 2658   2.678   6.308   1.251 -0.7136 -0.3636  1.8825
  658SOL    HW2 2659   2.760   6.216   1.163 -1.3695  0.6470  0.1630
  659SOL     OW 2660   6.471   0.436   4.663 -1.0549  0.2388 -0.1800
  659SOL    HW1 2661   6.433   0.377   4.598 -1.9422  0.4355  0.1439
  659SOL    HW2 2662   6.433   0.407   4.747 -0.4535  0.4206  0.1633
  660SOL     OW 2663   0.232   3.592   4.894 -0.1433 -0.1020 -0.5205
  660SOL    HW1 2664   0.182   3.562   4.970  0.2597 -0.8426 -0.5299
  660SOL    HW2 2665   0.166   3.619   4.830 -0.5330 -0.7412 -0.4026
  661SOL     OW 2666   4.750   2.599   2.975 -0.1228 -0.3199 -0.3474
  661SOL    HW1 2667   4.678   2.618   2.914  0.1599  1.3245 -0.1975
  661SOL    HW2 2668   4.716   2.627   3.060  0.4140 -0.2824 -0.1471
  662SOL     OW 2669   2.071   6.374   1.805  0.2017 -0.5301 -0.1690
  662SOL    HW1 2670   1.976   6.362   1.796 -0.0930  1.6224 -0.2575
  662SOL    HW2 2671   2.106   6.355   1.718  0.1125 -2.9886  0.2460
  663SOL     OW 2672   0.878   6.170   2.877 -0.3874  0.1856 -0.0143
  663SOL    HW1 2673   0.807   6.218   2.919  0.7991  1.3175  0.7922
  663SOL    HW2 2674   0.886   6.211   2.791  0.9601  1.8879  0.8591
  664SOL     OW 2675   4.733   0.856   3.406  0.5398  0.1344 -0.6902
  664SOL    HW1 2676   4.762   0.777   3.453 -1.6182 -0.9512 -1.0714
  664SOL    HW2 2677   4.780   0.927   3.448  0.0274 -0.9726  1.9691
  665SOL     OW 2678   6.171   2.954   5.683 -0.1972 -0.2422 -0.0305
  665SOL    HW1 2679   6.094   2.933   5.631 -1.2796 -0.3111  1.5291
  665SOL    HW2 2680   6.174   2.886   5.750  0.3883  0.5393  0.7722
  666SOL     OW 2681   2.388   2.319   1.293  0.1819 -0.1320  0.3924
  666SOL    HW1 2682   2.464   2.269   1.266  0.5740  1.1057 -0.8596
  666SOL    HW2 2683   2.315   2.280   1.245  0.7266  1.4351 -1.8400
  667SOL     OW 2684   0.985   4.538   3.522  0.9967  0.9496 -0.7438
  667SOL    HW1 2685   0.916   4.563   3.460 -0.6334  2.8079  1.6572
  667SOL    HW2 2686   1.033   4.619   3.538  3.1072 -0.0767 -1.4785
  668SOL     OW 2687   6.081   2.246   1.600 -0.0698 -0.0517  0.5465
  668SOL    HW1 2688   6.043   2.331   1.579  0.9761  0.0456 -1.1304
  668SOL    HW2 2689   6.031   2.184   1.547 -0.1172 -0.3485  0.9356
  669SOL     OW 2690   1.919   5.443   5.286  0.1550 -0.4562 -0.1383
  669SOL    HW1 2691   1.826   5.437   5.307 -1.2328 -1.6939 -5.2682
  669SOL    HW2 2692   1.952   5.354   5.299  0.2463 -0.3791  0.1698
  670SOL     OW 2693   3.684   0.413   5.944  0.1971 -0.5146 -0.2586
  670SOL    HW1 2694   3.763   0.441   5.898 -0.0292  2.3660  0.8979
  670SOL    HW2 2695   3.647   0.493   5.981 -1.8083 -2.1125  1.5394
  671SOL     OW 2696   0.604   1.544   1.596 -0.2068  0.0813 -0.1384
  671SOL    HW1 2697   0.526   1.527   1.544 -0.9031  2.4206 -0.0044
  671SOL    HW2 2698   0.645   1.620   1.554  1.8340 -0.8562  0.0199
  672SOL     OW 2699   2.830   4.258   2.513 -0.4553 -0.1964  0.1451
  672SOL    HW1 2700   2.737   4.275   2.499 -0.3044 -0.2080 -0.9869
  672SOL    HW2 2701   2.836   4.163   2.519 -0.3493 -0.3185 -1.3713
  673SOL     OW 2702   0.207   3.853   3.531  0.1777 -0.3103 -0.2863
  673SOL    HW1 2703   0.302   3.843   3.532  0.1862 -0.6565 -1.8914
  673SOL    HW2 2704   0.174   3.766   3.551  0.2092 -0.3650 -0.4672
  674SOL     OW 2705   1.621   5.453   2.161 -0.1741  0.4876  0.1346
  674SOL    HW1 2706   1.546   5.402   2.190 -0.5813  1.3133  0.5642
  674SOL    HW2 2707   1.684   5.446   2.233  0.2211 -0.3065 -0.2781
  675SOL     OW 2708   0.746   2.242   4.098 -0.4069 -0.1655  0.2829
  675SOL    HW1 2709   0.693   2.230   4.019 -0.5461  0.4139  0.2829
  675SOL    HW2 2710   0.685   2.225   4.170 -0.4775  0.0525  0.2756
  676SOL     OW 2711   5.424   4.855   3.671 -0.0744  0.0899 -0.4316
  676SOL    HW1 2712   5.433   4.786   3.606  1.2491  1.0331 -1.3055
  676SOL    HW2 2713   5.511   4.863   3.710 -0.4234  0.6780  0.2509
  677SOL     OW 2714   1.666   6.339   4.318  0.7428  0.5189 -0.2868
  677SOL    HW1 2715   1.748   6.341   4.368 -0.0871 -1.0623  1.2600
  677SOL    HW2 2716   1.645   6.431   4.302  1.6641  1.0378  1.2857
  678SOL     OW 2717   3.002   0.082   3.857 -0.5866 -0.4566  0.7636
  678SOL    HW1 2718   2.988   0.030   3.936 -0.4415 -1.9830 -0.1901
  678SOL    HW2 2719   3.077   0.041   3.814 -1.3626 -0.3480 -0.7356
  679SOL     OW 2720   5.623   6.503   1.444  0.4702 -0.0147 -0.8021
  679SOL    HW1 2721   5.555   6.437   1.452  1.3457 -0.9361 -0.6759
  679SOL    HW2 2722   5.604   6.566   1.514 -0.8280  0.3106 -1.4228
  680SOL     OW 2723   5.691   5.853   3.393  0.8611 -0.0355  0.4157
  680SOL    HW1 2724   5.745   5.884   3.320 -0.2445 -0.1767 -0.4711
  680SOL    HW2 2725   5.639   5.782   3.356 -2.2665  2.0942  0.3322
  681SOL     OW 2726   6.115   1.925   0.192  0.8542  0.7038 -0.2476
  681SOL    HW1 2727   6.054   1.926   0.118  1.4106 -5.9601 -1.4269
  681SOL    HW2 2728   6.060   1.935   0.269 -1.0970 -0.3039 -1.4288
  682SOL     OW 2729   1.341   0.550   2.366  0.1727 -0.3443  0.4136
  682SOL    HW1 2730   1.312   0.641   2.364  0.9630 -0.0652  1.1761
  682SOL    HW2 2731   1.282   0.508   2.429 -0.4135 -0.4488 -0.1942
  683SOL     OW 2732   0.536   0.878   0.304 -0.2431 -0.0487 -0.4233
  683SOL    HW1 2733   0.546   0.973   0.296 -1.7141  0.0969 -0.7742
  683SOL    HW2 2734   0.503   0.866   0.393 -0.6226 -0.1694 -0.5784
  684SOL     OW 2735   2.899   5.498   2.011 -0.0792 -0.5037  0.3521
  684SOL    HW1 2736   2.974   5.444   2.035  0.6405  0.8189  1.1730
  684SOL    HW2 2737   2.937   5.571   1.962 -1.1454 -1.2123 -1.6586
  685SOL     OW 2738   5.996   5.515   3.353 -0.1297  0.5618  0.1728
  685SOL    HW1 2739   6.037   5.593   3.318 -0.4712  0.6544 -0.0272
  685SOL    HW2 2740   6.061   5.478   3.413 -0.3136  1.4934  0.9743
  686SOL     OW 2741   0.902   5.490   0.531  0.2249  0.9132 -0.3341
  686SOL    HW1 2742   0.822   5.442   0.506  2.1422 -1.6991 -1.9378
  686SOL    HW2 2743   0.873   5.581   0.539 -2.6291  0.3133 -2.2674
  687SOL     OW 2744   1.062   4.030   0.428 -0.2214 -0.0692 -0.2039
  687SOL    HW1 2745   1.030   4.120   0.430 -1.1793 -0.3974 -0.1781
  687SOL    HW2 2746   1.088   4.013   0.519 -0.4231  0.0589 -0.1188
  688SOL     OW 2747   5.539   3.974   2.312  0.3917 -0.0867  0.2074
  688SOL    HW1 2748   5.491   3.958   2.393 -0.6040  0.9471 -0.1461
  688SOL    HW2 2749   5.626   3.939   2.328  0.1216 -0.1666  1.6201
  689SOL     OW 2750   4.806   1.716   1.915 -0.1152 -0.7315  0.1193
  689SOL    HW1 2751   4.808   1.751   1.826  2.1188 -0.2643  0.2776
  689SOL    HW2 2752   4.719   1.738   1.949 -0.0251  1.5734 -1.0052
  690SOL     OW 2753   0.071   5.343   2.652 -0.0253 -0.5492 -0.1488
  690SOL    HW1 2754   0.099   5.270   2.708  0.9650  0.2992  0.5099
  690SOL    HW2 2755  -0.007   5.378   2.695  0.1313 -0.5502  0.1426
  691SOL     OW 2756   4.984   0.777   2.081  0.3146 -0.1424 -0.4815
  691SOL    HW1 2757   4.993   0.858   2.131  0.1700 -0.9924  0.9549
  691SOL    HW2 2758   5.074   0.747   2.069  0.2813 -0.8557  0.8579
  692SOL     OW 2759   1.232   0.999   6.347  0.0306  0.4575  0.2292
  692SOL    HW1 2760   1.274   1.036   6.425 -1.2010 -1.1179  1.7526
  692SOL    HW2 2761   1.299   1.003   6.279  0.9018  2.6172  1.1277
  693SOL     OW 2762   1.192   4.385   3.583  0.1283 -0.0623  0.5043
  693SOL    HW1 2763   1.132   4.447   3.542 -0.6594 -1.0622  0.0836
  693SOL    HW2 2764   1.150   4.363   3.666  1.3389  1.3750  1.5484
  694SOL     OW 2765   2.329   2.007   4.320 -0.0606  0.6907 -0.3723
  694SOL    HW1 2766   2.246   2.053   4.329 -0.3108  0.0633  0.7541
  694SOL    HW2 2767   2.306   1.925   4.277  0.0059  0.6275 -0.2890
  695SOL     OW 2768   2.396   0.952   2.834 -0.0456  0.2218 -0.0097
  695SOL    HW1 2769   2.373   0.863   2.859  0.1150  0.3614  0.6496
  695SOL    HW2 2770   2.368   1.006   2.908 -2.2174  1.0224 -1.3125
  696SOL     OW 2771   3.477   5.307   2.663  0.2800 -0.3814 -0.3362
  696SOL    HW1 2772   3.525   5.232   2.697  0.3273  0.1419  0.7722
  696SOL    HW2 2773   3.400   5.315   2.720  0.7666  0.9900  0.1690
  697SOL     OW 2774   2.715   1.682   0.914 -0.0352  0.1017 -0.3081
  697SOL    HW1 2775   2.737   1.617   0.847 -0.7812  0.4151 -0.8623
  697SOL    HW2 2776   2.628   1.657   0.945 -0.5062  1.0564 -0.8128
  698SOL     OW 2777   2.519   0.917   2.275  0.4394  0.3875  0.1529
  698SOL    HW1 2778   2.598   0.967   2.299  0.5352  0.4181 -0.2234
  698SOL    HW2 2779   2.447   0.968   2.312  0.6692 -0.2976  1.5993
  699SOL     OW 2780   3.940   2.720   1.099 -0.3601  0.1347  0.0328
  699SOL    HW1 2781   4.031   2.738   1.074  0.2751 -2.7134 -0.0038
  699SOL    HW2 2782   3.946   2.656   1.169 -2.3515  0.1597  0.2905
  700SOL     OW 2783   2.169   6.075   4.209  0.0377 -0.3279  0.0191
  700SOL    HW1 2784   2.259   6.093   4.183  0.5311 -1.4921  0.8682
  700SOL    HW2 2785   2.137   6.159   4.242  1.6842 -0.4708  2.1755
  701SOL     OW 2786   1.504   6.219   1.516  0.3543 -0.2141 -0.2701
  701SOL    HW1 2787   1.498   6.291   1.579  1.3354 -1.6077  1.5343
  701SOL    HW2 2788   1.591   6.182   1.530 -0.4193 -2.2858 -0.4945
  702SOL     OW 2789   4.853   3.681   1.726 -0.0187 -0.6113 -0.0745
  702SOL    HW1 2790   4.849   3.702   1.819 -0.9470 -2.1897  0.2815
  702SOL    HW2 2791   4.945   3.693   1.703  0.3347 -0.7069  1.1880
  703SOL     OW 2792   3.657   4.268   6.157 -0.1015  0.0540  0.4770
  703SOL    HW1 2793   3.575   4.262   6.109 -1.0683 -0.9571  2.1591
  703SOL    HW2 2794   3.635   4.243   6.247  1.6448  1.7359  1.4555
  704SOL     OW 2795   0.169   0.400   0.869  0.1684  0.0982  0.5672
  704SOL    HW1 2796   0.159   0.397   0.964  0.2297  0.9429  0.5994
  704SOL    HW2 2797   0.184   0.492   0.848  2.3856 -0.3464 -0.0534
  705SOL     OW 2798   4.170   4.848   2.138  0.1502 -0.0913 -0.1039
  705SOL    HW1 2799   4.157   4.774   2.198  0.8228 -2.5528 -2.7932
  705SOL    HW2 2800   4.084   4.890   2.134 -0.3803 -0.9711  1.1302
  706SOL     OW 2801   3.915   0.910   5.605 -0.4165 -0.0153 -0.5216
  706SOL    HW1 2802   3.854   0.971   5.646  0.4941  1.7883 -1.7112
  706SOL    HW2 2803   3.994   0.962   5.589  0.3146 -1.4296 -1.8312
  707SOL     OW 2804   0.559   2.680   1.802  0.2142  0.1256 -0.4036
  707SOL    HW1 2805   0.653   2.695   1.793 -0.1484  3.8808  0.2836
  707SOL    HW2 2806   0.521   2.720   1.724 -0.8774  0.6424  0.3613
  708SOL     OW 2807   3.430   3.531   1.030  0.3818  0.0175  0.0881
  708SOL    HW1 2808   3.350   3.485   1.056 -0.1439  0.5110 -0.6123
  708SOL    HW2 2809   3.400   3.618   1.002  0.6034 -0.9593 -3.7796
  709SOL     OW 2810   3.469   2.762   1.544  0.0665  0.8370  0.4271
  709SOL    HW1 2811   3.549   2.746   1.595  0.8425  1.3610 -0.5750
  709SOL    HW2 2812   3.443   2.851   1.567 -0.1538  0.7150  0.6519
  710SOL     OW 2813   2.600   3.832   2.010 -0.3495 -0.2731  0.2255
  710SOL    HW1 2814   2.666   3.766   1.991 -1.9790 -2.4203  1.5159
  710SOL    HW2 2815   2.576   3.868   1.924  1.0819 -0.8472 -0.4431
  711SOL     OW 2816   2.310   1.888   1.043  0.4712  0.0694 -0.1888
  711SOL    HW1 2817   2.278   1.970   1.080  0.4584 -0.8611  2.0120
  711SOL    HW2 2818   2.405   1.902   1.033  0.7047 -0.0846  1.5239
  712SOL     OW 2819   4.545   5.992   5.481  0.0611  0.5556  0.5956
  712SOL    HW1 2820   4.579   5.903   5.493  0.6710  0.7226  0.1616
  712SOL    HW2 2821   4.543   6.029   5.569 -1.9112 -0.4780  1.0343
  713SOL     OW 2822   6.128   0.253   5.060  0.1144 -0.5327  0.7149
  713SOL    HW1 2823   6.058   0.202   5.100 -0.7940 -0.1457 -0.3264
  713SOL    HW2 2824   6.091   0.341   5.049  0.4679 -0.5149 -0.5440
  714SOL     OW 2825   1.782   4.734   4.668  0.4661  0.2448 -0.0153
  714SOL    HW1 2826   1.861   4.724   4.613  0.5423 -0.6715  0.2539
  714SOL    HW2 2827   1.814   4.777   4.747 -0.1024  4.3398 -1.7557
  715SOL     OW 2828   5.582   5.809   1.524 -0.4467  1.0927 -0.9154
  715SOL    HW1 2829   5.542   5.732   1.483  1.2110  0.4189 -1.3791
  715SOL    HW2 2830   5.650   5.836   1.462  0.7188  1.3326  0.4180
  716SOL     OW 2831   4.060   4.229   3.162 -0.6940 -0.2027  0.2172
  716SOL    HW1 2832   3.981   4.253   3.113 -0.5300 -0.1853 -0.0411
  716SOL    HW2 2833   4.109   4.310   3.171 -0.2589 -0.3883 -0.4402
  717SOL     OW 2834   4.676   4.453   0.350 -0.4108  0.1321 -0.3959
  717SOL    HW1 2835   4.650   4.533   0.396  1.1012  1.1443 -1.2205
  717SOL    HW2 2836   4.740   4.482   0.285 -0.4000 -1.6516 -1.2570
  718SOL     OW 2837   2.392   5.156   5.791 -0.1044 -0.2854 -1.0488
  718SOL    HW1 2838   2.366   5.067   5.814 -0.4098 -0.5934 -2.4970
  718SOL    HW2 2839   2.477   5.146   5.748  2.3834  0.6379  3.0576
  719SOL     OW 2840   4.268   3.479   4.048 -0.0929  0.4137 -0.0989
  719SOL    HW1 2841   4.269   3.524   3.963 -1.1171  0.6317 -0.0037
  719SOL    HW2 2842   4.286   3.388   4.027  0.6354  0.6250 -0.4399
  720SOL     OW 2843   1.084   5.797   3.939  0.3167  0.1032  0.1616
  720SOL    HW1 2844   1.173   5.788   3.903 -0.2421 -0.9324 -1.0400
  720SOL    HW2 2845   1.071   5.717   3.989 -0.5055 -0.5276 -1.0141
  721SOL     OW 2846   6.321   0.670   0.858  0.2442 -0.1419 -0.1709
  721SOL    HW1 2847   6.362   0.747   0.898 -1.0163  0.2820  0.3734
  721SOL    HW2 2848   6.393   0.622   0.819  1.6055 -0.6307  2.6759
  722SOL     OW 2849   4.637   5.281   3.659 -0.3637  0.3394 -0.3345
  722SOL    HW1 2850   4.611   5.196   3.623 -0.1699  0.3611 -0.5273
  722SOL    HW2 2851   4.733   5.281   3.656 -0.2320 -0.4139  1.9050
  723SOL     OW 2852   3.179   4.071   5.905  0.0588 -0.0404  0.1948
  723SOL    HW1 2853   3.235   4.009   5.952  0.0988 -0.1689 -0.0180
  723SOL    HW2 2854   3.221   4.156   5.917  1.1225 -0.3444 -1.1954
  724SOL     OW 2855   2.365   0.817   0.694 -0.5109 -0.3163 -0.5581
  724SOL    HW1 2856   2.327   0.729   0.696  1.0157 -1.0246 -0.3932
  724SOL    HW2 2857   2.294   0.875   0.668 -1.6803 -1.5388 -0.1529
  725SOL     OW 2858   6.057   3.958   4.567  0.7783 -0.1781 -0.0048
  725SOL    HW1 2859   6.033   3.866   4.575  1.3285 -0.2562  0.8745
  725SOL    HW2 2860   6.073   3.986   4.657 -0.3874  1.0560 -0.1530
  726SOL     OW 2861   0.118   1.731   6.135  0.0603 -0.2725  0.6387
  726SOL    HW1 2862   0.190   1.793   6.128  1.7610 -1.9598  1.8982
  726SOL    HW2 2863   0.157   1.646   6.113 -2.1673 -0.9610 -1.0303
  727SOL     OW 2864   6.209   3.060   3.850 -0.1108 -0.2690 -0.1279
  727SOL    HW1 2865   6.253   3.088   3.769  0.9589 -0.8277  0.2449
  727SOL    HW2 2866   6.137   3.122   3.860 -1.1203 -0.9855 -2.2380
  728SOL     OW 2867   5.880   5.644   1.530  0.3709  0.0847 -0.0608
  728SOL    HW1 2868   5.924   5.628   1.447  1.6084 -0.8103  0.7317
  728SOL    HW2 2869   5.817   5.572   1.538  0.1198  0.2751 -0.2954
  729SOL     OW 2870   0.468   0.416   4.538 -0.3086 -0.0791  0.1005
  729SOL    HW1 2871   0.508   0.332   4.559  2.6064  1.3056  0.5586
  729SOL    HW2 2872   0.378   0.394   4.512  0.4584 -3.3296 -0.2073
  730SOL     OW 2873   4.745   6.173   1.736  0.7905  0.0790  0.3844
  730SOL    HW1 2874   4.790   6.255   1.758  1.8812 -0.4323  0.0992
  730SOL    HW2 2875   4.660   6.201   1.703  1.2043  1.1108  0.1577
  731SOL     OW 2876   5.379   3.568   1.751  0.5608  0.6104  0.4870
  731SOL    HW1 2877   5.291   3.554   1.718 -0.1929  0.9916  2.2240
  731SOL    HW2 2878   5.437   3.536   1.681 -0.9395 -0.1244 -0.4599
  732SOL     OW 2879   0.566   2.597   0.583  0.0914 -0.2106 -0.1795
  732SOL    HW1 2880   0.546   2.550   0.664 -1.6842 -0.0069 -0.4670
  732SOL    HW2 2881   0.482   2.609   0.540  0.6880  1.7391 -0.9504
  733SOL     OW 2882   0.706   4.789   2.426 -0.3644  0.3703  0.4985
  733SOL    HW1 2883   0.627   4.842   2.413 -0.0536  0.8247  0.4732
  733SOL    HW2 2884   0.768   4.847   2.468 -0.1272 -0.0659  0.7614
  734SOL     OW 2885   3.377   3.474   3.273  0.8859 -0.3993 -0.4129
  734SOL    HW1 2886   3.339   3.490   3.187 -1.9178  0.9573  0.9483
  734SOL    HW2 2887   3.330   3.397   3.306  1.0580 -0.1859  0.3547
  735SOL     OW 2888   3.279   3.509   5.007 -0.1337 -0.1313  0.1267
  735SOL    HW1 2889   3.295   3.443   5.074 -1.6086 -1.1184 -0.4312
  735SOL    HW2 2890   3.335   3.482   4.933 -0.0050 -0.1999  0.2494
  736SOL     OW 2891   4.717   2.304   3.091 -0.2827 -0.2159  0.4731
  736SOL    HW1 2892   4.707   2.393   3.055  0.1861 -0.4543 -0.2773
  736SOL    HW2 2893   4.744   2.251   3.016  1.8611 -0.5266  1.3946
  737SOL     OW 2894   0.674   3.901   3.987  0.3845 -0.1890  0.2886
  737SOL    HW1 2895   0.662   3.810   3.964 -0.8850 -0.6433  2.4061
  737SOL    HW2 2896   0.587   3.940   3.976  0.2926  0.1048  1.8271
  738SOL     OW 2897   3.719   4.486   3.613 -0.6243  0.0078 -0.3114
  738SOL    HW1 2898   3.792   4.499   3.673 -0.9101 -1.6887  0.4573
  738SOL    HW2 2899   3.720   4.392   3.593 -1.8687  0.1585 -1.2284
  739SOL     OW 2900   6.052   0.802   0.974 -0.0731 -0.1271  0.3684
  739SOL    HW1 2901   6.118   0.783   0.908  0.0429  0.0076  0.4444
  739SOL    HW2 2902   6.045   0.722   1.025  1.3695  0.4416  1.5193
  740SOL     OW 2903   3.209   1.108   1.657 -0.1695  0.2597  0.1430
  740SOL    HW1 2904   3.280   1.159   1.697  0.2774 -0.3653  0.1595
  740SOL    HW2 2905   3.231   1.017   1.676 -1.3915  0.0895  0.8280
  741SOL     OW 2906   2.956   5.826   3.899 -0.1656  0.2502  0.3591
  741SOL    HW1 2907   2.896   5.751   3.897  1.4088 -1.1792  2.2286
  741SOL    HW2 2908   2.968   5.843   3.993  0.6241  1.9376 -0.0280
  742SOL     OW 2909   0.919   5.677   4.584  0.7355 -0.1163  0.5775
  742SOL    HW1 2910   0.851   5.741   4.606  1.2798  0.3424  0.9394
  742SOL    HW2 2911   0.997   5.730   4.568  1.2923 -0.7174  1.2691
  743SOL     OW 2912   2.072   5.973   0.819  0.4276  0.0372  0.1959
  743SOL    HW1 2913   2.000   5.952   0.879  0.3885  0.8415  0.4442
  743SOL    HW2 2914   2.031   6.025   0.750  0.6975  0.1413  0.1139
  744SOL     OW 2915   0.922   0.082   0.572 -0.2015 -0.4134  0.4436
  744SOL    HW1 2916   0.951   0.168   0.540 -0.2742 -0.0157  1.4117
  744SOL    HW2 2917   0.985   0.060   0.640 -1.2787 -0.2475  1.5082
  745SOL     OW 2918   4.955   1.885   5.135  0.4235  0.3626  0.3024
  745SOL    HW1 2919   5.006   1.955   5.092  0.8416  0.8169  1.4964
  745SOL    HW2 2920   4.989   1.804   5.097  1.8590  0.6726  0.8367
  746SOL     OW 2921   4.578   5.037   2.927 -0.5235  0.2997  0.1064
  746SOL    HW1 2922   4.570   5.030   2.832 -0.6031 -0.9503  0.1877
  746SOL    HW2 2923   4.652   4.980   2.949  1.0072  2.3578  0.5912
  747SOL     OW 2924   1.202   0.891   2.087 -0.2070 -0.4153  0.1443
  747SOL    HW1 2925   1.150   0.962   2.050 -1.5200 -1.1578  0.4987
  747SOL    HW2 2926   1.203   0.824   2.019 -1.4421 -1.2176  0.8963
  748SOL     OW 2927   4.431   3.457   1.714 -0.4503  0.3394 -0.4089
  748SOL    HW1 2928   4.338   3.436   1.708 -0.2256 -0.9629  0.3138
  748SOL    HW2 2929   4.467   3.431   1.629 -1.0479  2.7626 -1.4952
  749SOL     OW 2930   4.975   1.070   5.633 -0.0830 -0.0896  0.0350
  749SOL    HW1 2931   5.057   1.047   5.677 -0.8230  0.8833  2.0320
  749SOL    HW2 2932   4.993   1.057   5.540  2.2672 -0.0845  0.4403
  750SOL     OW 2933   1.687   2.184   0.710  0.1033 -0.4238  0.1220
  750SOL    HW1 2934   1.696   2.267   0.662  3.1187  0.1046  1.3993
  750SOL    HW2 2935   1.698   2.116   0.643  1.5879  0.2721 -0.3817
  751SOL     OW 2936   2.710   3.184   5.386 -0.5373 -0.7664 -0.3203
  751SOL    HW1 2937   2.686   3.093   5.404  0.3676 -0.9578 -0.0072
  751SOL    HW2 2938   2.699   3.229   5.470 -1.9696 -0.3471 -0.7122
  752SOL     OW 2939   5.330   3.621   1.311 -0.1293  0.0998 -0.2679
  752SOL    HW1 2940   5.242   3.646   1.339 -0.8337 -1.1275 -1.2908
  752SOL    HW2 2941   5.370   3.703   1.283 -0.7977  0.7357  0.5767
  753SOL     OW 2942   1.787   4.224   4.130 -0.1658 -0.0784  0.1567
  753SOL    HW1 2943   1.767   4.318   4.126  0.2819  0.0228  0.2480
  753SOL    HW2 2944   1.723   4.189   4.192  2.1138  0.8607  3.2973
  754SOL     OW 2945   4.835   3.243   5.957  0.3431  0.2925  0.1973
  754SOL    HW1 2946   4.764   3.300   5.927  1.0850  1.1297 -0.0103
  754SOL    HW2 2947   4.907   3.261   5.897  0.7805 -0.4641  0.4791
  755SOL     OW 2948   4.935   6.466   6.080  0.3349 -0.3038 -0.0930
  755SOL    HW1 2949   4.941   6.531   6.151 -1.1181 -0.6098  0.3469
  755SOL    HW2 2950   4.905   6.516   6.004 -0.2355 -0.3530  0.0966
  756SOL     OW 2951   1.970   2.862   0.670  0.1273 -0.2482 -0.3065
  756SOL    HW1 2952   1.914   2.804   0.618 -1.0392 -0.7640  1.4194
  756SOL    HW2 2953   1.925   2.946   0.668  0.6689  0.0353 -1.0120
  757SOL     OW 2954   3.417   3.981   2.877 -0.0918 -0.0225 -0.2002
  757SOL    HW1 2955   3.338   4.005   2.829 -0.0330  0.3462 -0.1168
  757SOL    HW2 2956   3.478   4.053   2.860 -0.0239  0.0482  0.3211
  758SOL     OW 2957   4.435   6.212   3.769  0.8150  0.5699  0.4646
  758SOL    HW1 2958   4.475   6.134   3.808  2.2420 -0.3725 -2.5054
  758SOL    HW2 2959   4.412   6.184   3.680  1.3887  3.5218 -0.7089
  759SOL     OW 2960   6.137   1.529   2.924 -0.4558  0.6188 -0.4999
  759SOL    HW1 2961   6.131   1.545   2.830 -0.8591 -0.3367 -0.6507
  759SOL    HW2 2962   6.047   1.513   2.952 -0.3355  0.8588  0.0502
  760SOL     OW 2963   4.379   1.584   3.103 -0.0874 -0.0863 -0.0518
  760SOL    HW1 2964   4.298   1.569   3.054 -0.1888 -0.1825  0.1440
  760SOL    HW2 2965   4.449   1.571   3.039 -0.2225 -0.1477 -0.1865
  761SOL     OW 2966   3.572   0.899   4.010 -0.7535  0.2150  0.6370
  761SOL    HW1 2967   3.587   0.985   4.049  3.5969 -0.7860  1.7082
  761SOL    HW2 2968   3.634   0.895   3.937 -2.1473 -1.4376 -0.5315
  762SOL     OW 2969   1.546   3.363   5.293 -0.3348  0.3568 -0.2006
  762SOL    HW1 2970   1.544   3.316   5.376  0.6936  2.0906  0.8628
  762SOL    HW2 2971   1.483   3.435   5.305  0.6553  1.2953 -0.4568
  763SOL     OW 2972   4.179   4.255   3.600 -0.2381 -0.0148  0.2568
  763SOL    HW1 2973   4.146   4.321   3.540  0.7407 -1.0139 -1.4392
  763SOL    HW2 2974   4.148   4.172   3.565 -0.2147 -0.5959  1.5318
  764SOL     OW 2975   0.371   0.525   1.433 -0.5103 -0.3783 -0.3424
  764SOL    HW1 2976   0.292   0.559   1.391  0.4882  0.7912 -1.3381
  764SOL    HW2 2977   0.369   0.564   1.521 -0.6895  0.2283 -0.6070
  765SOL     OW 2978   0.779   2.682   5.059  0.3066 -0.1652  0.7068
  765SOL    HW1 2979   0.857   2.637   5.092  0.3334 -1.8184 -1.4067
  765SOL    HW2 2980   0.811   2.732   4.983 -0.1334  1.8424  1.7692
  766SOL     OW 2981   0.690   4.091   3.377 -0.4090 -0.0742 -0.0975
  766SOL    HW1 2982   0.671   4.036   3.453  0.5449 -1.0167 -0.5285
  766SOL    HW2 2983   0.755   4.153   3.408 -2.0647  1.4063  0.6189
  767SOL     OW 2984   4.673   1.262   5.874 -0.3670  0.5091 -0.0245
  767SOL    HW1 2985   4.643   1.353   5.880 -0.9689  0.2793  0.4962
  767SOL    HW2 2986   4.593   1.210   5.870 -0.0423 -0.0669  0.7360
  768SOL     OW 2987   2.934   5.241   4.915 -0.8684  0.4518  0.1995
  768SOL    HW1 2988   2.945   5.197   4.999 -1.1238 -1.0611 -0.5244
  768SOL    HW2 2989   2.892   5.176   4.859 -2.3061  1.9941 -0.6199
  769SOL     OW 2990   1.586   4.885   2.231 -0.0779 -0.1655 -0.3030
  769SOL    HW1 2991   1.575   4.851   2.142 -2.1642 -1.2127  0.2848
  769SOL    HW2 2992   1.599   4.806   2.284  0.0162  0.3648  0.4670
  770SOL     OW 2993   1.616   2.665   4.032  0.3687 -0.7223  0.0966
  770SOL    HW1 2994   1.701   2.629   4.006 -0.1560 -1.9336 -0.0190
  770SOL    HW2 2995   1.559   2.588   4.038 -0.6249  0.0351  0.5345
  771SOL     OW 2996   0.144   6.235   4.072  0.4045 -0.2215 -0.8378
  771SOL    HW1 2997   0.163   6.143   4.086  3.2936  0.5401  1.3336
  771SOL    HW2 2998   0.215   6.281   4.117 -0.4917  3.0692 -2.4627
  772SOL     OW 2999   3.358   6.105   4.343 -0.1111 -0.7008 -0.1548
  772SOL    HW1 3000   3.297   6.150   4.285 -0.6589 -1.9599 -0.5738
  772SOL    HW2 3001   3.363   6.161   4.421 -0.4230  0.3013 -0.8385
  773SOL     OW 3002   6.410   2.870   0.478 -0.3951 -0.1702  0.0212
  773SOL    HW1 3003   6.446   2.873   0.567  0.7497 -0.2636 -0.4214
  773SOL    HW2 3004   6.321   2.905   0.487  0.4145  1.8252  0.8550
  774SOL     OW 3005   4.531   6.270   3.417  1.1236 -0.6051  0.2935
  774SOL    HW1 3006   4.466   6.323   3.464  1.3006  0.1898 -0.3403
  774SOL    HW2 3007   4.500   6.180   3.428 -0.2918 -0.2254 -0.2686
  775SOL     OW 3008   5.082   2.046   5.356 -0.0169  0.3536  0.3217
  775SOL    HW1 3009   5.155   2.003   5.399 -0.1137 -0.8335 -0.6511
  775SOL    HW2 3010   5.039   1.977   5.306 -0.5437  1.4607 -0.8222
  776SOL     OW 3011   3.744   0.961   0.268  0.0833  0.1569 -0.0453
  776SOL    HW1 3012   3.662   0.916   0.290 -0.2021  1.4134  1.6850
  776SOL    HW2 3013   3.752   0.951   0.173 -1.2263 -1.3784 -0.0449
  777SOL     OW 3014   1.069   3.577   2.411  1.2063  0.7469 -0.5360
  777SOL    HW1 3015   1.077   3.559   2.317 -2.3077 -0.8688 -0.6715
  777SOL    HW2 3016   1.025   3.662   2.415 -1.4337 -0.5389 -0.5422
  778SOL     OW 3017   6.338   1.331   0.169 -0.2884 -0.3054  0.1604
  778SOL    HW1 3018   6.281   1.400   0.135 -0.9617 -0.7578  0.3301
  778SOL    HW2 3019   6.335   1.343   0.264  1.1205  0.5967  0.1212
  779SOL     OW 3020   1.549   3.601   5.532 -0.1142  0.0865 -0.7478
  779SOL    HW1 3021   1.598   3.619   5.613  1.7752 -0.4911 -1.6873
  779SOL    HW2 3022   1.529   3.507   5.537 -0.7205  0.2202 -0.5909
  780SOL     OW 3023   3.973   1.720   3.692  0.0061 -0.4826  0.0242
  780SOL    HW1 3024   3.919   1.671   3.631 -1.1804 -0.2508  0.8602
  780SOL    HW2 3025   4.045   1.660   3.715 -0.1214 -0.9477 -0.7656
  781SOL     OW 3026   1.240   4.949   4.113  0.0450  0.1249 -0.5885
  781SOL    HW1 3027   1.166   5.007   4.095  0.8964  1.8852  1.1614
  781SOL    HW2 3028   1.220   4.909   4.198 -0.3774 -2.0058 -1.6177
  782SOL     OW 3029   2.312   5.861   2.034 -0.4423 -0.5198 -0.4695
  782SOL    HW1 3030   2.287   5.906   2.114 -1.1062  0.2049 -1.0622
  782SOL    HW2 3031   2.322   5.769   2.059 -2.4332 -0.6171  0.0756
  783SOL     OW 3032   3.720   1.393   2.840 -0.2206  0.3674 -0.3157
  783SOL    HW1 3033   3.648   1.412   2.901 -0.0821  0.1180 -0.0732
  783SOL    HW2 3034   3.676   1.367   2.759 -0.4063 -0.1266 -0.0590
  784SOL     OW 3035   3.876   6.335   4.492  0.2463  0.0637 -0.0763
  784SOL    HW1 3036   3.891   6.261   4.551 -0.2034 -0.1057 -0.1709
  784SOL    HW2 3037   3.814   6.391   4.538  0.8377  0.5553  0.1369
  785SOL     OW 3038   3.849   2.203   1.746 -0.1796  0.1673 -0.0550
  785SOL    HW1 3039   3.917   2.233   1.685 -2.5015  0.5644 -2.6559
  785SOL    HW2 3040   3.823   2.282   1.793 -0.3348  0.4702 -0.6382
  786SOL     OW 3041   5.963   4.014   0.877  0.4275  0.1813 -0.1292
  786SOL    HW1 3042   5.927   3.926   0.877 -1.5318  0.9257 -1.0308
  786SOL    HW2 3043   5.986   4.031   0.969 -2.7086  0.0537  0.7693
  787SOL     OW 3044   0.388   3.389   0.489 -0.5514  0.1700 -0.7913
  787SOL    HW1 3045   0.316   3.441   0.454 -0.4715  0.7763 -0.0743
  787SOL    HW2 3046   0.349   3.340   0.562  0.3682  2.9004  1.7513
  788SOL     OW 3047   0.442   2.641   4.412 -0.5805 -0.0369 -0.1406
  788SOL    HW1 3048   0.408   2.633   4.501  0.4270 -0.4801  0.2212
  788SOL    HW2 3049   0.486   2.727   4.411 -0.2320 -0.2128 -0.0789
  789SOL     OW 3050   0.030   6.514   4.098  0.1213  0.4689 -0.5803
  789SOL    HW1 3051   0.030   6.420   4.083  1.1569  0.2162  0.7813
  789SOL    HW2 3052   0.009   6.524   4.191 -0.0634  1.5813 -0.7218
  790SOL     OW 3053   2.953   6.081   2.149  0.7632  0.4723  0.6635
  790SOL    HW1 3054   2.909   6.094   2.234  0.4246  1.8932  0.2956
  790SOL    HW2 3055   2.882   6.056   2.090  1.0657 -0.9483  0.8650
  791SOL     OW 3056   5.881   4.834   4.445  0.2049 -0.0279  0.4171
  791SOL    HW1 3057   5.916   4.839   4.356  1.5725 -1.0840  0.8631
  791SOL    HW2 3058   5.786   4.834   4.434  0.3280  1.3904 -0.9375
  792SOL     OW 3059   5.042   3.783   2.691 -0.8275 -0.3455 -0.1719
  792SOL    HW1 3060   4.978   3.770   2.620 -0.4962 -0.8234 -0.3879
  792SOL    HW2 3061   5.008   3.732   2.764 -1.5722  0.7623  0.2800
  793SOL     OW 3062   3.759   4.223   3.588  0.2317 -0.5473 -0.3908
  793SOL    HW1 3063   3.814   4.175   3.650  1.3536  1.3985  0.2389
  793SOL    HW2 3064   3.789   4.196   3.502  1.3300 -0.4788 -0.0486
  794SOL     OW 3065   1.124   6.166   6.018 -0.8246 -0.1557  0.4997
  794SOL    HW1 3066   1.093   6.254   6.037 -1.5006 -0.2973  0.1278
  794SOL    HW2 3067   1.072   6.110   6.076  0.8792 -0.1994  2.0713
  795SOL     OW 3068   2.357   4.042   0.447 -0.4535  0.6898  0.1765
  795SOL    HW1 3069   2.381   3.966   0.501 -0.7202 -0.0058 -0.6567
  795SOL    HW2 3070   2.262   4.037   0.438 -0.2661 -0.2862 -1.8529
  796SOL     OW 3071   5.679   0.547   1.549  0.4415 -0.1669  0.4368
  796SOL    HW1 3072   5.749   0.519   1.491  0.3953  0.5405  0.0277
  796SOL    HW2 3073   5.671   0.477   1.614  1.1639 -0.4957  0.1726
  797SOL     OW 3074   0.928   0.474   1.160 -0.4736  0.4614  0.5000
  797SOL    HW1 3075   0.888   0.510   1.081 -2.1522 -3.4756 -0.7052
  797SOL    HW2 3076   0.897   0.531   1.230 -1.8678  2.0538 -1.2895
  798SOL     OW 3077   4.671   3.036   2.183  0.6066  0.0102 -0.3805
  798SOL    HW1 3078   4.668   2.962   2.243  3.1785 -0.0424 -0.2086
  798SOL    HW2 3079   4.684   3.113   2.239 -0.8459  0.4742 -0.6428
  799SOL     OW 3080   0.898   3.812   4.120 -0.8430 -0.0365  0.1699
  799SOL    HW1 3081   0.885   3.719   4.102 -1.9682  0.3923 -1.6421
  799SOL    HW2 3082   0.822   3.854   4.078 -0.0793  1.7284  0.4786
  800SOL     OW 3083   5.523   5.086   4.585  0.5880  0.5379 -0.0407
  800SOL    HW1 3084   5.459   5.147   4.550 -0.7721 -1.6326 -1.6283
  800SOL    HW2 3085   5.489   5.063   4.672  1.5337  2.5117  0.9163
  801SOL     OW 3086   2.984   0.208   4.261 -0.2778 -0.0242 -0.0088
  801SOL    HW1 3087   3.026   0.259   4.192 -0.8918  0.0721 -0.3232
  801SOL    HW2 3088   3.017   0.246   4.343  0.3270 -0.0322 -0.2432
  802SOL     OW 3089   4.585   0.674   2.450  0.0449  0.0539  0.2381
  802SOL    HW1 3090   4.567   0.703   2.540 -1.6639  0.9614 -0.3461
  802SOL    HW2 3091   4.627   0.750   2.409  1.8743 -0.7526  0.5466
  803SOL     OW 3092   2.430   1.455   3.186  0.8334 -0.1344 -0.8184
  803SOL    HW1 3093   2.416   1.425   3.275 -0.6025  0.8489 -0.6775
  803SOL    HW2 3094   2.520   1.430   3.165  0.7012 -1.6705  0.3692
  804SOL     OW 3095   4.722   5.928   1.859 -0.4064 -0.3424 -0.5376
  804SOL    HW1 3096   4.712   5.873   1.782 -1.3835  2.0607 -2.2499
  804SOL    HW2 3097   4.731   6.017   1.824  0.1681  0.7344  2.0966
  805SOL     OW 3098   2.546   3.407   4.955 -0.3827 -0.3810  0.1979
  805SOL    HW1 3099   2.566   3.319   4.986 -1.8390 -0.8288 -0.0974
  805SOL    HW2 3100   2.607   3.463   5.004  1.5993 -1.6439 -0.6875
  806SOL     OW 3101   4.674   6.469   4.999  0.8538 -0.1999 -0.0630
  806SOL    HW1 3102   4.728   6.394   5.026  0.1121 -1.1929 -1.2730
  806SOL    HW2 3103   4.587   6.450   5.035  0.4818 -0.2897 -0.9971
  807SOL     OW 3104   0.574   3.071   0.508  0.5324  0.0987  0.3373
  807SOL    HW1 3105   0.544   3.014   0.437  1.3130 -1.2726  1.0548
  807SOL    HW2 3106   0.545   3.027   0.588 -1.8238  2.4724  0.9102
  808SOL     OW 3107   2.174   2.157   2.897 -0.5920  0.1078  0.7558
  808SOL    HW1 3108   2.260   2.170   2.859  0.7301  0.7673  3.6740
  808SOL    HW2 3109   2.113   2.181   2.828  1.5137 -0.7817 -1.5496
  809SOL     OW 3110   1.087   3.726   0.183  0.6805  0.2304 -0.7870
  809SOL    HW1 3111   1.154   3.754   0.246  0.3111 -0.6590  0.0132
  809SOL    HW2 3112   1.025   3.676   0.235 -1.5846  2.4879 -1.1530
  810SOL     OW 3113   4.693   3.731   6.244 -0.3170 -0.0071  0.2811
  810SOL    HW1 3114   4.631   3.795   6.280 -1.0430 -1.6272  2.1158
  810SOL    HW2 3115   4.762   3.725   6.310  1.1243  0.7258 -1.0854
  811SOL     OW 3116   0.499   5.538   5.542  0.0593  0.0626  0.2634
  811SOL    HW1 3117   0.507   5.490   5.460  0.4006 -1.8865  1.3535
  811SOL    HW2 3118   0.437   5.608   5.524 -0.4186 -0.7570 -1.4546
  812SOL     OW 3119   0.187   4.377   5.371  0.5886 -0.3357  0.2250
  812SOL    HW1 3120   0.117   4.348   5.311 -0.1611  0.0368  0.9061
  812SOL    HW2 3121   0.158   4.349   5.457  0.3078  1.5444  0.7886
  813SOL     OW 3122   1.558   3.596   3.536  0.1707 -0.2399 -0.2377
  813SOL    HW1 3123   1.492   3.539   3.576  0.4227 -1.4791 -1.5172
  813SOL    HW2 3124   1.592   3.546   3.462  1.2058  1.1407 -0.7477
  814SOL     OW 3125   4.594   6.093   2.939 -0.0717 -0.3380  0.3194
  814SOL    HW1 3126   4.667   6.154   2.952 -0.7047  0.3547  0.6379
  814SOL    HW2 3127   4.538   6.105   3.016 -0.7058 -0.6130 -0.0933
  815SOL     OW 3128   2.321   3.145   3.356 -0.1745 -0.6616 -0.7433
  815SOL    HW1 3129   2.335   3.127   3.449 -0.4495  0.9224 -0.3580
  815SOL    HW2 3130   2.408   3.147   3.318 -0.0845 -1.7512 -0.6186
  816SOL     OW 3131   0.548   3.740   1.150  0.4882  0.0389 -0.1901
  816SOL    HW1 3132   0.621   3.782   1.195 -0.4601  2.9026 -1.0971
  816SOL    HW2 3133   0.488   3.713   1.220 -0.1671  2.8420  0.4370
  817SOL     OW 3134   2.322   1.402   1.217 -0.4155 -0.2122  0.1513
  817SOL    HW1 3135   2.278   1.456   1.282  0.6446 -0.1152  0.8244
  817SOL    HW2 3136   2.275   1.319   1.218 -1.3070  0.2788 -0.0165
  818SOL     OW 3137   4.920   3.407   0.020  0.4624 -0.1224  0.0481
  818SOL    HW1 3138   4.904   3.319   0.056 -1.3336 -0.7070 -1.9314
  818SOL    HW2 3139   4.857   3.463   0.065  0.0701 -0.3153 -0.2526
  819SOL     OW 3140   1.336   2.656   5.852  0.6878 -0.2111 -0.8560
  819SOL    HW1 3141   1.409   2.607   5.889  0.9084 -1.1812 -2.5090
  819SOL    HW2 3142   1.354   2.747   5.876  1.9079 -0.5599 -0.3892
  820SOL     OW 3143   5.196   1.377   3.828 -0.5840 -0.1784 -0.1930
  820SOL    HW1 3144   5.138   1.321   3.879 -1.1124 -0.0881 -0.6780
  820SOL    HW2 3145   5.221   1.323   3.753  0.4709 -0.4362  0.3352
  821SOL     OW 3146   1.412   5.890   3.422 -0.5402 -0.4761  0.8093
  821SOL    HW1 3147   1.349   5.950   3.463  1.1482  0.4136  2.2361
  821SOL    HW2 3148   1.451   5.843   3.495  0.6369 -0.8176 -0.0133
  822SOL     OW 3149   0.562   2.667   1.173 -0.3864  0.0313  0.1924
  822SOL    HW1 3150   0.523   2.696   1.256  1.1103 -0.7969  1.2224
  822SOL    HW2 3151   0.641   2.720   1.164  0.1825 -0.8398 -0.0052
  823SOL     OW 3152   0.897   0.605   0.363  0.1275  0.3845  0.3615
  823SOL    HW1 3153   0.947   0.540   0.313 -0.2432 -0.2053  0.7598
  823SOL    HW2 3154   0.858   0.661   0.295  1.3510  0.8858  0.0429
  824SOL     OW 3155   5.051   0.226   3.614 -0.4374 -0.3070 -0.3569
  824SOL    HW1 3156   5.126   0.177   3.648 -0.6180 -1.0310 -0.9691
  824SOL    HW2 3157   4.980   0.206   3.674  0.0470  1.0424  0.7033
  825SOL     OW 3158   3.382   4.959   3.332  0.4557  0.4471 -0.0068
  825SOL    HW1 3159   3.343   4.895   3.273  1.2091  0.2709 -0.3239
  825SOL    HW2 3160   3.451   5.000   3.281  0.8037  0.6248  0.5999
  826SOL     OW 3161   4.363   3.054   3.388  0.2281 -0.5820 -0.2434
  826SOL    HW1 3162   4.287   3.049   3.446 -1.8626  1.8002 -2.5340
  826SOL    HW2 3163   4.393   3.144   3.395  1.4008 -0.8816 -1.1192
  827SOL     OW 3164   2.777   5.104   2.645  0.7281  0.0321 -0.0301
  827SOL    HW1 3165   2.860   5.069   2.678 -0.2753 -1.5710  0.9003
  827SOL    HW2 3166   2.753   5.046   2.573 -0.6036 -0.8260  1.0611
  828SOL     OW 3167   5.766   4.321   5.534  0.1934 -0.1189 -0.6136
  828SOL    HW1 3168   5.725   4.374   5.466 -1.5386  0.0422  0.4929
  828SOL    HW2 3169   5.809   4.384   5.591  0.3884 -0.1412 -0.7327
  829SOL     OW 3170   1.046   1.075   5.874 -0.0920 -0.0339  0.4646
  829SOL    HW1 3171   0.997   1.005   5.916  0.8291 -0.4932  0.7930
  829SOL    HW2 3172   0.982   1.120   5.819 -1.2086  0.2835  1.9759
  830SOL     OW 3173   1.978   0.617   1.056  0.0559  0.3576  0.0478
  830SOL    HW1 3174   1.938   0.702   1.074 -0.5534  0.2041 -0.5306
  830SOL    HW2 3175   2.073   0.635   1.055  0.0051  0.7768  1.1673
  831SOL     OW 3176   2.688   5.264   1.530 -0.3640 -0.5069  0.8208
  831SOL    HW1 3177   2.727   5.177   1.534 -0.0999 -0.5110 -1.0773
  831SOL    HW2 3178   2.718   5.308   1.609  1.3988 -1.3627  0.6586
  832SOL     OW 3179   3.243   2.144   5.487 -0.1367 -0.2288  0.3722
  832SOL    HW1 3180   3.181   2.100   5.430 -0.1425 -1.5927  1.3791
  832SOL    HW2 3181   3.191   2.214   5.528 -0.2566  0.4331 -0.8773
  833SOL     OW 3182   4.874   3.734   5.751 -0.2711  0.0867 -0.2782
  833SOL    HW1 3183   4.828   3.737   5.835  1.2136 -0.2994  0.5622
  833SOL    HW2 3184   4.829   3.800   5.698 -3.0086 -1.4921 -0.1586
  834SOL     OW 3185   6.457   5.433   5.176  0.3925 -0.1198  0.4868
  834SOL    HW1 3186   6.433   5.364   5.114  0.4261  1.3098 -1.1786
  834SOL    HW2 3187   6.553   5.427   5.183  0.2771 -1.1549  1.5087
  835SOL     OW 3188   1.345   5.399   3.162  0.5917  0.0278  0.2777
  835SOL    HW1 3189   1.366   5.392   3.255  0.2191 -1.5255  0.2689
  835SOL    HW2 3190   1.310   5.487   3.151  2.0910  0.7815  1.2989
  836SOL     OW 3191   3.451   3.382   4.830 -0.3061 -0.1466 -0.0807
  836SOL    HW1 3192   3.534   3.366   4.786 -0.4435 -0.9852 -0.0525
  836SOL    HW2 3193   3.392   3.316   4.795 -0.6886 -0.1869  0.6201
  837SOL     OW 3194   4.535   0.485   5.910 -0.0122  0.4578 -0.2288
  837SOL    HW1 3195   4.471   0.529   5.853  0.2381  1.2224  0.0715
  837SOL    HW2 3196   4.505   0.504   5.999  0.4123  0.4846 -0.0911
  838SOL     OW 3197   6.416   4.678   3.078 -0.0871  0.1277  0.0496
  838SOL    HW1 3198   6.383   4.590   3.061  1.4635 -0.1017 -2.0729
  838SOL    HW2 3199   6.396   4.728   2.999  3.3576  0.3108 -0.8535
  839SOL     OW 3200   1.925   5.040   0.865  0.5467 -0.3398  0.0471
  839SOL    HW1 3201   1.990   4.983   0.826 -0.0463 -0.2955 -1.0248
  839SOL    HW2 3202   1.853   5.042   0.802 -0.1631  0.2309  0.8513
  840SOL     OW 3203   1.189   3.400   4.881  0.1833 -0.0200  0.0643
  840SOL    HW1 3204   1.122   3.453   4.924  2.0673  1.7947  0.9913
  840SOL    HW2 3205   1.223   3.343   4.951  0.1803 -0.3137 -0.1731
  841SOL     OW 3206   2.226   4.690   2.792  0.8490  0.0640  0.0164
  841SOL    HW1 3207   2.294   4.698   2.858  0.8988  0.5486 -0.0874
  841SOL    HW2 3208   2.144   4.701   2.840  0.8776  0.2108  0.0339
  842SOL     OW 3209   0.972   1.823   5.918  0.6273 -0.7064 -0.0480
  842SOL    HW1 3210   1.002   1.735   5.894  0.1559 -1.1925  1.0946
  842SOL    HW2 3211   0.881   1.826   5.887  0.7329 -0.5084 -0.3457
  843SOL     OW 3212   1.537   2.871   2.027  0.0243  0.5205 -0.7018
  843SOL    HW1 3213   1.560   2.926   1.953  1.4968  1.3627  0.3269
  843SOL    HW2 3214   1.466   2.815   1.995 -0.1158  1.6036 -2.3894
  844SOL     OW 3215   3.479   0.759   0.320 -0.2915  0.6645 -0.0679
  844SOL    HW1 3216   3.455   0.688   0.260  2.1123  0.7693 -1.2986
  844SOL    HW2 3217   3.411   0.825   0.308 -1.5990 -0.6431 -0.2393
  845SOL     OW 3218   0.304   6.331   0.224  0.4789  0.2734  0.1744
  845SOL    HW1 3219   0.368   6.402   0.226  0.6532  0.1071  1.7096
  845SOL    HW2 3220   0.317   6.285   0.307 -2.4572  0.9735  1.1194
  846SOL     OW 3221   5.331   1.224   0.522  0.9990 -0.0995  0.5924
  846SOL    HW1 3222   5.279   1.219   0.442  2.1673 -2.4121 -0.1094
  846SOL    HW2 3223   5.329   1.317   0.546 -2.8766  0.0727  0.3013
  847SOL     OW 3224   2.261   2.092   5.289  0.4760  0.2556 -0.5522
  847SOL    HW1 3225   2.288   2.131   5.206  0.1469 -0.6066 -1.0729
  847SOL    HW2 3226   2.275   1.998   5.278 -1.2418 -0.0696 -0.2880
  848SOL     OW 3227   1.544   5.864   1.599 -0.2522 -0.6245  0.4644
  848SOL    HW1 3228   1.455   5.842   1.627  0.5171 -1.5064  2.4880
  848SOL    HW2 3229   1.567   5.941   1.651 -0.4510  0.7894 -1.4422
  849SOL     OW 3230   4.415   5.696   5.458  0.0236  0.3663  0.2415
  849SOL    HW1 3231   4.495   5.724   5.503  0.5365  0.0391 -0.4502
  849SOL    HW2 3232   4.417   5.601   5.463 -0.0712  0.3392 -0.2095
  850SOL     OW 3233   0.492   2.178   5.254  0.0750 -0.0728 -0.1121
  850SOL    HW1 3234   0.418   2.122   5.230  0.9433 -1.0335 -0.6311
  850SOL    HW2 3235   0.567   2.119   5.255  1.0731  1.1323 -0.9494
  851SOL     OW 3236   0.435   6.260   3.954 -0.0459 -0.1544 -0.2864
  851SOL    HW1 3237   0.387   6.180   3.978 -0.6000  0.4802  0.7876
  851SOL    HW2 3238   0.446   6.307   4.037  1.6025  0.1871 -0.6633
  852SOL     OW 3239   6.220   1.769   3.387 -0.1365 -0.1743 -0.5444
  852SOL    HW1 3240   6.171   1.718   3.323 -0.6871  2.3329 -2.2416
  852SOL    HW2 3241   6.165   1.770   3.465 -1.7636  0.7159 -1.6670
  853SOL     OW 3242   2.655   3.114   1.539 -0.2403  0.5711 -0.1398
  853SOL    HW1 3243   2.604   3.059   1.480 -1.2265  2.2203 -0.8899
  853SOL    HW2 3244   2.626   3.203   1.521  0.4305  1.2704  1.8791
  854SOL     OW 3245   3.620   5.757   5.022 -0.3600  0.2449 -0.0337
  854SOL    HW1 3246   3.602   5.788   4.933 -0.9865 -0.4888 -0.1679
  854SOL    HW2 3247   3.696   5.699   5.011  0.0190  0.7238  0.0258
  855SOL     OW 3248   0.654   0.605   2.985  0.0533  0.0148 -0.3272
  855SOL    HW1 3249   0.624   0.653   2.908 -3.7308 -2.0969 -0.4423
  855SOL    HW2 3250   0.694   0.526   2.950 -0.2942 -0.2410 -0.1583
  856SOL     OW 3251   1.338   2.493   3.760 -0.1327  0.7811  0.0030
  856SOL    HW1 3252   1.300   2.581   3.756 -0.4789  0.5914 -2.3460
  856SOL    HW2 3253   1.266   2.434   3.739  0.7249  0.1898 -1.4324
  857SOL     OW 3254   0.240   5.167   1.695  0.2947  0.3297  0.2033
  857SOL    HW1 3255   0.334   5.151   1.684  0.3206  0.6938 -0.1153
  857SOL    HW2 3256   0.209   5.094   1.748  0.4190 -0.7721 -1.1931
  858SOL     OW 3257   4.784   3.355   5.226 -0.8430  0.2578  0.3756
  858SOL    HW1 3258   4.728   3.420   5.185  0.4065  0.8644 -0.4521
  858SOL    HW2 3259   4.873   3.388   5.214 -0.2968 -0.5005  1.9248
  859SOL     OW 3260   0.111   2.734   5.852  0.0981  0.2304 -0.0590
  859SOL    HW1 3261   0.061   2.703   5.776  1.5812  0.3696 -1.1414
  859SOL    HW2 3262   0.147   2.655   5.891 -1.1574  0.1034  0.8961
  860SOL     OW 3263   3.302   1.942   0.223  0.5110 -0.3938 -0.7923
  860SOL    HW1 3264   3.320   2.016   0.165 -2.8944  0.8798 -0.4455
  860SOL    HW2 3265   3.357   1.957   0.300  0.5119  1.3390 -1.1050
  861SOL     OW 3266   0.549   3.453   0.105  0.4197  0.5670  0.3050
  861SOL    HW1 3267   0.560   3.361   0.082  0.2242  0.4487  0.6710
  861SOL    HW2 3268   0.456   3.462   0.125  0.4465  0.8328  0.3145
  862SOL     OW 3269   6.084   5.759   0.145 -0.1778  0.2723  0.0074
  862SOL    HW1 3270   6.115   5.842   0.107 -0.7258 -0.6083 -2.5516
  862SOL    HW2 3271   6.159   5.700   0.136 -0.7924 -0.3611 -1.1829
  863SOL     OW 3272   5.496   5.460   3.525  0.7452 -0.1423 -0.2075
  863SOL    HW1 3273   5.587   5.449   3.497  0.6145 -2.3039  0.0176
  863SOL    HW2 3274   5.480   5.554   3.521  3.1297  0.3348  0.1621
  864SOL     OW 3275   5.819   3.170   4.948 -0.1080 -0.2596 -0.5172
  864SOL    HW1 3276   5.882   3.198   5.014 -0.0456 -0.3141 -0.5536
  864SOL    HW2 3277   5.872   3.128   4.880 -0.3981 -2.4740  0.5705
  865SOL     OW 3278   5.857   2.030   0.980 -0.0976 -0.7150 -0.4146
  865SOL    HW1 3279   5.768   2.055   0.954  0.4153  0.0913 -1.4768
  865SOL    HW2 3280   5.846   1.945   1.024 -1.3259 -0.9121 -1.0431
  866SOL     OW 3281   1.207   0.885   4.964 -0.4097  0.2996  0.0767
  866SOL    HW1 3282   1.254   0.803   4.978 -0.1397  0.6634  1.5353
  866SOL    HW2 3283   1.265   0.936   4.907 -0.0925 -0.1330  0.0026
  867SOL     OW 3284   4.908   4.380   6.477  0.8791  0.1308 -0.2603
  867SOL    HW1 3285   4.904   4.418   6.565  0.3814  0.6974 -0.5165
  867SOL    HW2 3286   4.897   4.286   6.491  0.3953  0.2550  0.2548
  868SOL     OW 3287   2.455   4.056   0.867  0.4286 -0.0900  0.0801
  868SOL    HW1 3288   2.534   4.057   0.812  2.0058 -0.0119  2.2501
  868SOL    HW2 3289   2.387   4.093   0.810  2.5746  2.5509 -1.0042
  869SOL     OW 3290   4.620   5.225   2.021 -0.1686 -0.1751  0.1949
  869SOL    HW1 3291   4.678   5.206   2.095 -0.7307  1.3376  1.0702
  869SOL    HW2 3292   4.541   5.174   2.039  0.4005 -1.2955 -0.3765
  870SOL     OW 3293   1.839   5.689   2.579 -0.1139 -0.1800  0.2784
  870SOL    HW1 3294   1.929   5.662   2.595 -0.2946  0.0664  1.8876
  870SOL    HW2 3295   1.845   5.750   2.506  1.0639  0.0726  0.5628
  871SOL     OW 3296   2.382   4.863   3.220 -0.0465 -0.1151  0.5268
  871SOL    HW1 3297   2.349   4.949   3.247  0.5244  0.8167 -1.5513
  871SOL    HW2 3298   2.460   4.849   3.274  0.9746  1.5868 -0.4369
  872SOL     OW 3299   2.178   0.746   3.185 -0.5632  0.0395 -0.3559
  872SOL    HW1 3300   2.199   0.749   3.092 -0.4365  1.5583 -0.3150
  872SOL    HW2 3301   2.251   0.698   3.224  0.8318  1.7362 -0.7332
  873SOL     OW 3302   5.013   5.554   6.002  1.0728  0.3615 -0.3308
  873SOL    HW1 3303   5.074   5.501   6.055  0.0851 -0.2514  0.2220
  873SOL    HW2 3304   4.990   5.627   6.059  0.1525 -0.2004  0.0409
  874SOL     OW 3305   1.699   1.597   3.716  0.8468  0.0765 -0.4304
  874SOL    HW1 3306   1.763   1.666   3.698  0.9632  1.2629  3.5558
  874SOL    HW2 3307   1.750   1.527   3.756 -0.0886  0.6708  1.9807
  875SOL     OW 3308   3.684   1.599   0.255 -0.1358 -0.0449 -0.0522
  875SOL    HW1 3309   3.699   1.553   0.173 -2.9514 -0.1044 -0.6603
  875SOL    HW2 3310   3.642   1.681   0.228 -1.2149 -0.1209  1.3100
  876SOL     OW 3311   0.678   4.165   2.857 -0.0673  0.0774  1.0401
  876SOL    HW1 3312   0.737   4.109   2.907 -1.3691 -1.6777  0.7090
  876SOL    HW2 3313   0.684   4.132   2.767 -1.0955  0.2437  0.8983
  877SOL     OW 3314   6.470   4.069   2.140 -0.1171  0.2108  0.6140
  877SOL    HW1 3315   6.496   4.154   2.103  0.3258 -0.3317 -0.3311
  877SOL    HW2 3316   6.493   4.077   2.233  2.5086  0.1589  0.0420
  878SOL     OW 3317   4.878   0.171   3.036 -0.2706  0.0227  0.4239
  878SOL    HW1 3318   4.822   0.211   2.969  0.7414  0.7594 -0.0010
  878SOL    HW2 3319   4.892   0.082   3.004 -4.4406 -1.6764  2.5027
  879SOL     OW 3320   1.832   2.530   5.732 -0.0897  0.3488  0.0229
  879SOL    HW1 3321   1.762   2.465   5.724  1.1919 -0.9763 -1.0406
  879SOL    HW2 3322   1.913   2.478   5.731  0.9701  1.9392 -0.4016
  880SOL     OW 3323   3.650   3.886   3.659  0.1324 -0.6076 -0.1947
  880SOL    HW1 3324   3.730   3.904   3.708 -1.2311  3.2835  0.9798
  880SOL    HW2 3325   3.680   3.865   3.570  2.4670 -0.6976  0.5732
  881SOL     OW 3326   0.611   3.976   3.613  0.4178  0.5846  0.1305
  881SOL    HW1 3327   0.530   3.927   3.628  1.0793 -0.5050  0.3290
  881SOL    HW2 3328   0.680   3.917   3.645  1.7089 -0.5443 -4.0111
  882SOL     OW 3329   2.344   1.182   5.255 -0.3694 -0.4264 -0.3910
  882SOL    HW1 3330   2.434   1.171   5.286 -0.0165  0.5553 -0.9843
  882SOL    HW2 3331   2.354   1.227   5.171 -1.5006  2.4594  0.8815
  883SOL     OW 3332   5.061   2.178   3.306 -0.3673 -0.1863  0.0941
  883SOL    HW1 3333   5.000   2.107   3.327 -0.5412 -0.3958 -1.0950
  883SOL    HW2 3334   5.102   2.151   3.224  1.3149 -0.0342  0.8288
  884SOL     OW 3335   5.793   5.552   3.080 -0.4274 -0.2770 -0.4508
  884SOL    HW1 3336   5.737   5.479   3.106  0.7404 -1.4614 -1.0991
  884SOL    HW2 3337   5.793   5.549   2.984  0.3184  0.0189 -0.4662
  885SOL     OW 3338   5.605   4.531   1.212 -0.6505  0.2416  0.3005
  885SOL    HW1 3339   5.632   4.585   1.138 -1.6927  0.4440  0.0522
  885SOL    HW2 3340   5.687   4.506   1.255 -0.1417  1.7222  0.2189
  886SOL     OW 3341   2.453   4.263   3.912 -0.4995 -0.4903 -0.5321
  886SOL    HW1 3342   2.415   4.217   3.986  2.8251 -0.7102  1.2472
  886SOL    HW2 3343   2.504   4.196   3.866  1.0764  0.5132 -0.3276
  887SOL     OW 3344   1.729   2.353   3.116 -0.5797 -0.0020 -0.1134
  887SOL    HW1 3345   1.767   2.280   3.165 -0.1125 -0.4269 -1.1008
  887SOL    HW2 3346   1.802   2.413   3.101 -0.8942  0.5213  0.4058
  888SOL     OW 3347   5.915   5.716   6.381 -0.4364  0.0430 -0.6839
  888SOL    HW1 3348   5.859   5.776   6.332  0.0826 -0.3327 -1.7751
  888SOL    HW2 3349   5.905   5.632   6.337  2.4757  0.3771 -2.2642
  889SOL     OW 3350   5.250   5.598   6.313  0.1752  0.4295  0.0638
  889SOL    HW1 3351   5.263   5.648   6.393 -2.3315 -0.6966  1.2773
  889SOL    HW2 3352   5.296   5.515   6.329  0.2692  0.4766  0.0385
  890SOL     OW 3353   5.120   2.828   1.400 -0.0187  0.5046 -0.3779
  890SOL    HW1 3354   5.158   2.913   1.376 -0.4661  1.1513  1.1187
  890SOL    HW2 3355   5.026   2.845   1.405  0.0395  0.3948  1.6680
  891SOL     OW 3356   3.072   2.149   0.842  0.0537  0.4431 -0.2959
  891SOL    HW1 3357   3.025   2.224   0.805  1.4140  1.5767  0.2141
  891SOL    HW2 3358   3.064   2.081   0.775 -0.4410  1.3260 -1.1583
  892SOL     OW 3359   3.257   6.503   0.383  0.0898 -0.7483 -0.5712
  892SOL    HW1 3360   3.344   6.510   0.343  0.0319  0.9039 -0.4786
  892SOL    HW2 3361   3.230   6.412   0.366  0.1909 -0.2792 -4.0020
  893SOL     OW 3362   0.757   0.588   4.048 -0.2118 -0.3211 -0.3837
  893SOL    HW1 3363   0.756   0.565   3.955 -0.7639 -0.5184 -0.3304
  893SOL    HW2 3364   0.734   0.681   4.050  3.3060  0.7195 -0.7036
  894SOL     OW 3365   6.031   6.129   2.430  0.4303  0.4442  0.0701
  894SOL    HW1 3366   6.006   6.217   2.401 -1.7344 -0.4678 -1.0993
  894SOL    HW2 3367   6.125   6.134   2.445  0.3098  3.0288  0.3461
  895SOL     OW 3368   4.524   4.990   1.059 -0.2125 -0.5744 -0.4301
  895SOL    HW1 3369   4.521   4.964   1.151 -5.1019  1.9258  0.4015
  895SOL    HW2 3370   4.479   4.919   1.013 -0.9995 -0.1434 -0.3269
  896SOL     OW 3371   1.377   3.190   2.355  0.0284  0.1775 -0.1620
  896SOL    HW1 3372   1.444   3.176   2.422  0.7834  0.9740 -0.7255
  896SOL    HW2 3373   1.343   3.102   2.336 -1.2299  0.0616  2.2532
  897SOL     OW 3374   5.299   0.805   2.845 -0.1227 -0.0049 -0.3310
  897SOL    HW1 3375   5.333   0.894   2.833 -0.7092  0.4151  0.9349
  897SOL    HW2 3376   5.281   0.774   2.757 -0.5653  1.4086 -0.7676
  898SOL     OW 3377   2.342   5.741   5.641 -0.2005  0.8981  0.2932
  898SOL    HW1 3378   2.356   5.753   5.734  2.0278 -3.1773  0.7357
  898SOL    HW2 3379   2.265   5.684   5.636  0.8414 -0.5334 -0.1185
  899SOL     OW 3380   5.583   0.670   6.457 -0.1612 -0.1505  0.0828
  899SOL    HW1 3381   5.632   0.744   6.493  0.0382 -0.1982 -0.0884
  899SOL    HW2 3382   5.518   0.710   6.399 -1.2589  0.0035  1.3764
  900SOL     OW 3383   5.520   3.190   5.261  0.4199 -0.3476  0.4812
  900SOL    HW1 3384   5.605   3.233   5.262 -0.0674  0.6592  0.2489
  900SOL    HW2 3385   5.509   3.162   5.170  0.8368 -1.2010  0.6806
  901SOL     OW 3386   4.664   2.293   3.759  0.4637 -0.7209  0.2310
  901SOL    HW1 3387   4.653   2.199   3.775 -0.9792 -0.6454 -0.1553
  901SOL    HW2 3388   4.655   2.332   3.846 -0.9645 -0.8118  0.1591
  902SOL     OW 3389   5.387   3.741   2.927  0.0110 -0.3578 -0.0988
  902SOL    HW1 3390   5.334   3.806   2.881 -2.0855 -1.4393  0.6709
  902SOL    HW2 3391   5.444   3.792   2.984 -0.5538  0.8493 -0.5869
  903SOL     OW 3392   0.487   0.149   4.900  0.4743  0.1962 -0.7765
  903SOL    HW1 3393   0.399   0.185   4.890 -0.4522 -1.7928 -0.1779
  903SOL    HW2 3394   0.480   0.058   4.872  1.4879 -1.0271  2.4559
  904SOL     OW 3395   1.764   2.269   1.930  0.6932 -0.3274 -0.0018
  904SOL    HW1 3396   1.700   2.318   1.980  2.1218 -0.5430  2.1409
  904SOL    HW2 3397   1.760   2.306   1.842 -1.7783  0.1700  0.2732
  905SOL     OW 3398   4.135   0.877   2.583 -0.1757  0.1118 -0.2901
  905SOL    HW1 3399   4.104   0.957   2.625 -0.9294 -0.7592  0.8588
  905SOL    HW2 3400   4.148   0.815   2.654 -0.7501 -1.1767 -1.2560
  906SOL     OW 3401   3.680   5.467   2.812 -0.2624  0.0757 -0.3647
  906SOL    HW1 3402   3.650   5.453   2.722  0.5002 -0.1818 -0.5843
  906SOL    HW2 3403   3.761   5.416   2.819 -0.5164 -0.2240  0.5860
  907SOL     OW 3404   5.030   1.298   4.971  0.2199  1.0187  0.1949
  907SOL    HW1 3405   5.044   1.359   4.899 -1.1592 -0.3722 -1.3642
  907SOL    HW2 3406   4.934   1.293   4.979  0.3164 -0.2718  0.8336
  908SOL     OW 3407   2.143   3.083   1.235  0.2515  0.6393  0.0240
  908SOL    HW1 3408   2.197   3.134   1.175  0.7824 -1.0569 -1.0293
  908SOL    HW2 3409   2.109   3.011   1.181 -2.5324  1.2372  0.8147
  909SOL     OW 3410   5.570   1.416   2.740 -0.1597  0.1130 -0.1205
  909SOL    HW1 3411   5.564   1.510   2.725 -0.3624  0.1157 -0.0345
  909SOL    HW2 3412   5.503   1.399   2.806  0.9512  0.1723  1.0702
  910SOL     OW 3413   3.713   0.823   1.486 -0.2945  0.3784  0.6679
  910SOL    HW1 3414   3.632   0.864   1.457 -1.5388 -1.0676  1.9386
  910SOL    HW2 3415   3.756   0.890   1.539 -0.9749  0.9354  0.5322
  911SOL     OW 3416   4.440   6.042   3.509 -0.5543 -0.0898  0.2085
  911SOL    HW1 3417   4.428   6.016   3.417  1.5493 -0.3719 -0.0335
  911SOL    HW2 3418   4.486   5.968   3.549 -0.9869  0.2563  1.3804
  912SOL     OW 3419   2.811   4.338   4.124  0.2658 -0.1656 -0.4016
  912SOL    HW1 3420   2.877   4.370   4.186  1.7565 -1.0293 -1.4905
  912SOL    HW2 3421   2.859   4.279   4.066 -1.0311  0.6876 -2.4639
  913SOL     OW 3422   5.307   3.914   4.214  0.4226 -0.5510 -0.1212
  913SOL    HW1 3423   5.317   3.827   4.255  1.4674 -0.1507  0.5386
  913SOL    HW2 3424   5.350   3.905   4.129  0.8882 -0.5759  0.1132
  914SOL     OW 3425   4.899   2.906   6.298 -0.0286  0.1430  0.3792
  914SOL    HW1 3426   4.994   2.910   6.287  0.0924 -0.0574  1.2134
  914SOL    HW2 3427   4.866   2.983   6.254  0.5465  0.3481  0.2940
  915SOL     OW 3428   6.117   3.401   4.236 -0.2699  0.5770 -0.5122
  915SOL    HW1 3429   6.154   3.318   4.207  1.6732  0.8969  0.8704
  915SOL    HW2 3430   6.092   3.386   4.327 -2.2527  0.8192 -0.9730
  916SOL     OW 3431   1.004   5.495   4.394 -0.6201 -0.0111  0.4382
  916SOL    HW1 3432   0.973   5.536   4.474 -0.7164 -1.4240  1.1474
  916SOL    HW2 3433   0.927   5.456   4.355 -0.4690  0.1694 -0.0557
  917SOL     OW 3434   0.109   2.990   5.129 -0.2886 -0.6323 -0.2037
  917SOL    HW1 3435   0.156   2.909   5.108 -1.9314 -1.6056 -0.2758
  917SOL    HW2 3436   0.059   2.969   5.209 -0.9694  0.2053 -0.3923
  918SOL     OW 3437   4.359   0.626   5.751 -0.0716 -0.2788 -0.0416
  918SOL    HW1 3438   4.321   0.598   5.667 -1.1679  0.7682  0.0833
  918SOL    HW2 3439   4.287   0.620   5.813  0.1332  1.0473  0.3562
  919SOL     OW 3440   4.221   3.659   2.057  0.2602 -0.1528  0.1113
  919SOL    HW1 3441   4.143   3.605   2.051  0.3511 -0.1380 -1.7356
  919SOL    HW2 3442   4.200   3.724   2.124 -0.3307 -1.6426  1.4282
  920SOL     OW 3443   3.120   0.593   4.284 -0.3462 -0.4893 -0.7040
  920SOL    HW1 3444   3.087   0.644   4.210 -1.0495  1.7161  0.9990
  920SOL    HW2 3445   3.196   0.547   4.250 -1.5781 -0.8396 -3.1748
  921SOL     OW 3446   3.667   3.395   4.137 -0.1156 -0.3584  0.3278
  921SOL    HW1 3447   3.654   3.334   4.210  1.5569 -2.2435 -0.8415
  921SOL    HW2 3448   3.725   3.462   4.173  1.4033 -1.7336  0.5774
  922SOL     OW 3449   5.900   2.091   6.221  0.5808  0.2422  0.3341
  922SOL    HW1 3450   5.963   2.160   6.241  0.8667  0.3582 -0.8915
  922SOL    HW2 3451   5.815   2.131   6.239  0.7981  0.4425  0.9494
  923SOL     OW 3452   3.643   1.868   5.113  0.1556 -0.4789 -0.6682
  923SOL    HW1 3453   3.589   1.793   5.088 -1.0684  0.0438  0.2988
  923SOL    HW2 3454   3.694   1.837   5.188 -2.9238  0.5596  2.0850
  924SOL     OW 3455   0.524   0.046   5.947 -0.0667 -0.7033 -0.5997
  924SOL    HW1 3456   0.500   0.120   6.004  2.0655  0.2989 -0.8936
  924SOL    HW2 3457   0.557  -0.020   6.007  0.8548 -0.2027 -0.5371
  925SOL     OW 3458   3.089   4.154   2.979 -0.1554  0.3275  0.3357
  925SOL    HW1 3459   3.116   4.124   2.893 -1.3839 -0.1608  0.1016
  925SOL    HW2 3460   3.025   4.224   2.961 -0.4820  0.1663  0.8366
  926SOL     OW 3461   6.407   1.598   0.764 -0.3986 -0.0481  0.4307
  926SOL    HW1 3462   6.344   1.668   0.749 -1.0820 -0.8445 -0.5427
  926SOL    HW2 3463   6.471   1.607   0.692  1.7454  1.8981  2.4031
  927SOL     OW 3464   0.489   4.922   4.621 -0.4647 -0.0020  0.4163
  927SOL    HW1 3465   0.525   4.835   4.601  0.0344  0.7272 -2.1896
  927SOL    HW2 3466   0.402   4.903   4.659  0.0607 -1.6299  0.9112
  928SOL     OW 3467   1.672   4.060   0.083  0.0477  0.2588  0.0478
  928SOL    HW1 3468   1.740   4.018   0.030  0.2838  2.2255 -1.3096
  928SOL    HW2 3469   1.600   4.076   0.022 -0.5790  0.5514  0.8504
  929SOL     OW 3470   1.279   2.547   3.087  0.6054  0.6000  0.0476
  929SOL    HW1 3471   1.257   2.522   3.177  1.5027 -1.4552 -0.2560
  929SOL    HW2 3472   1.374   2.560   3.088  0.7336 -0.1895 -0.7553
  930SOL     OW 3473   1.896   3.162   0.731 -0.2969 -0.1665  0.3375
  930SOL    HW1 3474   1.966   3.177   0.795  0.5026  1.6949 -0.8936
  930SOL    HW2 3475   1.816   3.193   0.775 -0.0880 -0.7019  1.1163
  931SOL     OW 3476   3.909   5.828   6.356  0.4163  0.0834  0.1958
  931SOL    HW1 3477   3.984   5.799   6.303  0.5277  0.0804  0.3523
  931SOL    HW2 3478   3.895   5.918   6.329 -0.2207 -0.2511 -0.6186
  932SOL     OW 3479   4.984   1.264   0.792 -0.8835  0.1716 -0.1013
  932SOL    HW1 3480   5.026   1.348   0.777 -0.3437 -0.2065 -0.7544
  932SOL    HW2 3481   5.034   1.202   0.740 -0.3133 -0.8364  1.5666
  933SOL     OW 3482   1.103   1.595   4.158 -0.1399 -0.0844  0.1016
  933SOL    HW1 3483   1.131   1.511   4.195 -1.6715 -0.2247  1.0251
  933SOL    HW2 3484   1.032   1.572   4.098 -1.1631  0.5772  1.0072
  934SOL     OW 3485   4.877   2.148   5.983 -0.4927 -0.3524 -0.1136
  934SOL    HW1 3486   4.795   2.186   6.013 -1.4474 -0.1344 -2.7756
  934SOL    HW2 3487   4.932   2.223   5.960 -0.2981 -0.5210 -0.2067
  935SOL     OW 3488   0.735   3.061   2.196 -0.3056  0.4389 -0.1042
  935SOL    HW1 3489   0.705   3.002   2.265 -0.2806 -1.0016 -1.2691
  935SOL    HW2 3490   0.677   3.137   2.203  0.7067  1.0496  2.4694
  936SOL     OW 3491   0.237   2.898   0.439 -0.0851 -0.8423  0.0438
  936SOL    HW1 3492   0.326   2.899   0.402 -0.5062  1.9093 -1.1363
  936SOL    HW2 3493   0.180   2.904   0.363 -1.1699 -0.0471  0.8885
  937SOL     OW 3494   2.915   0.364   2.522 -0.2653  0.3801 -0.0761
  937SOL    HW1 3495   2.883   0.451   2.548 -0.4445  0.2019  0.2979
  937SOL    HW2 3496   2.933   0.319   2.604 -0.4585 -0.0429 -0.2625
  938SOL     OW 3497   1.290   2.071   4.079  0.2312  0.2354 -0.1667
  938SOL    HW1 3498   1.229   2.116   4.138  2.0119  2.5928  0.0072
  938SOL    HW2 3499   1.375   2.077   4.122  0.9699 -1.2345 -1.3188
  939SOL     OW 3500   2.033   1.787   6.086  0.3691  0.2090 -0.0814
  939SOL    HW1 3501   1.952   1.838   6.094 -2.6059 -3.7003 -2.2686
  939SOL    HW2 3502   2.071   1.815   6.003 -1.3333 -1.0648 -1.3546
  940SOL     OW 3503   0.079   3.800   2.857 -0.1074 -0.3622 -0.3188
  940SOL    HW1 3504   0.101   3.839   2.941  0.5721 -0.6768 -0.3387
  940SOL    HW2 3505   0.159   3.809   2.805 -0.5731 -0.0209 -0.9912
  941SOL     OW 3506   4.312   5.469   5.142  0.6131  0.0327  0.4036
  941SOL    HW1 3507   4.273   5.450   5.227 -0.9142 -2.7637 -0.7839
  941SOL    HW2 3508   4.355   5.388   5.116  1.1594  0.8550 -1.4482
  942SOL     OW 3509   6.199   1.907   2.890  0.0278 -0.1637  0.0261
  942SOL    HW1 3510   6.129   1.887   2.951  1.9247 -1.8124  1.8248
  942SOL    HW2 3511   6.193   2.002   2.877 -1.5780 -0.0510  1.3171
  943SOL     OW 3512   4.891   2.936   1.704  0.4131 -0.0598 -0.3549
  943SOL    HW1 3513   4.839   2.954   1.782 -1.5874  1.4391 -1.9357
  943SOL    HW2 3514   4.849   2.860   1.663 -1.5643  1.9664 -2.3548
  944SOL     OW 3515   3.135   4.545   2.536 -0.1213  0.0205 -0.4343
  944SOL    HW1 3516   3.168   4.535   2.446 -1.1979 -1.5401 -0.6970
  944SOL    HW2 3517   3.213   4.550   2.590  0.5635 -1.1942 -1.2710
  945SOL     OW 3518   0.898   3.669   1.583 -0.5220  0.6425 -0.2546
  945SOL    HW1 3519   0.940   3.672   1.668  0.6058  1.5323 -0.8201
  945SOL    HW2 3520   0.876   3.577   1.570  1.7757  0.0279 -0.1809
  946SOL     OW 3521   2.182   1.574   2.441  0.1199  0.0276  0.4940
  946SOL    HW1 3522   2.088   1.575   2.460  0.5140  1.3635  2.7630
  946SOL    HW2 3523   2.220   1.521   2.511  1.0904 -0.4434 -0.3642
  947SOL     OW 3524   3.274   0.875   2.005  0.1367  0.7952 -0.0954
  947SOL    HW1 3525   3.304   0.928   1.930  1.6483  3.2231  2.0527
  947SOL    HW2 3526   3.310   0.788   1.989  1.9527  1.7090 -1.3585
  948SOL     OW 3527   6.020   4.188   5.175 -0.1839 -1.0510  0.3160
  948SOL    HW1 3528   5.946   4.137   5.144 -0.8630 -0.1034  0.3158
  948SOL    HW2 3529   6.005   4.197   5.270  0.0014 -0.9619  0.3381
  949SOL     OW 3530   5.193   5.093   5.512 -0.3025  0.3262  0.4261
  949SOL    HW1 3531   5.101   5.066   5.515 -0.6388  1.4810  0.7066
  949SOL    HW2 3532   5.201   5.161   5.578  1.8502 -2.8709  3.8582
  950SOL     OW 3533   3.433   1.784   0.572  0.3919  0.0086 -0.2740
  950SOL    HW1 3534   3.524   1.774   0.546  0.1620  0.1088 -1.1283
  950SOL    HW2 3535   3.409   1.872   0.545  0.0464 -0.0035 -0.0233
  951SOL     OW 3536   5.760   3.714   0.538 -0.1950 -0.0217  0.1231
  951SOL    HW1 3537   5.682   3.734   0.486  0.7545  1.2219 -0.8668
  951SOL    HW2 3538   5.807   3.649   0.486 -0.3482 -0.4709  0.5330
  952SOL     OW 3539   4.561   0.748   2.718  0.3713  0.3370  0.1016
  952SOL    HW1 3540   4.565   0.841   2.743 -0.9149 -0.1576  2.4157
  952SOL    HW2 3541   4.637   0.709   2.761 -1.0754 -0.2687  2.2455
  953SOL     OW 3542   1.459   4.277   3.910  0.3586 -0.4847 -0.1382
  953SOL    HW1 3543   1.397   4.220   3.865 -1.9299  1.7272 -0.0230
  953SOL    HW2 3544   1.536   4.278   3.853 -1.7688  0.8678 -3.2796
  954SOL     OW 3545   4.155   2.927   3.781 -0.0813  0.4813 -0.3305
  954SOL    HW1 3546   4.160   2.994   3.712  1.8856  0.7282 -0.0169
  954SOL    HW2 3547   4.246   2.902   3.796 -0.7342 -2.1444 -0.2796
  955SOL     OW 3548   5.856   0.107   0.885  0.0290 -0.1102 -0.3697
  955SOL    HW1 3549   5.823   0.196   0.894  0.8998  0.2110 -0.2657
  955SOL    HW2 3550   5.785   0.059   0.841 -1.0012  0.2879  0.8097
  956SOL     OW 3551   5.660   5.825   4.328 -0.6173  0.5157  0.4559
  956SOL    HW1 3552   5.755   5.832   4.323 -0.5651 -0.1719  0.4045
  956SOL    HW2 3553   5.642   5.808   4.421 -0.8080  2.1747  0.7511
  957SOL     OW 3554   0.199   6.411   1.585  0.7199 -0.9257 -0.1798
  957SOL    HW1 3555   0.143   6.481   1.619 -0.9569 -1.9621 -0.6637
  957SOL    HW2 3556   0.267   6.400   1.651 -0.5180 -0.6141  1.2036
  958SOL     OW 3557   5.764   0.809   1.861  0.1674 -0.5431 -0.0636
  958SOL    HW1 3558   5.694   0.781   1.802  1.8714  0.1503 -2.5866
  958SOL    HW2 3559   5.809   0.728   1.885 -0.4846 -0.8193  0.2673
  959SOL     OW 3560   4.760   2.246   0.737 -0.0570  0.0965 -0.4184
  959SOL    HW1 3561   4.816   2.169   0.748 -0.0297  0.2380  0.4902
  959SOL    HW2 3562   4.710   2.227   0.657 -0.2377 -0.9939 -0.0733
  960SOL     OW 3563   2.183   3.407   0.273 -0.3183  0.4292  0.4521
  960SOL    HW1 3564   2.096   3.381   0.303 -1.1713  1.0542 -1.3127
  960SOL    HW2 3565   2.169   3.487   0.223  1.3859  0.9382  0.7158
  961SOL     OW 3566   2.587   1.363   1.709 -0.2167 -0.7940  0.4816
  961SOL    HW1 3567   2.579   1.429   1.640 -2.0246 -1.3984  0.0621
  961SOL    HW2 3568   2.681   1.347   1.715  0.2267  1.4167  0.2532
  962SOL     OW 3569   5.447   1.434   1.947  0.0257  0.2377  0.1429
  962SOL    HW1 3570   5.370   1.378   1.933 -0.3408  0.5432  0.8908
  962SOL    HW2 3571   5.483   1.447   1.859 -0.3620 -0.4932 -0.1344
  963SOL     OW 3572   3.075   1.021   2.827 -0.0404  0.2560 -0.0701
  963SOL    HW1 3573   3.037   1.094   2.777 -0.5333  0.5821  0.7535
  963SOL    HW2 3574   3.088   1.057   2.915 -1.8580 -1.0959  0.8247
  964SOL     OW 3575   3.438   6.345   1.855 -0.0392  0.5930 -0.0321
  964SOL    HW1 3576   3.470   6.377   1.940 -0.4189  0.8506  0.0164
  964SOL    HW2 3577   3.451   6.251   1.859 -0.6975  0.5186  0.5968
  965SOL     OW 3578   1.977   2.635   1.173  0.0968  0.2186  0.6859
  965SOL    HW1 3579   1.997   2.708   1.116 -0.4099  1.6515  2.2603
  965SOL    HW2 3580   2.040   2.642   1.245  0.8814 -1.6791  0.2399
  966SOL     OW 3581   2.546   0.283   4.425 -0.8587 -0.0463 -0.1642
  966SOL    HW1 3582   2.517   0.365   4.464 -0.0610 -0.4576  1.3785
  966SOL    HW2 3583   2.607   0.309   4.356 -0.6981  0.6708  0.2361
  967SOL     OW 3584   5.393   6.059   5.777 -0.3197 -1.1457 -0.2643
  967SOL    HW1 3585   5.449   5.983   5.764 -0.8523 -1.7660  0.8544
  967SOL    HW2 3586   5.426   6.125   5.716  0.6889 -1.9855 -0.6520
  968SOL     OW 3587   0.283   3.707   1.510  0.3259  0.3582  0.3571
  968SOL    HW1 3588   0.313   3.794   1.486  1.6132 -0.3619 -0.7164
  968SOL    HW2 3589   0.285   3.707   1.606  0.8129  1.3307  0.3574
  969SOL     OW 3590   0.997   5.381   0.892 -0.1667  0.2981  0.1118
  969SOL    HW1 3591   0.902   5.386   0.880 -0.0585  1.4395 -0.3703
  969SOL    HW2 3592   1.013   5.288   0.911 -1.3839  0.1070  0.3303
  970SOL     OW 3593   1.801   0.210   4.521 -0.2041 -0.6321  0.1368
  970SOL    HW1 3594   1.741   0.284   4.519  0.8226  0.2647  1.0025
  970SOL    HW2 3595   1.785   0.168   4.605  0.4907 -0.2655  0.4647
  971SOL     OW 3596   4.566   1.468   3.667 -0.5301 -0.4022 -0.7172
  971SOL    HW1 3597   4.486   1.505   3.630 -1.7319  0.1893  2.2163
  971SOL    HW2 3598   4.636   1.525   3.636 -1.3457 -0.2071 -2.3296
  972SOL     OW 3599   3.928   6.447   4.782 -0.1915  0.8802 -0.4738
  972SOL    HW1 3600   3.929   6.458   4.877 -1.2604  1.4190 -0.4985
  972SOL    HW2 3601   3.882   6.364   4.768  0.3580  0.5788 -0.5141
  973SOL     OW 3602   0.449   5.850   5.738 -0.1782  0.4023 -0.3364
  973SOL    HW1 3603   0.489   5.912   5.677  0.3870  1.0887  0.7112
  973SOL    HW2 3604   0.380   5.807   5.687 -0.6076  1.9229 -1.0705
  974SOL     OW 3605   5.653   0.767   2.124 -0.0224 -0.6140  0.5007
  974SOL    HW1 3606   5.579   0.714   2.093 -0.6820  0.6096 -0.1044
  974SOL    HW2 3607   5.721   0.754   2.058 -0.5850  0.1374 -0.2595
  975SOL     OW 3608   6.154   4.989   1.760  0.0710  0.2268  0.1077
  975SOL    HW1 3609   6.095   5.012   1.688 -1.6363  1.9310  1.9242
  975SOL    HW2 3610   6.206   4.916   1.726 -0.2363  1.3216 -3.0141
  976SOL     OW 3611   0.039   5.313   3.459 -0.1851 -0.4276 -0.2092
  976SOL    HW1 3612  -0.009   5.362   3.526 -1.5815 -0.3852 -1.1954
  976SOL    HW2 3613   0.108   5.268   3.507 -1.4678 -0.8303  1.3380
  977SOL     OW 3614   1.869   4.803   0.132  0.3245  0.3105  0.0055
  977SOL    HW1 3615   1.885   4.846   0.216  0.5206 -0.5779  0.4398
  977SOL    HW2 3616   1.916   4.720   0.138 -1.7334 -0.9235  0.0306
  978SOL     OW 3617   6.098   5.039   0.277  0.2491 -0.3081  0.5170
  978SOL    HW1 3618   6.148   5.087   0.343 -0.1655  2.4225 -0.9940
  978SOL    HW2 3619   6.164   5.007   0.216  0.3661  1.1551 -0.1587
  979SOL     OW 3620   4.278   5.984   2.924 -0.0824  0.3529  0.3892
  979SOL    HW1 3621   4.241   5.916   2.980  1.1887 -0.0715  0.7443
  979SOL    HW2 3622   4.274   5.947   2.836 -1.3959  0.7253  0.2582
  980SOL     OW 3623   0.700   4.793   0.419  0.9976  0.2089  0.0883
  980SOL    HW1 3624   0.725   4.701   0.420 -2.2672 -0.8432  2.4527
  980SOL    HW2 3625   0.658   4.806   0.334  1.1342 -0.5872 -0.1065
  981SOL     OW 3626   4.707   6.373   3.819  0.2075 -0.4322 -0.6255
  981SOL    HW1 3627   4.617   6.379   3.851 -0.7489 -1.0302 -2.9914
  981SOL    HW2 3628   4.737   6.287   3.849  0.3688  0.1531  0.9727
  982SOL     OW 3629   1.805   1.514   5.383  0.4769  0.4212 -0.8249
  982SOL    HW1 3630   1.711   1.525   5.399  0.5270 -0.4454  0.1955
  982SOL    HW2 3631   1.818   1.545   5.293 -0.8066  0.4261 -1.0292
  983SOL     OW 3632   5.230   4.171   4.700  0.6098  0.6423  0.2666
  983SOL    HW1 3633   5.291   4.242   4.679  0.5208  0.9013  0.8543
  983SOL    HW2 3634   5.168   4.210   4.762  0.3090  0.1666  0.2742
  984SOL     OW 3635   3.587   4.746   4.788  0.4210  0.2099 -0.2162
  984SOL    HW1 3636   3.587   4.668   4.732 -1.4050 -0.3493  0.4947
  984SOL    HW2 3637   3.571   4.712   4.876 -3.1795  1.4984 -0.2116
  985SOL     OW 3638   4.470   0.433   3.034 -0.5899 -0.5209 -0.5843
  985SOL    HW1 3639   4.462   0.524   3.005 -0.5911 -0.2750  0.1750
  985SOL    HW2 3640   4.564   0.420   3.046 -0.7124 -0.0512  1.0634
  986SOL     OW 3641   1.775   4.492   4.188 -0.2818 -0.0130 -0.4203
  986SOL    HW1 3642   1.828   4.557   4.141  0.4912  0.4005  0.9442
  986SOL    HW2 3643   1.687   4.530   4.191 -0.2489  0.1348 -1.1686
  987SOL     OW 3644   4.132   2.589   6.353  0.3318  0.3847  0.0742
  987SOL    HW1 3645   4.174   2.509   6.323  1.1363  1.1126 -0.7906
  987SOL    HW2 3646   4.183   2.616   6.429  1.4538  1.2659 -0.9729
  988SOL     OW 3647   1.654   0.689   1.286  0.3321  0.6178 -0.2822
  988SOL    HW1 3648   1.584   0.742   1.323  0.2201  0.4082 -0.1914
  988SOL    HW2 3649   1.609   0.611   1.251  0.7329 -0.5991  1.7534
  989SOL     OW 3650   2.713   3.777   5.696 -0.0611 -0.2367 -0.0065
  989SOL    HW1 3651   2.679   3.704   5.645  0.5552 -1.5877  1.4444
  989SOL    HW2 3652   2.738   3.739   5.780  0.1059  1.6837  0.8740
  990SOL     OW 3653   6.099   5.126   4.834 -0.0850 -0.0575  0.0865
  990SOL    HW1 3654   6.134   5.215   4.826 -0.3237  0.1478  1.0894
  990SOL    HW2 3655   6.013   5.130   4.791  0.1374  0.0482 -0.3505
  991SOL     OW 3656   6.274   2.776   2.645  0.3620  0.4293  0.2296
  991SOL    HW1 3657   6.185   2.795   2.613  0.6299  2.6352  0.6190
  991SOL    HW2 3658   6.299   2.695   2.601 -1.4539  0.3177 -0.6827
  992SOL     OW 3659   3.409   0.333   5.640 -0.3587  0.2598 -0.5927
  992SOL    HW1 3660   3.361   0.263   5.597 -0.5921  0.4508 -0.6469
  992SOL    HW2 3661   3.493   0.337   5.594  0.6333 -1.5474  0.9174
  993SOL     OW 3662   3.247   0.258   3.506  0.0343  0.6716  0.5670
  993SOL    HW1 3663   3.333   0.300   3.515  0.0573  0.2406  3.3383
  993SOL    HW2 3664   3.244   0.228   3.416  0.9278  4.5845 -0.9626
  994SOL     OW 3665   1.992   2.042   3.836  0.0376  0.2484  0.3447
  994SOL    HW1 3666   2.010   2.085   3.753 -0.5078  0.5997  0.4072
  994SOL    HW2 3667   2.024   2.104   3.902  0.6370 -0.1089  0.3982
  995SOL     OW 3668   2.221   0.667   4.550 -0.0510  0.5665 -0.1129
  995SOL    HW1 3669   2.179   0.726   4.612 -0.2277 -0.1153  0.4279
  995SOL    HW2 3670   2.152   0.643   4.488  0.0623  1.0484 -0.4304
  996SOL     OW 3671   5.605   6.067   0.567 -0.0917  0.3197 -0.0757
  996SOL    HW1 3672   5.697   6.077   0.593 -0.4402  0.8775  0.9831
  996SOL    HW2 3673   5.558   6.129   0.621 -1.4676 -2.0038  1.5663
  997SOL     OW 3674   3.774   2.787   0.594 -0.3753  0.1564  0.0184
  997SOL    HW1 3675   3.769   2.873   0.637 -0.5787  0.8390 -1.3287
  997SOL    HW2 3676   3.783   2.725   0.667  2.4110  1.4914  0.9390
  998SOL     OW 3677   2.264   1.381   4.114 -0.1584 -0.2322 -0.4468
  998SOL    HW1 3678   2.308   1.352   4.195  1.0688 -2.2259 -1.7403
  998SOL    HW2 3679   2.336   1.394   4.052 -1.1750 -0.1771 -1.6353
  999SOL     OW 3680   4.933   2.478   4.669 -0.3367 -0.2221 -0.1328
  999SOL    HW1 3681   4.856   2.533   4.655 -1.6397 -1.8947  0.1561
  999SOL    HW2 3682   5.000   2.538   4.704 -0.9795  1.5666 -1.7719
 1000SOL     OW 3683   5.787   4.467   4.866  0.0178  0.5956  0.4340
 1000SOL    HW1 3684   5.807   4.426   4.781 -1.3771  1.1017 -0.1738
 1000SOL    HW2 3685   5.864   4.450   4.919  0.5329 -0.5823 -0.6254
 1001SOL     OW 3686   0.521   0.050   6.463  0.7084 -0.2588 -0.2581
 1001SOL    HW1 3687   0.576  -0.029   6.459  0.2164 -0.7964  2.0989
 1001SOL    HW2 3688   0.449   0.032   6.403 -0.3233 -2.4213  1.4849
 1002SOL     OW 3689   6.442   4.055   6.008  0.5855 -0.3272 -0.0295
 1002SOL    HW1 3690   6.463   4.039   6.100  0.0462  0.9003  0.3256
 1002SOL    HW2 3691   6.352   4.089   6.010  0.7470  0.1732 -0.9699
 1003SOL     OW 3692   3.652   5.495   6.449  0.5810  0.4450 -0.1475
 1003SOL    HW1 3693   3.616   5.444   6.522  0.1276  0.5720 -0.2833
 1003SOL    HW2 3694   3.741   5.460   6.438  0.5052  0.1369  0.1909
 1004SOL     OW 3695   0.832   0.097   6.344 -0.3209 -0.0080 -0.1603
 1004SOL    HW1 3696   0.767   0.027   6.342  0.4413 -0.7201 -1.4802
 1004SOL    HW2 3697   0.890   0.073   6.417 -0.9374  0.0885  0.3701
 1005SOL     OW 3698   2.961   0.621   1.231  0.1909  0.5082 -0.2298
 1005SOL    HW1 3699   3.011   0.592   1.154 -0.8731 -0.4506 -0.5822
 1005SOL    HW2 3700   2.882   0.567   1.230  0.2389  0.3441  1.6456
 1006SOL     OW 3701   3.278   3.198   4.447 -0.3728  0.1425  0.5452
 1006SOL    HW1 3702   3.210   3.139   4.413  0.3271 -0.4918  0.2171
 1006SOL    HW2 3703   3.266   3.195   4.542 -0.1062 -0.8581  0.5671
 1007SOL     OW 3704   2.360   5.697   4.587  0.2222  0.0264  0.6500
 1007SOL    HW1 3705   2.409   5.617   4.606  0.3962  0.1797  0.8504
 1007SOL    HW2 3706   2.340   5.692   4.493  0.4440 -0.1344  0.6121
 1008SOL     OW 3707   4.591   4.126   5.484  0.4372  0.3097 -0.3128
 1008SOL    HW1 3708   4.540   4.045   5.473  1.2413 -0.0767 -1.3801
 1008SOL    HW2 3709   4.662   4.118   5.420  0.8990  1.5772  0.0195
 1009SOL     OW 3710   5.020   6.335   4.429  0.3511  0.4345  0.2818
 1009SOL    HW1 3711   5.114   6.344   4.409 -0.0897  2.2646 -1.2555
 1009SOL    HW2 3712   4.991   6.264   4.372  0.2961  1.7377 -1.4098
 1010SOL     OW 3713   0.271   4.516   0.617  0.2335 -0.0743 -0.5583
 1010SOL    HW1 3714   0.219   4.555   0.547 -2.7736 -0.3663  1.3224
 1010SOL    HW2 3715   0.290   4.589   0.676 -0.2995 -0.3990  0.0310
 1011SOL     OW 3716   0.933   2.768   4.838  0.0640  0.2497 -0.4104
 1011SOL    HW1 3717   0.986   2.844   4.861 -0.2991  0.3972 -0.0527
 1011SOL    HW2 3718   0.989   2.717   4.779  1.6713 -0.9347  1.9524
 1012SOL     OW 3719   4.576   1.835   6.491  0.6730  0.9192 -0.2691
 1012SOL    HW1 3720   4.644   1.891   6.454  0.8251 -0.1771 -1.7007
 1012SOL    HW2 3721   4.555   1.773   6.422 -1.1308  0.6364  0.4738
 1013SOL     OW 3722   1.575   3.858   3.268  0.0789 -0.1933  0.0825
 1013SOL    HW1 3723   1.518   3.933   3.286  0.9161  0.0395  1.9987
 1013SOL    HW2 3724   1.515   3.784   3.260 -0.8700  0.7412 -2.9220
 1014SOL     OW 3725   0.502   2.518   6.321 -0.0134  0.2200  0.2679
 1014SOL    HW1 3726   0.494   2.606   6.284 -2.7881  0.2775  0.8081
 1014SOL    HW2 3727   0.482   2.460   6.248  2.0829 -0.0455 -0.1585
 1015SOL     OW 3728   2.020   4.287   4.272 -0.1392  0.5805 -0.1062
 1015SOL    HW1 3729   1.954   4.233   4.229 -1.9098  1.0314  1.8439
 1015SOL    HW2 3730   1.993   4.377   4.253 -1.3369  0.8121  2.2613
 1016SOL     OW 3731   6.435   4.779   0.461  0.5516 -0.1950  0.5154
 1016SOL    HW1 3732   6.399   4.845   0.401  1.3854 -0.4691 -0.3183
 1016SOL    HW2 3733   6.363   4.758   0.520  0.3791  1.7728  1.0889
 1017SOL     OW 3734   3.998   1.750   1.075  0.0474  0.4772  0.3461
 1017SOL    HW1 3735   4.023   1.787   0.990 -1.1767 -1.4337 -0.9185
 1017SOL    HW2 3736   4.068   1.687   1.095 -0.6110 -0.4629 -0.2236
 1018SOL     OW 3737   1.597   3.381   6.462  0.7399 -0.1272  0.0940
 1018SOL    HW1 3738   1.591   3.448   6.394 -1.2655 -0.7561 -0.4273
 1018SOL    HW2 3739   1.691   3.369   6.476  1.1552  2.1779 -0.3709
 1019SOL     OW 3740   3.850   4.665   4.492 -0.1556  0.2427  0.7278
 1019SOL    HW1 3741   3.889   4.612   4.562 -0.2749 -2.0470 -0.8215
 1019SOL    HW2 3742   3.777   4.612   4.460  0.1831  0.9642 -1.4181
 1020SOL     OW 3743   5.600   0.383   1.773  0.0392  0.0896  0.2717
 1020SOL    HW1 3744   5.658   0.402   1.847 -0.9119  2.1470  0.5617
 1020SOL    HW2 3745   5.516   0.424   1.797 -0.7651 -0.5939 -1.2479
 1021SOL     OW 3746   5.808   4.940   6.203  0.0620 -0.0359  0.1240
 1021SOL    HW1 3747   5.805   4.895   6.119 -0.0305  0.4602 -0.1449
 1021SOL    HW2 3748   5.721   4.927   6.241  0.4917 -1.3267  0.7237
 1022SOL     OW 3749   5.034   5.910   3.917 -0.1838  0.2245  0.0889
 1022SOL    HW1 3750   5.056   5.948   4.002  1.4604 -2.4695  0.9991
 1022SOL    HW2 3751   4.977   5.836   3.938  0.8337 -0.9212 -1.0244
 1023SOL     OW 3752   4.359   4.799   3.548 -0.0476  0.0472 -0.2002
 1023SOL    HW1 3753   4.382   4.776   3.459 -0.2804  1.9434 -0.7980
 1023SOL    HW2 3754   4.314   4.884   3.541 -1.1918 -0.3420  1.5855
 1024SOL     OW 3755   2.512   4.484   2.276 -0.0751 -0.3953  0.0656
 1024SOL    HW1 3756   2.494   4.556   2.336 -2.4993 -0.7846 -0.0815
 1024SOL    HW2 3757   2.457   4.502   2.199  1.2955 -1.0344 -1.1217
 1025SOL     OW 3758   3.047   5.305   1.372 -0.0309  0.6047 -0.3873
 1025SOL    HW1 3759   3.037   5.397   1.399  0.2849  0.5194  0.0449
 1025SOL    HW2 3760   3.141   5.296   1.356 -0.0064  0.2613 -0.0643
 1026SOL     OW 3761   3.402   3.071   0.000  0.0756 -0.1888 -0.3647
 1026SOL    HW1 3762   3.457   3.088   0.076 -2.2239 -0.9649  1.6252
 1026SOL    HW2 3763   3.373   3.157  -0.029  0.9686  0.1165 -0.3708
 1027SOL     OW 3764   1.610   2.539   0.793  0.0744  0.3644 -0.0878
 1027SOL    HW1 3765   1.599   2.630   0.764 -1.7021  0.6770  1.3651
 1027SOL    HW2 3766   1.651   2.495   0.719  3.6765  2.8951  0.1649
 1028SOL     OW 3767   5.805   4.553   3.339  0.2711  0.3362  0.8455
 1028SOL    HW1 3768   5.759   4.495   3.401 -0.6398  1.4837  1.2782
 1028SOL    HW2 3769   5.768   4.532   3.254  0.7976 -0.5356  0.8192
 1029SOL     OW 3770   1.821   4.710   3.946 -0.3451  0.1104 -0.3904
 1029SOL    HW1 3771   1.885   4.657   3.899 -0.7721 -0.2755 -0.5349
 1029SOL    HW2 3772   1.749   4.650   3.966  0.3316 -0.0596  1.8193
 1030SOL     OW 3773   6.406   4.778   2.818  0.5312  0.7065  0.3334
 1030SOL    HW1 3774   6.329   4.763   2.763 -0.2976  1.9686  1.0762
 1030SOL    HW2 3775   6.460   4.700   2.807 -0.1380  0.4482 -1.3733
 1031SOL     OW 3776   3.453   4.908   4.276 -0.1691 -0.4534  0.0236
 1031SOL    HW1 3777   3.447   4.863   4.192 -1.6437 -1.5068  0.6669
 1031SOL    HW2 3778   3.443   5.001   4.254 -2.7469 -0.8558 -0.7833
 1032SOL     OW 3779   3.081   1.071   5.150 -0.0397 -0.2471 -0.1773
 1032SOL    HW1 3780   3.070   1.128   5.227  0.3497  0.9176 -0.9658
 1032SOL    HW2 3781   3.149   1.009   5.177 -1.0758 -0.9166  1.0021
 1033SOL     OW 3782   5.576   1.239   5.647  0.1385 -0.3232 -0.2083
 1033SOL    HW1 3783   5.534   1.284   5.573  2.1013  0.1391 -1.0948
 1033SOL    HW2 3784   5.599   1.309   5.708 -2.4841 -0.7873  1.4977
 1034SOL     OW 3785   0.187   1.255   1.423 -0.5549  0.5206 -0.1016
 1034SOL    HW1 3786   0.245   1.322   1.387  2.2013 -0.4395  2.1432
 1034SOL    HW2 3787   0.202   1.259   1.518 -3.5400 -0.4619  0.5182
 1035SOL     OW 3788   2.238   4.485   4.371 -0.6994  0.3309 -0.1848
 1035SOL    HW1 3789   2.169   4.422   4.391 -0.9859  0.1936 -1.4959
 1035SOL    HW2 3790   2.287   4.494   4.453 -0.6352 -1.6118  0.0377
 1036SOL     OW 3791   0.443   3.003   2.552 -0.2063 -0.1737 -0.0714
 1036SOL    HW1 3792   0.369   2.953   2.518 -0.8723  1.2138 -0.7323
 1036SOL    HW2 3793   0.411   3.093   2.558  1.3892  0.4358 -0.2387
 1037SOL     OW 3794   3.945   3.830   3.653  0.5708  0.0907  0.2535
 1037SOL    HW1 3795   3.967   3.798   3.565 -0.9344 -0.8088  0.1540
 1037SOL    HW2 3796   4.003   3.904   3.667  1.7124 -0.5127 -0.9967
 1038SOL     OW 3797   0.049   6.070   3.620 -0.5061  0.2672  0.4691
 1038SOL    HW1 3798   0.131   6.105   3.585 -0.0817  0.0807  1.2537
 1038SOL    HW2 3799   0.076   5.994   3.672 -1.3429 -0.8110 -0.6054
 1039SOL     OW 3800   5.415   0.931   0.022 -0.2266 -0.6642  0.0039
 1039SOL    HW1 3801   5.406   0.906  -0.070  0.0699 -0.0011 -0.2134
 1039SOL    HW2 3802   5.510   0.936   0.035 -0.2686 -0.8752  0.3783
 1040SOL     OW 3803   4.731   3.596   1.525  0.4823  0.8656  0.6250
 1040SOL    HW1 3804   4.775   3.633   1.601 -0.9615  0.4349  1.7384
 1040SOL    HW2 3805   4.729   3.501   1.542 -0.0600  0.7872  0.1863
 1041SOL     OW 3806   2.217   2.010   5.617 -0.4928 -0.4743 -0.3942
 1041SOL    HW1 3807   2.261   2.090   5.589 -0.2903 -0.2383  0.5578
 1041SOL    HW2 3808   2.138   2.007   5.564  0.1455 -0.3546 -1.3903
 1042SOL     OW 3809   3.723   4.556   0.543 -0.8501  0.5629 -0.2407
 1042SOL    HW1 3810   3.690   4.638   0.507 -1.4616  0.3610 -0.1493
 1042SOL    HW2 3811   3.716   4.493   0.471  0.4817  0.7965 -0.5987
 1043SOL     OW 3812   0.680   0.649   5.652  0.3406 -0.0939 -0.1279
 1043SOL    HW1 3813   0.744   0.720   5.661  0.1678 -0.1140  1.5503
 1043SOL    HW2 3814   0.656   0.627   5.742 -0.8057 -1.2050 -0.6788
 1044SOL     OW 3815   1.068   0.843   4.189 -0.0693  0.2171  0.0771
 1044SOL    HW1 3816   1.136   0.778   4.175 -1.0883 -0.8909  0.0855
 1044SOL    HW2 3817   1.029   0.857   4.103  0.0082  0.6637  0.1113
 1045SOL     OW 3818   5.802   5.105   4.561  0.1833  0.7981  0.1580
 1045SOL    HW1 3819   5.832   5.017   4.540  1.8421  0.5822  2.8446
 1045SOL    HW2 3820   5.708   5.104   4.546  0.2702 -1.2094 -0.4887
 1046SOL     OW 3821   3.890   1.096   2.473  0.3594  0.2863  0.1979
 1046SOL    HW1 3822   3.799   1.116   2.449  0.7895  1.2787 -0.7019
 1046SOL    HW2 3823   3.942   1.144   2.409  1.5239 -0.9777  0.1475
 1047SOL     OW 3824   0.644   4.794   2.867 -0.1861  0.2897 -0.3513
 1047SOL    HW1 3825   0.581   4.735   2.908  0.2276  0.0639 -0.0315
 1047SOL    HW2 3826   0.695   4.739   2.808  0.1572  0.3353 -0.1005
 1048SOL     OW 3827   3.973   3.569   0.665 -0.6118 -0.2654  0.0474
 1048SOL    HW1 3828   3.937   3.618   0.592  0.4359  1.1090  0.4013
 1048SOL    HW2 3829   4.017   3.494   0.625 -1.0048 -0.1321 -0.6388
 1049SOL     OW 3830   0.074   5.587   6.092  0.5946 -0.0944  0.3510
 1049SOL    HW1 3831   0.016   5.656   6.125  0.0168  0.4766 -1.7595
 1049SOL    HW2 3832   0.017   5.511   6.083  0.8914 -0.4319  1.1726
 1050SOL     OW 3833   0.411   2.985   1.314 -0.0137  0.3298  0.2959
 1050SOL    HW1 3834   0.500   2.950   1.308 -0.0595  0.2576  0.0201
 1050SOL    HW2 3835   0.357   2.908   1.331  0.1279  0.5426  1.8867
 1051SOL     OW 3836   5.882   4.186   0.698 -0.1200 -0.0911  0.2983
 1051SOL    HW1 3837   5.908   4.124   0.765 -1.3798 -0.2956  0.6358
 1051SOL    HW2 3838   5.850   4.132   0.626  0.0535  0.1456  0.0415
 1052SOL     OW 3839   3.983   2.873   3.399  0.1471 -0.1093  0.0511
 1052SOL    HW1 3840   4.002   2.793   3.447 -0.7138 -1.6469 -2.0492
 1052SOL    HW2 3841   3.895   2.899   3.428  0.7291  0.5724  1.3035
 1053SOL     OW 3842   1.525   4.245   1.714 -0.0316 -0.3215  0.0176
 1053SOL    HW1 3843   1.616   4.273   1.724 -0.2210  1.1366 -1.8173
 1053SOL    HW2 3844   1.481   4.282   1.791  0.9073 -1.1920  1.0231
 1054SOL     OW 3845   4.934   0.367   0.989 -0.4690 -0.3642  0.0043
 1054SOL    HW1 3846   4.894   0.451   1.011 -0.7113 -0.5436  0.2582
 1054SOL    HW2 3847   4.913   0.355   0.896  0.4983  0.3605 -0.3236
 1055SOL     OW 3848   2.669   5.537   4.349  0.4011  0.2334 -0.5070
 1055SOL    HW1 3849   2.579   5.548   4.378  0.8045 -0.1019  0.9617
 1055SOL    HW2 3850   2.712   5.619   4.372  0.8662 -0.2598  0.4774
 1056SOL     OW 3851   1.454   3.745   6.410  0.0134  0.3320 -0.7140
 1056SOL    HW1 3852   1.510   3.811   6.368  1.1603 -0.8988 -1.1826
 1056SOL    HW2 3853   1.485   3.744   6.501 -0.5877  1.0185 -0.4878
 1057SOL     OW 3854   2.996   0.547   5.227 -0.2903 -0.0889  0.2678
 1057SOL    HW1 3855   3.072   0.496   5.256  1.5248  1.9961 -0.5896
 1057SOL    HW2 3856   2.965   0.500   5.150  0.3715 -0.7489  0.3838
 1058SOL     OW 3857   4.834   3.158   6.198 -0.5045  0.2978  0.3036
 1058SOL    HW1 3858   4.745   3.124   6.189 -0.5115  0.3466  0.1865
 1058SOL    HW2 3859   4.854   3.195   6.112 -0.3028  0.1223  0.2759
 1059SOL     OW 3860   5.796   1.002   3.113  0.1825 -0.0885 -0.7477
 1059SOL    HW1 3861   5.840   1.028   3.194 -1.4829 -0.2700  0.2545
 1059SOL    HW2 3862   5.714   1.050   3.114 -0.7901 -1.6658 -1.2839
 1060SOL     OW 3863   0.051   5.821   1.287  0.4760  0.1925 -0.5090
 1060SOL    HW1 3864   0.012   5.861   1.210  0.6515  0.1999 -0.5955
 1060SOL    HW2 3865   0.071   5.731   1.260  0.2775  0.1091 -0.3824
 1061SOL     OW 3866   3.422   6.054   1.229  0.5817  0.3338  0.2033
 1061SOL    HW1 3867   3.408   6.142   1.262 -1.4673  0.0383  0.2518
 1061SOL    HW2 3868   3.375   5.997   1.290  0.9404 -0.6798 -0.4360
 1062SOL     OW 3869   2.363   2.264   2.681 -0.5934  0.4184 -0.0445
 1062SOL    HW1 3870   2.286   2.267   2.623  0.0518 -0.2202 -0.9622
 1062SOL    HW2 3871   2.437   2.255   2.621  0.0771 -0.5253  0.9080
 1063SOL     OW 3872   3.084   3.803   6.141 -0.8261 -0.4203 -0.0337
 1063SOL    HW1 3873   3.046   3.745   6.207 -0.4508 -0.2274  0.3586
 1063SOL    HW2 3874   3.174   3.771   6.131 -0.6109  0.0959  0.1980
 1064SOL     OW 3875   5.510   1.654   5.506  0.0330 -0.2075  0.0016
 1064SOL    HW1 3876   5.569   1.724   5.478  1.7352 -0.9401  1.5545
 1064SOL    HW2 3877   5.436   1.699   5.547 -0.6218  0.7278 -2.0606
 1065SOL     OW 3878   3.878   1.132   3.074 -0.0689  0.3271  0.3713
 1065SOL    HW1 3879   3.874   1.076   2.997  0.8183  0.6741  0.0627
 1065SOL    HW2 3880   3.787   1.155   3.092 -0.4527 -1.1984  0.4985
 1066SOL     OW 3881   2.425   4.557   3.380  0.2727 -0.1476 -0.6298
 1066SOL    HW1 3882   2.396   4.607   3.304 -1.8892  0.6744  0.6392
 1066SOL    HW2 3883   2.467   4.621   3.437  0.8650 -0.5388 -0.6135
 1067SOL     OW 3884   0.689   4.363   6.493  0.8152  0.0019  0.3898
 1067SOL    HW1 3885   0.703   4.291   6.554 -0.7252 -2.2843 -1.7755
 1067SOL    HW2 3886   0.612   4.409   6.526 -0.1841 -1.3937  0.0842
 1068SOL     OW 3887   2.967   0.233   0.681 -1.0081 -0.2160  0.6483
 1068SOL    HW1 3888   2.919   0.189   0.611  0.1124  0.0640 -0.3498
 1068SOL    HW2 3889   3.043   0.177   0.696 -1.1509 -0.1818  1.5393
 1069SOL     OW 3890   5.163   4.130   4.434 -0.7357  0.0892  0.0883
 1069SOL    HW1 3891   5.204   4.048   4.404  0.8850  1.0532 -0.4541
 1069SOL    HW2 3892   5.193   4.140   4.524 -1.2946 -0.1055  0.3052
 1070SOL     OW 3893   6.350   4.571   0.966  0.1969 -0.5204 -0.4276
 1070SOL    HW1 3894   6.424   4.517   0.936  1.0252 -0.6252  1.6441
 1070SOL    HW2 3895   6.310   4.602   0.885  0.5977 -2.9930 -1.6907
 1071SOL     OW 3896   5.399   3.846   3.697 -0.3401  0.3659  0.2950
 1071SOL    HW1 3897   5.383   3.755   3.674 -0.1831  0.0319  1.4194
 1071SOL    HW2 3898   5.313   3.888   3.688 -0.8780 -0.3473  1.6286
 1072SOL     OW 3899   5.746   2.385   0.213 -0.3246  0.0875 -0.1590
 1072SOL    HW1 3900   5.818   2.439   0.180 -0.2430  0.3527  0.4381
 1072SOL    HW2 3901   5.684   2.448   0.251 -0.5028 -0.1986  0.0303
 1073SOL     OW 3902   2.786   3.652   1.936  0.1236  0.2243 -0.1367
 1073SOL    HW1 3903   2.834   3.703   1.871 -0.1513 -0.5766 -0.9871
 1073SOL    HW2 3904   2.817   3.562   1.925 -2.0616 -0.4783 -1.2453
 1074SOL     OW 3905   2.614   4.636   1.783  0.8247 -0.1810  0.3339
 1074SOL    HW1 3906   2.520   4.619   1.777  1.1052 -1.3045 -2.0198
 1074SOL    HW2 3907   2.646   4.569   1.843  0.1792  0.0200  0.9193
 1075SOL     OW 3908   5.434   0.499   5.250 -0.4680  0.2216  0.2166
 1075SOL    HW1 3909   5.494   0.426   5.270  0.4322  0.7680 -0.4028
 1075SOL    HW2 3910   5.407   0.483   5.160 -0.0416  0.8013 -0.0160
 1076SOL     OW 3911   0.197   5.078   5.069 -0.2908 -0.2793 -0.0246
 1076SOL    HW1 3912   0.137   5.019   5.024 -1.9881  1.0539  0.3765
 1076SOL    HW2 3913   0.201   5.155   5.012  0.2153  0.0747  0.4846
 1077SOL     OW 3914   4.624   1.435   2.547  0.0044 -0.2759 -0.2919
 1077SOL    HW1 3915   4.675   1.399   2.475  1.4777  1.3323 -0.1251
 1077SOL    HW2 3916   4.685   1.439   2.621 -0.7523  0.4065  0.3186
 1078SOL     OW 3917   0.738   2.995   1.875  0.0021 -0.1214 -0.3707
 1078SOL    HW1 3918   0.797   3.048   1.930  0.0569  1.2499 -1.6723
 1078SOL    HW2 3919   0.741   2.908   1.913 -1.4799  1.1317  3.0233
 1079SOL     OW 3920   6.161   4.563   4.594  0.2513  0.0350  0.7161
 1079SOL    HW1 3921   6.175   4.647   4.549 -0.5541 -0.1075  0.1705
 1079SOL    HW2 3922   6.146   4.587   4.685 -0.5250  0.5481  0.4691
 1080SOL     OW 3923   2.154   4.355   3.656  0.4821 -0.5849 -0.2977
 1080SOL    HW1 3924   2.065   4.354   3.623  0.2413 -2.6013  0.3037
 1080SOL    HW2 3925   2.205   4.309   3.590  0.8385 -0.6080 -0.0100
 1081SOL     OW 3926   2.944   0.166   4.685 -0.0614 -0.2004 -0.3003
 1081SOL    HW1 3927   2.960   0.113   4.763 -0.2636  0.1308 -0.0272
 1081SOL    HW2 3928   2.849   0.174   4.681 -0.0314  0.2183 -0.2767
 1082SOL     OW 3929   5.088   3.802   6.264  0.2451  0.4564 -0.3194
 1082SOL    HW1 3930   5.102   3.736   6.196  2.0516  0.2784  0.1979
 1082SOL    HW2 3931   5.041   3.872   6.219  2.7879  1.0556 -2.2361
 1083SOL     OW 3932   1.752   2.521   6.137  0.1328 -0.0493  0.6031
 1083SOL    HW1 3933   1.821   2.456   6.149  1.1250  1.0539  1.1289
 1083SOL    HW2 3934   1.731   2.550   6.226 -1.4186 -0.7448  0.5008
 1084SOL     OW 3935   0.971   3.056   4.933 -0.2132 -0.3156 -0.1910
 1084SOL    HW1 3936   0.886   3.067   4.890 -0.3892 -0.2798  0.1689
 1084SOL    HW2 3937   0.955   3.077   5.025  0.1456 -0.4840 -0.0886
 1085SOL     OW 3938   1.733   3.454   4.460 -0.6835 -0.9907 -0.0376
 1085SOL    HW1 3939   1.773   3.368   4.443 -1.5010 -1.2019 -0.9686
 1085SOL    HW2 3940   1.742   3.501   4.377  1.9123  0.7674  1.0903
 1086SOL     OW 3941   0.683   6.052   2.499 -0.5397 -0.4648  0.1639
 1086SOL    HW1 3942   0.675   5.999   2.419  1.0465 -2.1349  1.0358
 1086SOL    HW2 3943   0.682   5.988   2.570  0.9229  0.7262  1.3086
 1087SOL     OW 3944   1.270   3.890   1.673 -0.1367 -0.0882 -0.3143
 1087SOL    HW1 3945   1.177   3.913   1.680 -0.5974 -1.1209 -2.2683
 1087SOL    HW2 3946   1.277   3.846   1.588  2.0657 -0.4433  0.0024
 1088SOL     OW 3947   2.136   0.484   1.883 -0.0992 -0.6387 -0.5415
 1088SOL    HW1 3948   2.225   0.453   1.900 -0.9441 -2.9259  0.0422
 1088SOL    HW2 3949   2.142   0.526   1.798  1.4958 -0.9827 -0.6387
 1089SOL     OW 3950   3.678   1.818   1.424  0.0788 -0.6531  0.7491
 1089SOL    HW1 3951   3.646   1.779   1.343  2.0508 -0.1673 -0.3287
 1089SOL    HW2 3952   3.608   1.876   1.453 -0.8067 -1.1363 -0.3866
 1090SOL     OW 3953   4.715   2.706   4.131 -0.4518  0.4492  0.4202
 1090SOL    HW1 3954   4.729   2.625   4.083 -2.3274  0.2234  0.1699
 1090SOL    HW2 3955   4.802   2.733   4.160  0.3334 -1.0393 -0.4658
 1091SOL     OW 3956   5.533   3.779   5.280  0.3216  0.2196  0.2841
 1091SOL    HW1 3957   5.580   3.783   5.196 -2.4517 -0.1647 -1.4319
 1091SOL    HW2 3958   5.543   3.688   5.309  0.5235  0.0990 -0.1585
 1092SOL     OW 3959   3.055   3.700   4.687  0.0398  0.3210 -0.1736
 1092SOL    HW1 3960   3.082   3.690   4.778  0.1743 -0.2900 -0.2787
 1092SOL    HW2 3961   3.123   3.655   4.637 -2.0931 -2.9817 -0.3601
 1093SOL     OW 3962   5.270   0.699   3.484 -0.0604 -0.2359 -0.4470
 1093SOL    HW1 3963   5.282   0.612   3.445  1.8468 -1.0279  1.6859
 1093SOL    HW2 3964   5.351   0.715   3.532 -1.8505  1.0353  2.3942
 1094SOL     OW 3965   3.969   1.090   4.540 -0.2899 -0.1755  0.5439
 1094SOL    HW1 3966   3.970   1.067   4.447  1.1043 -0.5794  0.6400
 1094SOL    HW2 3967   3.991   1.008   4.585 -4.4532 -1.0053  1.5325
 1095SOL     OW 3968   1.457   0.710   2.077  0.4280 -0.5175 -0.0019
 1095SOL    HW1 3969   1.366   0.694   2.053  0.6278 -0.7833 -0.6208
 1095SOL    HW2 3970   1.453   0.769   2.152 -0.2949 -1.8779  1.0677
 1096SOL     OW 3971   0.536   0.534   0.074  0.4097  0.0461  0.3239
 1096SOL    HW1 3972   0.521   0.440   0.064  2.7037 -0.2018 -1.7235
 1096SOL    HW2 3973   0.474   0.575   0.014  0.4258 -0.2570  0.1001
 1097SOL     OW 3974   2.273   1.543   2.873  0.4925  0.6921  0.0189
 1097SOL    HW1 3975   2.327   1.531   2.951 -0.1727 -0.6089  0.3045
 1097SOL    HW2 3976   2.332   1.523   2.799  0.7415  0.5309  0.2600
 1098SOL     OW 3977   1.406   1.489   4.015  0.6022 -0.0385 -0.2223
 1098SOL    HW1 3978   1.363   1.575   4.013  0.2531 -0.2233 -0.7747
 1098SOL    HW2 3979   1.495   1.508   4.044 -0.2796  0.1624  2.6375
 1099SOL     OW 3980   6.119   6.422   4.293  0.2307 -0.1670 -0.2132
 1099SOL    HW1 3981   6.178   6.496   4.309 -0.2011  0.6403 -2.0282
 1099SOL    HW2 3982   6.032   6.458   4.309  0.1208 -0.8495  0.7572
 1100SOL     OW 3983   0.255   4.245   2.672  0.3410 -0.0149 -0.1960
 1100SOL    HW1 3984   0.198   4.186   2.722  1.7630 -0.4699  0.9706
 1100SOL    HW2 3985   0.272   4.197   2.590 -0.5967 -0.0432 -0.3917
 1101SOL     OW 3986   3.570   1.313   2.636 -0.2274  0.8114 -0.4249
 1101SOL    HW1 3987   3.495   1.372   2.646 -0.0352  0.8753  0.9297
 1101SOL    HW2 3988   3.531   1.226   2.627 -0.5036  0.6646  1.6320
 1102SOL     OW 3989   4.389   4.421   1.453  0.0006 -0.0518 -0.5239
 1102SOL    HW1 3990   4.392   4.435   1.548 -0.8892 -2.1184 -0.1272
 1102SOL    HW2 3991   4.324   4.484   1.422 -1.6279 -1.0203  0.6784
 1103SOL     OW 3992   0.879   3.604   4.351 -0.3577 -0.2042 -0.0028
 1103SOL    HW1 3993   0.871   3.599   4.256 -1.7221 -1.3038  0.1344
 1103SOL    HW2 3994   0.802   3.654   4.379 -0.3611 -0.5220  0.5737
 1104SOL     OW 3995   3.968   4.564   6.267  0.5270  0.1150  0.5929
 1104SOL    HW1 3996   3.976   4.569   6.172  0.0504 -0.5689  0.5052
 1104SOL    HW2 3997   3.996   4.649   6.298 -1.2493  1.0859 -0.2859
 1105SOL     OW 3998   5.282   1.188   3.664 -0.5429  0.6352  0.0159
 1105SOL    HW1 3999   5.229   1.110   3.648  0.4584 -0.2653  0.9273
 1105SOL    HW2 4000   5.365   1.170   3.619  1.5092 -1.0016  3.9031
 1106SOL     OW 4001   1.181   2.116   2.453 -0.6223 -0.0950 -0.3771
 1106SOL    HW1 4002   1.138   2.199   2.432 -0.5989  0.1082  0.3392
 1106SOL    HW2 4003   1.269   2.124   2.416 -0.0704  0.8630  1.0640
 1107SOL     OW 4004   1.225   2.417   6.274 -0.2429  0.0841 -0.3005
 1107SOL    HW1 4005   1.248   2.510   6.274  1.1048 -0.2413 -0.3971
 1107SOL    HW2 4006   1.168   2.407   6.350 -1.8511  1.3150 -1.2665
 1108SOL     OW 4007   3.821   5.191   4.747  0.5210  0.1378 -0.0271
 1108SOL    HW1 4008   3.849   5.172   4.658  1.2656 -1.1819  0.4445
 1108SOL    HW2 4009   3.778   5.276   4.742  1.8423  0.7724 -1.3831
 1109SOL     OW 4010   2.310   2.046   0.237  0.0982 -0.4154  0.5448
 1109SOL    HW1 4011   2.335   1.954   0.232  1.1325 -0.0767 -2.1776
 1109SOL    HW2 4012   2.391   2.092   0.261  0.4644  0.0282 -1.3606
 1110SOL     OW 4013   2.012   3.228   2.751 -0.0120  0.0601  0.6115
 1110SOL    HW1 4014   2.011   3.286   2.675 -0.1104  1.2582  1.4937
 1110SOL    HW2 4015   2.040   3.143   2.716  1.9033  1.0529 -0.4285
 1111SOL     OW 4016   2.954   5.289   0.717  0.1027 -0.0449  0.1708
 1111SOL    HW1 4017   3.030   5.287   0.659  0.2369  0.1167  0.3377
 1111SOL    HW2 4018   2.910   5.205   0.703  1.6115 -1.1852  1.8023
 1112SOL     OW 4019   1.050   5.999   1.043 -0.1808 -0.7180  0.3651
 1112SOL    HW1 4020   1.132   5.954   1.060 -0.0100 -0.7106 -0.4142
 1112SOL    HW2 4021   1.072   6.092   1.047 -0.0775 -0.7189 -0.2032
 1113SOL     OW 4022   3.108   2.264   4.085  0.6571 -0.1357  0.2029
 1113SOL    HW1 4023   3.052   2.333   4.050  2.5858  1.3256 -0.2188
 1113SOL    HW2 4024   3.108   2.196   4.018 -3.5271 -2.0631  1.8026
 1114SOL     OW 4025   1.451   3.936   0.198  0.0147 -0.1133  0.7903
 1114SOL    HW1 4026   1.478   3.855   0.155 -0.5026 -0.0826  0.4114
 1114SOL    HW2 4027   1.524   3.997   0.183  0.8549 -0.7867  1.9063
 1115SOL     OW 4028   1.986   2.614   6.390 -0.1207 -0.0306 -0.2894
 1115SOL    HW1 4029   1.894   2.589   6.383  0.1544 -0.9976 -0.7561
 1115SOL    HW2 4030   2.034   2.532   6.372  0.8177  0.2785  0.6801
 1116SOL     OW 4031   5.408   1.731   6.390 -0.0273  0.2267  0.2163
 1116SOL    HW1 4032   5.411   1.790   6.315 -0.1741 -0.0181  0.0170
 1116SOL    HW2 4033   5.412   1.788   6.466 -0.5103  0.5210  0.0272
 1117SOL     OW 4034   1.991   4.664   4.460 -0.1961  0.1514 -0.2678
 1117SOL    HW1 4035   2.083   4.680   4.480 -1.0370  2.7569  2.2709
 1117SOL    HW2 4036   1.972   4.720   4.385  0.0951  0.4119 -0.1478
 1118SOL     OW 4037   5.564   5.606   2.450 -0.0035  0.6334  0.1079
 1118SOL    HW1 4038   5.583   5.525   2.497  0.3853  1.1726  0.9016
 1118SOL    HW2 4039   5.597   5.675   2.507 -0.8360  1.3871 -0.3025
 1119SOL     OW 4040   1.049   5.794   3.209  0.3983 -0.3128 -0.5475
 1119SOL    HW1 4041   1.047   5.886   3.184 -0.2605 -0.4099 -0.8638
 1119SOL    HW2 4042   1.002   5.749   3.140 -0.4738 -0.7162  0.2800
 1120SOL     OW 4043   1.277   1.918   3.194 -0.2461  0.1225 -0.1610
 1120SOL    HW1 4044   1.341   1.883   3.256  0.5845  1.9783  0.0931
 1120SOL    HW2 4045   1.264   1.847   3.130  1.0651 -0.7647  0.5139
 1121SOL     OW 4046   4.513   1.469   1.949  0.0170  0.5266 -0.6203
 1121SOL    HW1 4047   4.539   1.394   1.895  0.9645  0.3403  0.0884
 1121SOL    HW2 4048   4.423   1.488   1.921  0.1179 -0.2439 -1.5034
 1122SOL     OW 4049   3.577   0.635   6.041  0.1809 -0.3242 -0.5423
 1122SOL    HW1 4050   3.643   0.698   6.068  0.2097 -0.8693  0.6849
 1122SOL    HW2 4051   3.494   0.682   6.050  0.3986  0.6261 -2.8349
 1123SOL     OW 4052   3.240   1.449   4.144  0.6177  0.3647 -0.2263
 1123SOL    HW1 4053   3.272   1.539   4.135  1.1216  0.1739 -0.3974
 1123SOL    HW2 4054   3.247   1.412   4.056  0.0073  0.2853 -0.2462
 1124SOL     OW 4055   3.378   5.629   5.426 -0.0001 -0.1441 -0.3575
 1124SOL    HW1 4056   3.314   5.699   5.439  0.4309  0.1068  0.4708
 1124SOL    HW2 4057   3.353   5.561   5.489  0.2636 -0.2544 -0.3714
 1125SOL     OW 4058   5.823   5.354   2.132  0.2965 -0.0009  0.5237
 1125SOL    HW1 4059   5.735   5.361   2.095 -0.3101 -0.2180  1.8532
 1125SOL    HW2 4060   5.860   5.442   2.125 -0.2872  0.2491  0.5390
 1126SOL     OW 4061   3.681   0.589   3.491 -0.0202 -0.0738  0.1514
 1126SOL    HW1 4062   3.732   0.604   3.570 -0.4894 -0.4411  0.5322
 1126SOL    HW2 4063   3.665   0.676   3.456  1.3734  0.0243 -0.3119
 1127SOL     OW 4064   1.413   0.971   4.289  0.6530  0.3863 -0.0499
 1127SOL    HW1 4065   1.438   0.893   4.240 -0.4767 -1.0223  1.5193
 1127SOL    HW2 4066   1.465   1.041   4.250  3.6456 -1.5539  0.1008
 1128SOL     OW 4067   1.271   3.864   3.392  0.5544 -0.2324  0.0772
 1128SOL    HW1 4068   1.205   3.877   3.323  0.9134 -0.0071 -0.2330
 1128SOL    HW2 4069   1.328   3.941   3.384 -2.0183  2.3502  3.6529
 1129SOL     OW 4070   1.803   5.432   2.382  0.0521  0.0177  0.2225
 1129SOL    HW1 4071   1.878   5.373   2.370  1.4640  1.8978 -0.8446
 1129SOL    HW2 4072   1.833   5.494   2.448  0.0938  1.7102 -1.3152
 1130SOL     OW 4073   2.633   3.569   3.914  0.6369  0.5643 -0.0521
 1130SOL    HW1 4074   2.613   3.640   3.975 -0.1171  0.6059 -0.3303
 1130SOL    HW2 4075   2.725   3.580   3.893  0.4999  1.5214 -0.1738
 1131SOL     OW 4076   0.743   2.518   2.858  0.4671  0.1743  0.0220
 1131SOL    HW1 4077   0.702   2.580   2.798  0.1359  2.1513  2.1760
 1131SOL    HW2 4078   0.674   2.454   2.877 -0.0638  0.6950 -0.1233
 1132SOL     OW 4079   3.531   3.038   1.176  0.9676 -0.3062  0.3810
 1132SOL    HW1 4080   3.592   2.964   1.179  3.1184  1.3663  1.6265
 1132SOL    HW2 4081   3.548   3.086   1.257 -2.2531  0.1702  0.8972
 1133SOL     OW 4082   5.559   4.845   6.299 -0.1305 -0.1021  0.4021
 1133SOL    HW1 4083   5.581   4.896   6.377 -0.1256  0.3809  0.0899
 1133SOL    HW2 4084   5.577   4.754   6.323  0.5732  0.1162  0.7174
 1134SOL     OW 4085   3.170   1.396   1.303  0.2225  0.3546  0.1400
 1134SOL    HW1 4086   3.130   1.309   1.297 -0.6973  0.7269  0.7435
 1134SOL    HW2 4087   3.126   1.447   1.235  1.9638 -0.0852 -1.3848
 1135SOL     OW 4088   5.550   2.997   0.354  0.5122 -0.5083  0.0831
 1135SOL    HW1 4089   5.597   2.921   0.388 -0.1492 -0.8762  0.1973
 1135SOL    HW2 4090   5.514   3.040   0.432  3.3091  1.6326  0.3352
 1136SOL     OW 4091   4.016   2.907   4.548 -1.1748  0.3395 -0.2465
 1136SOL    HW1 4092   4.045   2.844   4.482 -0.4229 -0.3980  0.7646
 1136SOL    HW2 4093   3.989   2.983   4.497 -1.5169 -0.5515 -1.4656
 1137SOL     OW 4094   1.355   5.599   6.409  0.6229 -0.1568 -0.6511
 1137SOL    HW1 4095   1.377   5.543   6.335  1.2214 -1.0187  0.1487
 1137SOL    HW2 4096   1.435   5.599   6.463  0.2087  0.4731 -0.0236
 1138SOL     OW 4097   4.582   2.816   6.040 -0.0001 -0.2466  0.1224
 1138SOL    HW1 4098   4.604   2.899   5.997 -1.4881 -0.2209 -0.6408
 1138SOL    HW2 4099   4.597   2.834   6.133 -0.6724  1.0256  0.0113
 1139SOL     OW 4100   2.732   3.622   6.287  0.0430  0.4777 -0.0565
 1139SOL    HW1 4101   2.712   3.589   6.199  0.4520  0.1806 -0.0431
 1139SOL    HW2 4102   2.827   3.615   6.294  0.0016  0.3845  0.4534
 1140SOL     OW 4103   3.144   5.417   4.765  0.0830 -0.0551 -0.0781
 1140SOL    HW1 4104   3.070   5.366   4.800 -1.5034  0.5256 -2.3559
 1140SOL    HW2 4105   3.135   5.409   4.670  2.5033  0.7530 -0.4389
 1141SOL     OW 4106   2.804   1.642   1.389  0.3044 -0.0578  0.0097
 1141SOL    HW1 4107   2.841   1.699   1.321  2.3166  0.4050  1.4034
 1141SOL    HW2 4108   2.878   1.623   1.447 -0.9573 -1.8603  1.1207
 1142SOL     OW 4109   1.483   3.138   6.128  0.2283 -0.4853  0.2336
 1142SOL    HW1 4110   1.458   3.149   6.220  2.0928 -2.5468  1.0792
 1142SOL    HW2 4111   1.444   3.054   6.103 -0.0997 -0.0307 -0.8184
 1143SOL     OW 4112   3.292   5.124   2.405  0.2598 -0.7787 -0.1137
 1143SOL    HW1 4113   3.303   5.165   2.319 -1.0631  0.6297  0.3397
 1143SOL    HW2 4114   3.372   5.148   2.453 -0.2359  0.8773 -0.0450
 1144SOL     OW 4115   0.267   3.136   1.082  0.0427  0.2246 -0.1108
 1144SOL    HW1 4116   0.307   3.193   1.147  1.3547 -2.2623  1.4446
 1144SOL    HW2 4117   0.341   3.093   1.039 -0.8886 -0.4069 -1.1456
 1145SOL     OW 4118   4.119   2.607   4.783 -0.3802  0.0292 -0.5579
 1145SOL    HW1 4119   4.141   2.514   4.794 -0.3751  0.2541  1.8213
 1145SOL    HW2 4120   4.045   2.621   4.843 -0.5321  1.5324 -1.0566
 1146SOL     OW 4121   5.165   1.001   5.845  0.3908 -0.4390  0.3300
 1146SOL    HW1 4122   5.138   0.972   5.932 -1.8389  1.0255  0.1954
 1146SOL    HW2 4123   5.227   1.073   5.861 -0.0798 -0.1164  0.7085
 1147SOL     OW 4124   3.454   3.502   2.253 -0.0375 -0.2445 -0.2773
 1147SOL    HW1 4125   3.360   3.520   2.248  0.1141  0.6123 -0.2442
 1147SOL    HW2 4126   3.462   3.428   2.313 -0.5564  0.9234  1.3102
 1148SOL     OW 4127   4.851   1.202   0.198  0.7038 -0.2271  0.1062
 1148SOL    HW1 4128   4.860   1.108   0.185  0.3602 -0.1200 -1.0536
 1148SOL    HW2 4129   4.856   1.214   0.293  4.4321 -1.0294  0.1642
 1149SOL     OW 4130   3.686   4.531   1.573  0.2432 -0.1479 -0.1845
 1149SOL    HW1 4131   3.771   4.526   1.618 -1.0780  1.0320  2.6578
 1149SOL    HW2 4132   3.670   4.625   1.564 -0.7953 -0.3603 -0.5945
 1150SOL     OW 4133   6.375   2.688   2.347 -0.0454 -0.5142 -0.3275
 1150SOL    HW1 4134   6.426   2.645   2.415  1.8071 -0.1654 -1.4046
 1150SOL    HW2 4135   6.440   2.735   2.294 -1.6521  1.1328 -0.9730
 1151SOL     OW 4136   4.356   4.399   0.217 -0.2034 -0.1510  0.8306
 1151SOL    HW1 4137   4.376   4.459   0.146 -1.1918  1.3484  1.7672
 1151SOL    HW2 4138   4.418   4.423   0.286  0.2796 -1.1185  0.7497
 1152SOL     OW 4139   3.360   5.382   4.923 -0.2332  0.5035  0.1829
 1152SOL    HW1 4140   3.443   5.376   4.875  0.0811  1.9576  0.4865
 1152SOL    HW2 4141   3.293   5.388   4.855  0.2706  3.4220 -0.2013
 1153SOL     OW 4142   4.806   1.172   4.013  0.5030  0.1512  0.1896
 1153SOL    HW1 4143   4.815   1.239   3.946 -0.4377  1.4811  1.3459
 1153SOL    HW2 4144   4.894   1.165   4.052  0.2278  2.0173  1.2355
 1154SOL     OW 4145   5.654   2.350   2.369 -0.1274 -0.0953 -0.0547
 1154SOL    HW1 4146   5.706   2.304   2.303  0.3067  0.2539  0.0422
 1154SOL    HW2 4147   5.703   2.429   2.388 -0.7822  0.3252 -0.0845
 1155SOL     OW 4148   5.839   1.846   6.078 -0.5399  0.3124 -0.2946
 1155SOL    HW1 4149   5.864   1.911   6.144  0.4012 -0.9393  0.6427
 1155SOL    HW2 4150   5.748   1.824   6.098 -0.2731 -0.0312  0.5928
 1156SOL     OW 4151   3.670   0.597   1.630  0.1516  0.4790  0.2268
 1156SOL    HW1 4152   3.668   0.679   1.582 -2.9139  1.2925  1.5384
 1156SOL    HW2 4153   3.716   0.617   1.712  2.9831 -0.2420 -1.0635
 1157SOL     OW 4154   2.667   3.929   0.984  0.3211  0.0328 -0.1737
 1157SOL    HW1 4155   2.647   3.876   1.062  1.7503  0.5896  0.6176
 1157SOL    HW2 4156   2.589   3.983   0.972 -0.1438 -0.4445  0.5452
 1158SOL     OW 4157   0.191   4.780   4.545 -0.3095  0.2413  0.3837
 1158SOL    HW1 4158   0.253   4.706   4.545  0.1926  0.6372 -0.4900
 1158SOL    HW2 4159   0.126   4.757   4.611  0.4386 -0.4757  0.9017
 1159SOL     OW 4160   1.115   3.545   2.135 -0.3845 -0.0493  0.1253
 1159SOL    HW1 4161   1.025   3.578   2.134 -0.6364 -0.7231 -1.7149
 1159SOL    HW2 4162   1.166   3.611   2.089 -0.2786 -0.5467 -0.4865
 1160SOL     OW 4163   1.363   5.581   4.182  0.0524  0.2574 -1.4133
 1160SOL    HW1 4164   1.279   5.627   4.175 -0.6824 -0.9830 -1.0757
 1160SOL    HW2 4165   1.339   5.490   4.195  1.2995  0.2841  2.7363
 1161SOL     OW 4166   1.558   3.022   1.291  0.4330 -0.3846 -0.2569
 1161SOL    HW1 4167   1.568   2.988   1.202 -1.6594  0.6289 -0.9382
 1161SOL    HW2 4168   1.575   3.116   1.283 -2.6494  0.2705 -0.2798
 1162SOL     OW 4169   4.094   0.033   2.414 -0.0398  0.2831  0.4160
 1162SOL    HW1 4170   4.148  -0.027   2.466  2.8634  0.0479 -2.5356
 1162SOL    HW2 4171   4.044  -0.024   2.355  1.6716  0.5651 -1.4270
 1163SOL     OW 4172   6.234   1.075   2.785  0.0584  0.5005 -0.2021
 1163SOL    HW1 4173   6.159   1.041   2.736  0.2486 -0.2635  0.0295
 1163SOL    HW2 4174   6.247   1.013   2.856  0.3726  1.0982  0.2792
 1164SOL     OW 4175   4.193   2.323   6.503 -0.1027  0.5456  0.2048
 1164SOL    HW1 4176   4.115   2.330   6.558  0.2921 -2.0321  1.2699
 1164SOL    HW2 4177   4.165   2.275   6.426  0.3076 -0.0205  0.3952
 1165SOL     OW 4178   3.367   2.405   5.834  0.4258 -0.0213 -0.7137
 1165SOL    HW1 4179   3.423   2.366   5.767 -0.9341 -0.3016 -1.7490
 1165SOL    HW2 4180   3.420   2.474   5.873  2.2862 -1.7302 -0.0331
 1166SOL     OW 4181   4.636   1.981   5.426  0.5398  0.5210  0.0180
 1166SOL    HW1 4182   4.643   2.026   5.342  0.5456 -0.3944 -0.4940
 1166SOL    HW2 4183   4.621   1.889   5.402 -0.1674  0.3590  1.0190
 1167SOL     OW 4184   1.244   3.759   2.004  0.3082  0.3220  0.5508
 1167SOL    HW1 4185   1.167   3.729   1.955 -1.1837  0.4339  2.6644
 1167SOL    HW2 4186   1.292   3.814   1.943 -0.9938 -0.2028 -1.0161
 1168SOL     OW 4187   0.753   4.539   2.656 -0.4748  0.4271 -0.0427
 1168SOL    HW1 4188   0.802   4.480   2.598 -0.7889 -0.0051  0.1285
 1168SOL    HW2 4189   0.697   4.589   2.597  0.0748  0.8411 -0.2293
 1169SOL     OW 4190   0.864   5.968   1.558  0.6362 -0.1307 -0.3285
 1169SOL    HW1 4191   0.909   6.015   1.628  0.5783 -1.0980  0.3857
 1169SOL    HW2 4192   0.901   6.003   1.477  0.1068  1.6151  0.1397
 1170SOL     OW 4193   3.674   0.098   0.709  0.0919 -0.2423 -0.2344
 1170SOL    HW1 4194   3.757   0.056   0.686  0.6464  0.6501  0.0940
 1170SOL    HW2 4195   3.607   0.043   0.668  0.7733 -1.5912  0.4097
 1171SOL     OW 4196   5.763   3.410   1.431 -0.2605  0.1753 -0.1780
 1171SOL    HW1 4197   5.691   3.469   1.454  1.2794  2.3051 -0.5701
 1171SOL    HW2 4198   5.841   3.452   1.467  1.0856 -0.8942 -1.7107
 1172SOL     OW 4199   0.904   5.211   0.446 -0.8054  0.1226  0.2087
 1172SOL    HW1 4200   0.951   5.287   0.479  0.6793 -0.8922  0.5264
 1172SOL    HW2 4201   0.824   5.207   0.500 -0.5713  1.0543  0.6334
 1173SOL     OW 4202   0.001   4.051   6.306  0.0489  0.4841  0.2839
 1173SOL    HW1 4203  -0.013   3.958   6.285 -0.1307  0.7018 -0.6076
 1173SOL    HW2 4204  -0.060   4.069   6.376 -0.1367  0.0034  0.2505
 1174SOL     OW 4205   1.205   5.866   2.322  0.2587 -0.3710  0.0746
 1174SOL    HW1 4206   1.291   5.907   2.311  1.0539 -2.0131 -0.0527
 1174SOL    HW2 4207   1.202   5.842   2.415  0.5711 -1.6135 -0.2177
 1175SOL     OW 4208   3.936   3.480   0.256 -0.2017  0.7535  0.0648
 1175SOL    HW1 4209   3.985   3.517   0.182  0.1309 -0.3547 -0.2955
 1175SOL    HW2 4210   3.846   3.474   0.224  0.2535 -1.4169 -0.9636
 1176SOL     OW 4211   4.910   4.681   6.053 -0.4646  0.3688 -0.1965
 1176SOL    HW1 4212   4.980   4.680   5.989 -0.4309  1.8410 -0.2118
 1176SOL    HW2 4213   4.896   4.589   6.076  1.5400  0.0561 -0.0986
 1177SOL     OW 4214   3.433   2.576   3.210  0.0905 -0.1599  0.2515
 1177SOL    HW1 4215   3.464   2.527   3.286  0.9873 -1.1665 -0.7247
 1177SOL    HW2 4216   3.373   2.516   3.165 -0.3823  0.4003  0.1146
 1178SOL     OW 4217   3.089   0.284   5.741 -0.3929  0.0635  0.5336
 1178SOL    HW1 4218   3.103   0.311   5.650  0.6569  0.6311  0.8407
 1178SOL    HW2 4219   2.995   0.272   5.749 -0.4808 -0.1384 -0.6691
 1179SOL     OW 4220   6.087   0.272   3.843  0.4365  0.1806 -0.4130
 1179SOL    HW1 4221   6.126   0.189   3.869 -0.2489 -1.1142 -3.1508
 1179SOL    HW2 4222   6.004   0.275   3.890  0.7599 -0.3603  0.2061
 1180SOL     OW 4223   1.794   3.443   6.137 -0.1259  0.1336 -0.1796
 1180SOL    HW1 4224   1.717   3.485   6.176  0.4945  0.6344  0.5471
 1180SOL    HW2 4225   1.775   3.350   6.141  0.5587  0.0243  2.8881
 1181SOL     OW 4226   3.681   4.043   1.922 -0.2552 -0.3210  0.2619
 1181SOL    HW1 4227   3.640   3.972   1.874  0.8647  0.5748 -2.1537
 1181SOL    HW2 4228   3.611   4.106   1.939 -1.3694 -2.0831  2.8610
 1182SOL     OW 4229   4.399   3.404   0.752  0.3404  0.0695  0.2720
 1182SOL    HW1 4230   4.425   3.494   0.731 -1.5904  0.5447 -0.2527
 1182SOL    HW2 4231   4.369   3.408   0.842 -0.6284  0.1831 -0.0422
 1183SOL     OW 4232   3.591   5.367   5.545  0.0068 -0.0962 -0.1322
 1183SOL    HW1 4233   3.657   5.437   5.550 -0.7320  0.5071  2.1104
 1183SOL    HW2 4234   3.598   5.336   5.455  1.9149  1.3442 -0.5751
 1184SOL     OW 4235   5.565   4.029   1.886  0.2311 -0.2947 -0.0980
 1184SOL    HW1 4236   5.611   4.112   1.874 -0.6571 -0.0550 -2.2795
 1184SOL    HW2 4237   5.489   4.051   1.939  1.2563 -0.2390  1.4273
 1185SOL     OW 4238   1.990   1.502   5.581  0.3160 -0.2190 -0.0347
 1185SOL    HW1 4239   2.056   1.568   5.562  0.3153 -0.1523  0.1922
 1185SOL    HW2 4240   1.933   1.502   5.504 -1.0224  1.6422  0.8825
 1186SOL     OW 4241   1.160   1.697   5.729  0.4471  0.5204  0.1655
 1186SOL    HW1 4242   1.123   1.652   5.652 -1.3578  1.2704  0.5453
 1186SOL    HW2 4243   1.187   1.626   5.787 -1.4707 -0.1197  0.3422
 1187SOL     OW 4244   5.434   6.343   2.670  0.2306  0.3839 -0.1741
 1187SOL    HW1 4245   5.439   6.288   2.591 -0.9709 -0.3123  0.2195
 1187SOL    HW2 4246   5.351   6.390   2.661  0.0422  0.2313  0.7138
 1188SOL     OW 4247   0.911   6.377   1.583  0.0925  0.6295 -0.0248
 1188SOL    HW1 4248   0.999   6.370   1.546  0.1443  0.1091  0.1911
 1188SOL    HW2 4249   0.861   6.422   1.515  0.0495 -0.8018 -0.9822
 1189SOL     OW 4250   3.420   4.658   4.119  0.5519  0.0830 -0.8135
 1189SOL    HW1 4251   3.391   4.678   4.208  0.7009 -2.6740 -0.0267
 1189SOL    HW2 4252   3.395   4.734   4.067 -1.1227  1.0489  1.2622
 1190SOL     OW 4253   5.288   0.105   0.227 -0.2179  0.1090  0.2575
 1190SOL    HW1 4254   5.333   0.100   0.311 -1.0145  0.1037  0.6857
 1190SOL    HW2 4255   5.278   0.013   0.201 -0.0077  0.1094  0.1677
 1191SOL     OW 4256   4.968   6.072   3.679  0.2038 -0.3438  0.3344
 1191SOL    HW1 4257   4.976   6.026   3.762  1.9626  1.2961  1.1527
 1191SOL    HW2 4258   4.894   6.132   3.691  0.6007  0.0582  0.8378
 1192SOL     OW 4259   4.111   0.948   6.171 -0.0709  0.1210  0.2216
 1192SOL    HW1 4260   4.044   0.894   6.215  0.1823  0.9327  1.6746
 1192SOL    HW2 4261   4.065   0.987   6.097 -1.1772  0.4937  1.0705
 1193SOL     OW 4262   5.205   3.103   6.250  0.8468 -0.0453 -0.0735
 1193SOL    HW1 4263   5.237   3.088   6.339  0.1799  2.1048  0.5955
 1193SOL    HW2 4264   5.128   3.159   6.261  1.3825  1.2086 -2.0319
 1194SOL     OW 4265   5.659   3.437   4.168  0.7127  0.2594  0.5820
 1194SOL    HW1 4266   5.715   3.368   4.202  1.8131  1.2548  0.8696
 1194SOL    HW2 4267   5.664   3.428   4.073  1.0700  0.1019  0.6138
 1195SOL     OW 4268   4.750   5.526   4.690 -0.0336  0.6003 -0.4253
 1195SOL    HW1 4269   4.672   5.558   4.735  1.6514  2.6191  1.2854
 1195SOL    HW2 4270   4.780   5.453   4.744  1.0337  1.9401  0.8844
 1196SOL     OW 4271   1.690   2.604   0.365  0.2798  0.0497  0.4585
 1196SOL    HW1 4272   1.738   2.647   0.293 -1.7843  0.5768 -0.6833
 1196SOL    HW2 4273   1.616   2.662   0.382 -1.5958 -2.1083  0.1352
 1197SOL     OW 4274   0.652   2.241   5.866  0.5586  0.8774 -0.0390
 1197SOL    HW1 4275   0.727   2.209   5.817 -0.4515  0.8606 -1.6661
 1197SOL    HW2 4276   0.665   2.209   5.955  2.4378  0.8556 -0.2825
 1198SOL     OW 4277   1.255   1.170   0.054  0.3263  0.2594 -0.3848
 1198SOL    HW1 4278   1.228   1.113   0.126  0.7253 -0.4471 -0.7896
 1198SOL    HW2 4279   1.212   1.253   0.073 -0.8834 -0.3856 -0.1858
 1199SOL     OW 4280   1.219   2.871   2.728  0.1279 -0.1615  0.0238
 1199SOL    HW1 4281   1.188   2.793   2.773  0.0009 -0.5526 -0.7291
 1199SOL    HW2 4282   1.144   2.931   2.730  0.4675  0.2527  1.2701
 1200SOL     OW 4283   5.904   5.623   1.255  0.6132  0.2079 -0.0203
 1200SOL    HW1 4284   5.965   5.684   1.214  0.2075  0.0558 -0.8724
 1200SOL    HW2 4285   5.822   5.672   1.263  0.6245  0.1647  0.4315
 1201SOL     OW 4286   5.904   4.971   2.233  0.0760  0.5814  0.3939
 1201SOL    HW1 4287   5.967   4.909   2.198  1.4453  2.1764 -0.0685
 1201SOL    HW2 4288   5.956   5.032   2.285 -1.2722  1.1509  1.1325
 1202SOL     OW 4289   5.284   4.257   4.216  0.4482  0.3347 -0.3478
 1202SOL    HW1 4290   5.377   4.233   4.213 -0.1165 -2.0080 -0.9514
 1202SOL    HW2 4291   5.253   4.223   4.300  0.2753  1.8251  0.2180
 1203SOL     OW 4292   3.916   4.974   2.057  0.0698  0.4588 -0.3947
 1203SOL    HW1 4293   3.852   4.903   2.063  0.4480  0.1366 -0.1761
 1203SOL    HW2 4294   3.964   4.957   1.976  1.6363 -0.7945  0.7248
 1204SOL     OW 4295   0.250   0.622   0.400  0.5452 -0.2508  0.6107
 1204SOL    HW1 4296   0.326   0.564   0.402  0.0868 -0.8552  0.6056
 1204SOL    HW2 4297   0.178   0.567   0.368  0.2217  0.4523  0.0843
 1205SOL     OW 4298   5.691   3.989   0.665  0.7365  0.2248  0.4544
 1205SOL    HW1 4299   5.672   3.901   0.634  1.3784  0.6023 -1.1156
 1205SOL    HW2 4300   5.697   3.980   0.760  1.5100 -1.5657  0.2832
 1206SOL     OW 4301   2.244   0.655   3.711  0.1221  0.1900  0.0861
 1206SOL    HW1 4302   2.254   0.613   3.625  1.5286 -0.7407  0.6592
 1206SOL    HW2 4303   2.247   0.583   3.774 -1.4647  0.7969  0.9265
 1207SOL     OW 4304   1.939   4.637   5.013 -0.6545  0.4667 -0.3065
 1207SOL    HW1 4305   1.962   4.692   4.938 -0.6815 -0.8397 -1.3151
 1207SOL    HW2 4306   1.859   4.677   5.048  0.1578  1.9412 -0.0465
 1208SOL     OW 4307   1.802   4.481   2.995 -0.0962 -0.6806 -0.4039
 1208SOL    HW1 4308   1.848   4.544   2.940  0.5769  0.4374  1.3670
 1208SOL    HW2 4309   1.811   4.398   2.949  1.4810 -0.0108 -1.3691
 1209SOL     OW 4310   6.476   0.905   0.120  0.0867  0.2091  0.7023
 1209SOL    HW1 4311   6.533   0.953   0.180  1.1993 -0.9816  0.6457
 1209SOL    HW2 4312   6.535   0.849   0.070 -1.2232 -2.2629  1.7391
 1210SOL     OW 4313   0.961   1.016   4.659 -0.4709  0.5037 -0.5923
 1210SOL    HW1 4314   0.920   1.103   4.651 -0.6858  0.2864 -2.1041
 1210SOL    HW2 4315   1.018   1.009   4.583 -1.5024 -1.2125 -1.2609
 1211SOL     OW 4316   2.433   1.862   5.653  0.0379 -0.2512  0.2349
 1211SOL    HW1 4317   2.424   1.787   5.595  0.9256  0.0090 -0.2652
 1211SOL    HW2 4318   2.362   1.921   5.627 -1.4728 -1.4197  1.4854
 1212SOL     OW 4319   5.725   0.350   2.578  0.4035  0.4834 -0.0062
 1212SOL    HW1 4320   5.648   0.294   2.568 -0.2249  0.9824  1.6055
 1212SOL    HW2 4321   5.787   0.320   2.512 -0.7402 -0.6955 -0.5633
 1213SOL     OW 4322   2.754   5.295   4.229 -0.0161  0.1319 -0.0117
 1213SOL    HW1 4323   2.829   5.320   4.175 -0.8928  0.3374 -1.1887
 1213SOL    HW2 4324   2.709   5.378   4.246 -0.2275 -0.0430  0.2915
 1214SOL     OW 4325   6.196   5.440   2.529  0.5557 -0.0075 -0.0561
 1214SOL    HW1 4326   6.104   5.462   2.542  0.5765 -0.5433  1.1384
 1214SOL    HW2 4327   6.223   5.489   2.451 -1.0801 -0.8411 -1.2040
 1215SOL     OW 4328   2.009   6.381   4.728  0.2893  0.0341  0.2216
 1215SOL    HW1 4329   2.019   6.357   4.820  0.6185 -2.6506 -0.4524
 1215SOL    HW2 4330   2.080   6.442   4.711  0.7159 -0.0693  1.5420
 1216SOL     OW 4331   4.724   5.308   3.307  0.6154  0.2534 -0.6299
 1216SOL    HW1 4332   4.761   5.262   3.231  2.7263  4.1388 -2.2383
 1216SOL    HW2 4333   4.798   5.319   3.366 -0.8838 -2.1913  1.9457
 1217SOL     OW 4334   4.984   1.958   3.753  0.1128 -0.0553  0.1804
 1217SOL    HW1 4335   5.037   1.947   3.675  0.8101  1.4570  0.3967
 1217SOL    HW2 4336   5.001   1.879   3.805  2.4181  0.4897  0.3730
 1218SOL     OW 4337   4.737   3.536   0.183  0.1397  0.0707 -0.2798
 1218SOL    HW1 4338   4.737   3.632   0.179  0.6085  0.1459  0.9722
 1218SOL    HW2 4339   4.665   3.516   0.243  0.2784 -0.3411 -0.2527
 1219SOL     OW 4340   1.439   4.010   1.860 -0.2909 -0.3638 -0.4406
 1219SOL    HW1 4341   1.452   4.094   1.816 -0.3204 -0.2829 -0.2965
 1219SOL    HW2 4342   1.390   3.957   1.798 -1.8212  0.3130  0.1315
 1220SOL     OW 4343   4.700   2.049   0.467 -0.5518  0.3498 -0.5079
 1220SOL    HW1 4344   4.656   1.999   0.536 -0.6150  2.1887  0.8677
 1220SOL    HW2 4345   4.646   2.036   0.390 -0.7855 -1.3358 -0.0993
 1221SOL     OW 4346   5.192   1.472   0.784 -0.5615 -0.1140 -0.1986
 1221SOL    HW1 4347   5.238   1.412   0.843  0.1860  1.4354  0.9005
 1221SOL    HW2 4348   5.243   1.470   0.703  0.0005 -0.2903  0.1505
 1222SOL     OW 4349   6.147   2.644   0.649 -0.3404 -0.0657  0.1636
 1222SOL    HW1 4350   6.105   2.728   0.632  0.9300  0.4217 -0.7063
 1222SOL    HW2 4351   6.088   2.599   0.709 -0.8754  1.5771  0.9122
 1223SOL     OW 4352   5.382   5.374   6.372 -0.9133 -0.7389  0.3408
 1223SOL    HW1 4353   5.396   5.309   6.304  0.7889 -0.2886  0.2160
 1223SOL    HW2 4354   5.466   5.381   6.417 -0.8384  1.7702 -0.0302
 1224SOL     OW 4355   5.042   3.836   3.721 -0.6974  0.1760 -0.0834
 1224SOL    HW1 4356   4.952   3.806   3.709 -0.7562  0.3993 -0.1945
 1224SOL    HW2 4357   5.077   3.779   3.790  0.0206 -1.9088 -2.0494
 1225SOL     OW 4358   3.529   5.181   4.130 -0.0246 -0.4297 -0.2790
 1225SOL    HW1 4359   3.601   5.172   4.069  0.0301  0.6984 -0.3900
 1225SOL    HW2 4360   3.520   5.275   4.144  0.2872 -0.6584  1.8250
 1226SOL     OW 4361   3.042   0.798   2.529  0.5174  0.0224  0.2260
 1226SOL    HW1 4362   3.055   0.750   2.611  2.7034  1.6348  0.9035
 1226SOL    HW2 4363   3.010   0.731   2.468  1.1448 -1.7683  1.7425
 1227SOL     OW 4364   3.946   5.128   5.936 -0.1831  0.0973 -0.2390
 1227SOL    HW1 4365   3.948   5.178   5.854  0.5619 -1.1240 -0.9927
 1227SOL    HW2 4366   3.886   5.056   5.918 -1.8537  1.0920  1.0929
 1228SOL     OW 4367   0.867   1.552   5.808 -0.1047  0.5400 -0.1458
 1228SOL    HW1 4368   0.834   1.506   5.731 -0.3355 -0.5250  0.5580
 1228SOL    HW2 4369   0.805   1.624   5.821 -0.4183  0.3584 -0.6043
 1229SOL     OW 4370   2.547   2.651   3.156  0.0509  0.0819  0.0906
 1229SOL    HW1 4371   2.461   2.612   3.172  0.1813 -1.1394 -1.8926
 1229SOL    HW2 4372   2.546   2.674   3.064  1.7800  0.2715  0.0922
 1230SOL     OW 4373   5.350   6.515   3.251  0.2638 -0.6310 -0.0459
 1230SOL    HW1 4374   5.392   6.594   3.216 -0.7734  0.0640  0.2182
 1230SOL    HW2 4375   5.399   6.443   3.212 -0.0800  0.1218 -1.9920
 1231SOL     OW 4376   2.707   0.653   4.994  0.2202 -0.1123  0.1835
 1231SOL    HW1 4377   2.613   0.637   4.988 -0.0548  1.1978  0.8072
 1231SOL    HW2 4378   2.746   0.586   4.937 -1.1274 -0.1664 -0.7149
 1232SOL     OW 4379   1.437   5.918   6.220  0.2501 -0.5365 -0.2717
 1232SOL    HW1 4380   1.371   5.950   6.280  0.2752 -1.3948  0.2365
 1232SOL    HW2 4381   1.513   5.975   6.233  0.2097 -0.6388  0.4227
 1233SOL     OW 4382   4.426   5.834   4.540  0.2308  0.0548  0.2902
 1233SOL    HW1 4383   4.456   5.914   4.498 -0.2753  0.9257  1.5327
 1233SOL    HW2 4384   4.487   5.767   4.510  0.8318  0.9471 -0.5441
 1234SOL     OW 4385   5.546   3.725   2.176  0.0368 -0.3295 -0.6714
 1234SOL    HW1 4386   5.577   3.813   2.200 -1.7978  0.1708  0.0687
 1234SOL    HW2 4387   5.596   3.702   2.098  0.6066  1.3539 -0.8472
 1235SOL     OW 4388   0.153   4.390   5.857 -0.7635 -0.0503  0.4119
 1235SOL    HW1 4389   0.192   4.469   5.894 -1.4190  0.4997 -0.0509
 1235SOL    HW2 4390   0.200   4.318   5.899  2.9432  0.5230 -2.2817
 1236SOL     OW 4391   6.251   4.374   2.201 -0.1531  0.2294 -0.4305
 1236SOL    HW1 4392   6.272   4.297   2.254 -0.6572  0.2434 -0.2086
 1236SOL    HW2 4393   6.200   4.339   2.127  0.2781  0.2527 -0.7469
 1237SOL     OW 4394   0.272   6.371   2.642  0.1835 -0.4147 -0.2171
 1237SOL    HW1 4395   0.178   6.360   2.657 -0.2004  1.9773 -0.5696
 1237SOL    HW2 4396   0.295   6.449   2.691  1.9430 -0.7832 -0.3993
 1238SOL     OW 4397   4.224   5.213   5.952 -0.5369  0.5752 -0.2317
 1238SOL    HW1 4398   4.140   5.169   5.939 -0.0529 -0.8701  1.1372
 1238SOL    HW2 4399   4.268   5.207   5.867 -0.1796 -2.3987  0.0524
 1239SOL     OW 4400   2.678   3.565   2.182 -0.1753  0.3346  1.0489
 1239SOL    HW1 4401   2.729   3.613   2.117  0.0446  1.5423  2.0587
 1239SOL    HW2 4402   2.683   3.474   2.154  0.3593  0.7507 -0.3100
 1240SOL     OW 4403   0.822   6.068   0.097 -0.0541 -0.1817  0.3401
 1240SOL    HW1 4404   0.864   5.996   0.144 -2.1561 -0.1853  2.4190
 1240SOL    HW2 4405   0.740   6.082   0.144  1.2286  5.1813  1.7625
 1241SOL     OW 4406   2.942   4.422   4.609 -0.3367  0.8321  0.4773
 1241SOL    HW1 4407   2.864   4.468   4.639  0.6902  1.8463  1.6798
 1241SOL    HW2 4408   2.956   4.454   4.520 -0.7167  1.4045  0.6226
 1242SOL     OW 4409   2.077   2.134   4.861 -0.1655 -0.5116  0.0915
 1242SOL    HW1 4410   2.021   2.203   4.897  0.3138  0.0209 -0.1738
 1242SOL    HW2 4411   2.076   2.065   4.928 -1.2665 -0.5859  0.0155
 1243SOL     OW 4412   1.426   4.080   3.329  0.0664  0.5409  0.6717
 1243SOL    HW1 4413   1.458   4.146   3.391  1.3433  2.7299 -2.0809
 1243SOL    HW2 4414   1.396   4.131   3.254  1.5664 -2.0284 -1.8432
 1244SOL     OW 4415   3.807   1.216   0.356 -0.1797  0.5046 -0.0364
 1244SOL    HW1 4416   3.860   1.246   0.282  0.8050  0.7180  0.7167
 1244SOL    HW2 4417   3.784   1.126   0.335 -0.1735  0.6655 -0.7363
 1245SOL     OW 4418   1.850   3.038   2.500 -0.5609 -0.3121  0.2996
 1245SOL    HW1 4419   1.800   2.956   2.498 -1.0661  0.0115 -1.0304
 1245SOL    HW2 4420   1.917   3.027   2.433 -0.6794  0.3842  0.0579
 1246SOL     OW 4421   2.597   3.144   2.961  0.0130 -0.1136 -0.2064
 1246SOL    HW1 4422   2.620   3.093   2.884 -0.4180 -0.0367 -0.3877
 1246SOL    HW2 4423   2.593   3.235   2.929 -3.0055 -0.3459 -0.7850
 1247SOL     OW 4424   6.329   2.286   4.802 -0.1866  0.4272  0.6900
 1247SOL    HW1 4425   6.353   2.230   4.877  0.2623  0.4018  0.5298
 1247SOL    HW2 4426   6.404   2.343   4.790  0.3958 -0.5890 -0.7041
 1248SOL     OW 4427   4.026   5.198   3.128 -0.0016 -0.2522 -0.6184
 1248SOL    HW1 4428   4.118   5.194   3.154 -0.5050  0.3678  1.5357
 1248SOL    HW2 4429   3.992   5.111   3.145 -0.1749 -0.0266  0.2542
 1249SOL     OW 4430   3.895   2.732   2.419  0.0442 -0.2699  0.1258
 1249SOL    HW1 4431   3.930   2.787   2.349 -2.0862 -0.0317 -0.8270
 1249SOL    HW2 4432   3.955   2.657   2.423 -0.4269 -0.9110 -2.8425
 1250SOL     OW 4433   3.017   2.786   3.372 -0.1679 -0.3018  0.6843
 1250SOL    HW1 4434   3.112   2.774   3.365 -0.1071  0.0710  0.8920
 1250SOL    HW2 4435   2.991   2.821   3.286 -0.5612 -3.1980 -0.5148
 1251SOL     OW 4436   4.616   3.980   2.014  0.6887 -0.4255 -0.1352
 1251SOL    HW1 4437   4.558   3.906   2.034  0.8995 -0.9029 -1.2129
 1251SOL    HW2 4438   4.651   3.960   1.927  0.0308  1.4165 -0.8673
 1252SOL     OW 4439   3.878   1.139   1.065 -0.1131 -0.4162  0.3846
 1252SOL    HW1 4440   3.826   1.064   1.036 -1.1668 -0.7250  2.8648
 1252SOL    HW2 4441   3.861   1.145   1.159  1.7239  1.5712  0.6534
 1253SOL     OW 4442   0.628   3.467   1.442 -0.4806  0.0055  0.4366
 1253SOL    HW1 4443   0.616   3.374   1.426 -0.0169  0.3322 -2.3399
 1253SOL    HW2 4444   0.668   3.500   1.361 -1.1067  2.6922  1.1307
 1254SOL     OW 4445   6.339   3.482   5.721 -0.4705 -0.0296 -0.2593
 1254SOL    HW1 4446   6.344   3.398   5.675 -2.2113  1.3715 -3.3343
 1254SOL    HW2 4447   6.406   3.536   5.680  0.8079  0.1205  1.8678
 1255SOL     OW 4448   1.229   5.029   3.266 -0.5345 -0.3401 -0.2404
 1255SOL    HW1 4449   1.311   5.021   3.216 -1.0643 -0.8681 -1.0437
 1255SOL    HW2 4450   1.161   5.040   3.200 -1.1549 -0.1891  0.4086
 1256SOL     OW 4451   2.864   5.830   3.466 -0.2703 -0.5829  0.3851
 1256SOL    HW1 4452   2.807   5.777   3.410 -2.8912  2.4230 -0.0888
 1256SOL    HW2 4453   2.854   5.919   3.432  3.6882  0.3871  1.2623
 1257SOL     OW 4454   4.625   4.189   0.755 -0.5157 -0.4369 -0.1500
 1257SOL    HW1 4455   4.695   4.254   0.747  1.1672 -2.0221  0.7455
 1257SOL    HW2 4456   4.585   4.186   0.668  0.6002  0.4540 -0.7276
 1258SOL     OW 4457   0.872   3.765   3.108  0.4548 -0.1764 -0.0084
 1258SOL    HW1 4458   0.958   3.723   3.104  0.0658 -1.2011  1.3891
 1258SOL    HW2 4459   0.813   3.701   3.069  0.5184  1.3054 -2.7663
 1259SOL     OW 4460   1.391   3.965   4.924  0.0484 -0.2127  0.3027
 1259SOL    HW1 4461   1.310   4.016   4.923 -0.0148 -0.3147 -0.4674
 1259SOL    HW2 4462   1.395   3.927   5.011 -0.6277 -0.0364  0.4122
 1260SOL     OW 4463   0.073   5.653   2.128  0.1457 -0.0125 -0.0743
 1260SOL    HW1 4464   0.008   5.661   2.059  0.0491  0.8572  0.1082
 1260SOL    HW2 4465   0.131   5.582   2.098 -0.2863 -0.1031 -0.7155
 1261SOL     OW 4466   6.207   3.370   3.062 -0.2393  0.4097 -0.3576
 1261SOL    HW1 4467   6.278   3.305   3.068 -0.6686 -0.1784 -1.3231
 1261SOL    HW2 4468   6.168   3.353   2.977 -1.9232  0.3217  0.4054
 1262SOL     OW 4469   4.689   4.787   3.370 -0.4516  0.3446  0.4111
 1262SOL    HW1 4470   4.615   4.736   3.404  0.1857 -2.1372 -1.6285
 1262SOL    HW2 4471   4.664   4.810   3.281  0.8463  0.2158 -0.0133
 1263SOL     OW 4472   4.532   0.554   0.512  0.6787  0.4161  0.1369
 1263SOL    HW1 4473   4.489   0.638   0.525  1.8704  1.0549  0.0190
 1263SOL    HW2 4474   4.478   0.492   0.562  0.5155  1.4548  1.2928
 1264SOL     OW 4475   3.587   1.855   2.005  0.1421  0.0252 -0.0233
 1264SOL    HW1 4476   3.625   1.821   2.086 -0.8835 -2.2159 -0.4177
 1264SOL    HW2 4477   3.662   1.889   1.955  0.8251  1.1298  1.6597
 1265SOL     OW 4478   4.111   0.886   4.684 -0.4656 -0.2489  0.3896
 1265SOL    HW1 4479   4.144   0.832   4.756 -1.1796  0.3376  1.1692
 1265SOL    HW2 4480   4.138   0.839   4.605  1.1179 -0.4391  1.0042
 1266SOL     OW 4481   2.603   4.257   5.337 -0.0322 -0.3145  0.0884
 1266SOL    HW1 4482   2.698   4.266   5.332 -0.0648 -0.6359 -1.5937
 1266SOL    HW2 4483   2.589   4.175   5.384  0.5720 -1.0012 -0.8910
 1267SOL     OW 4484   2.487   3.489   0.442 -0.4679 -0.1233 -0.5118
 1267SOL    HW1 4485   2.581   3.495   0.459 -0.3990  1.3124 -1.1875
 1267SOL    HW2 4486   2.478   3.516   0.350 -1.7193  2.1501  0.1809
 1268SOL     OW 4487   4.852   5.987   0.841 -0.3910 -0.1389 -0.2423
 1268SOL    HW1 4488   4.916   5.990   0.912 -1.1925 -0.6567  0.5191
 1268SOL    HW2 4489   4.898   6.025   0.766  0.5491  0.1967  0.4829
 1269SOL     OW 4490   0.989   2.069   4.894 -0.5063 -0.0225  0.0979
 1269SOL    HW1 4491   0.930   2.119   4.838 -0.9602 -0.8904 -0.2354
 1269SOL    HW2 4492   0.952   1.980   4.894 -1.1179  0.1545  2.6293
 1270SOL     OW 4493   4.457   4.197   1.956  0.1288  0.1029  0.0848
 1270SOL    HW1 4494   4.525   4.134   1.981 -1.8693 -1.2734  2.3565
 1270SOL    HW2 4495   4.404   4.151   1.891 -0.5778 -0.1116  0.7993
 1271SOL     OW 4496   5.318   1.561   3.448  0.2792  0.1201  0.2248
 1271SOL    HW1 4497   5.355   1.560   3.536 -0.8171 -0.2819  0.7056
 1271SOL    HW2 4498   5.375   1.620   3.398 -0.1681  1.8951  1.6939
 1272SOL     OW 4499   1.384   5.196   5.441 -0.5270 -0.0583  0.2481
 1272SOL    HW1 4500   1.463   5.210   5.390 -0.2436 -0.7390  0.4934
 1272SOL    HW2 4501   1.313   5.202   5.377 -0.1197 -1.7854 -0.4205
 1273SOL     OW 4502   0.200   2.186   3.556 -0.1502  0.8949 -0.0980
 1273SOL    HW1 4503   0.276   2.239   3.533 -0.0157  0.8183  0.1603
 1273SOL    HW2 4504   0.133   2.210   3.492  0.0274  1.1097 -0.2041
 1274SOL     OW 4505   4.749   3.181   1.869 -0.6693 -0.4011 -0.3605
 1274SOL    HW1 4506   4.685   3.233   1.918 -1.6661  0.5660 -2.5672
 1274SOL    HW2 4507   4.827   3.179   1.926 -1.6372  0.9319  1.0901
 1275SOL     OW 4508   5.661   4.164   0.109 -0.4168 -0.4977  0.7344
 1275SOL    HW1 4509   5.719   4.154   0.033 -0.2946 -1.0886  0.9026
 1275SOL    HW2 4510   5.713   4.212   0.173 -0.0084 -1.2785  0.9941
 1276SOL     OW 4511   3.697   6.457   3.709 -0.5199 -0.3195  0.0003
 1276SOL    HW1 4512   3.702   6.468   3.614 -0.9752 -1.4193 -0.1619
 1276SOL    HW2 4513   3.655   6.372   3.722 -1.4566  0.2755  1.1922
 1277SOL     OW 4514   3.580   4.692   3.765  0.3206  0.0941  0.1403
 1277SOL    HW1 4515   3.620   4.622   3.714  0.9486  1.4204 -1.2712
 1277SOL    HW2 4516   3.492   4.703   3.728  0.8859  1.2642 -0.9374
 1278SOL     OW 4517   1.789   3.281   5.191 -0.1824 -0.2216  0.2828
 1278SOL    HW1 4518   1.790   3.193   5.229 -1.2113 -0.0986  0.6129
 1278SOL    HW2 4519   1.716   3.325   5.234 -0.4374  0.4032 -0.7600
 1279SOL     OW 4520   2.237   5.826   1.037 -0.5924  0.0159 -0.2596
 1279SOL    HW1 4521   2.295   5.876   0.979 -0.8292 -0.8991 -1.3082
 1279SOL    HW2 4522   2.198   5.759   0.981 -2.8468  0.7099  0.3491
 1280SOL     OW 4523   3.374   1.833   1.561 -0.0003  0.1118 -0.2671
 1280SOL    HW1 4524   3.337   1.839   1.473  2.1236 -1.6133 -1.3748
 1280SOL    HW2 4525   3.407   1.921   1.580  1.5457  0.0013 -2.1952
 1281SOL     OW 4526   6.117   3.186   0.239  0.1067  0.1590 -0.1228
 1281SOL    HW1 4527   6.083   3.100   0.266  2.3526 -0.2727  1.5800
 1281SOL    HW2 4528   6.099   3.242   0.314  0.5658  0.6408 -0.3759
 1282SOL     OW 4529   3.926   5.057   4.991  0.0032  0.1540  0.9047
 1282SOL    HW1 4530   3.861   5.100   4.935  0.7036  0.4442  0.2963
 1282SOL    HW2 4531   3.969   4.994   4.933 -1.3534 -1.7926  1.9052
 1283SOL     OW 4532   3.152   2.953   0.109  0.4914 -0.4053 -0.2220
 1283SOL    HW1 4533   3.160   2.879   0.169  0.9140 -0.2272 -0.0573
 1283SOL    HW2 4534   3.239   2.964   0.071  0.8949  1.0826  1.0358
 1284SOL     OW 4535   0.909   5.477   5.267  0.3092 -0.5748 -0.0533
 1284SOL    HW1 4536   0.996   5.475   5.225  0.5682 -2.6338  0.4623
 1284SOL    HW2 4537   0.862   5.547   5.222  2.4993  1.1777  0.2151
 1285SOL     OW 4538   1.973   4.048   4.081 -0.2992  0.3309  0.2331
 1285SOL    HW1 4539   2.001   4.056   3.989  1.6755  1.5395  0.8808
 1285SOL    HW2 4540   1.902   4.111   4.090  1.5432  2.5615  0.2087
 1286SOL     OW 4541   1.474   4.710   5.416  0.0129 -0.1043  0.3857
 1286SOL    HW1 4542   1.510   4.661   5.491 -0.1582  0.4960  0.8702
 1286SOL    HW2 4543   1.405   4.764   5.454  0.6421  1.0119 -0.0142
 1287SOL     OW 4544   3.675   1.400   6.219 -0.2094 -0.1033  0.0211
 1287SOL    HW1 4545   3.589   1.433   6.194 -0.3974 -1.2672 -0.9923
 1287SOL    HW2 4546   3.736   1.447   6.162 -0.2268  0.3682  0.3940
 1288SOL     OW 4547   5.919   0.842   6.373 -0.4202  0.3945 -0.0975
 1288SOL    HW1 4548   5.900   0.850   6.279 -0.6065 -0.0117 -0.0948
 1288SOL    HW2 4549   5.894   0.927   6.409  0.1867  0.7551 -0.5048
 1289SOL     OW 4550   0.779   4.242   1.088  0.0169  0.4531  0.6004
 1289SOL    HW1 4551   0.835   4.233   1.165  0.4944 -0.5503  0.1621
 1289SOL    HW2 4552   0.691   4.256   1.123  0.1155 -0.6809  1.3550
 1290SOL     OW 4553   3.287   0.397   1.491 -0.0665  0.4396  0.1375
 1290SOL    HW1 4554   3.253   0.445   1.415  0.3908 -0.6896 -0.8062
 1290SOL    HW2 4555   3.245   0.311   1.486  0.8875 -0.0570  0.4828
 1291SOL     OW 4556   5.534   0.395   3.475 -0.4280  0.4980  0.3091
 1291SOL    HW1 4557   5.551   0.433   3.561  0.6882  1.1205 -0.1765
 1291SOL    HW2 4558   5.443   0.364   3.480 -1.1528  2.5775  0.9711
 1292SOL     OW 4559   4.905   6.167   1.493 -0.4149  0.2711  0.0469
 1292SOL    HW1 4560   4.916   6.166   1.589 -0.7965  3.2051  0.1988
 1292SOL    HW2 4561   4.982   6.214   1.461 -0.4002 -0.5064 -1.1316
 1293SOL     OW 4562   3.701   3.738   2.728 -0.1487 -0.4379 -0.1333
 1293SOL    HW1 4563   3.664   3.702   2.647  1.2382 -0.0338 -0.9865
 1293SOL    HW2 4564   3.758   3.810   2.699  0.3643 -0.2668  1.2022
 1294SOL     OW 4565   6.218   2.383   1.114  0.6804  0.1107  0.4562
 1294SOL    HW1 4566   6.158   2.320   1.073 -0.5519 -0.5646  3.0688
 1294SOL    HW2 4567   6.172   2.467   1.107 -0.0444 -0.1900  1.3384
 1295SOL     OW 4568   0.793   4.911   0.995  0.1429  0.2869 -0.4158
 1295SOL    HW1 4569   0.710   4.895   0.950  0.4257 -0.6185 -0.6308
 1295SOL    HW2 4570   0.772   4.901   1.088 -0.0238  0.1921 -0.4634
 1296SOL     OW 4571   3.319   1.334   3.438 -0.2009 -0.7958 -0.2574
 1296SOL    HW1 4572   3.293   1.280   3.513  1.3284  2.6070  3.0758
 1296SOL    HW2 4573   3.260   1.409   3.442  2.0609  1.0842 -0.2606
 1297SOL     OW 4574   5.474   6.031   0.993 -0.4812 -0.3114  0.1848
 1297SOL    HW1 4575   5.414   5.959   0.974  0.4255 -1.0640  0.0989
 1297SOL    HW2 4576   5.423   6.110   0.974 -2.0481 -0.8489  1.8363
 1298SOL     OW 4577   0.858   3.741   6.088 -0.2036 -0.3593  0.3926
 1298SOL    HW1 4578   0.866   3.658   6.042  0.0517  0.2126 -0.6126
 1298SOL    HW2 4579   0.933   3.744   6.147 -0.4808 -1.0478  0.7947
 1299SOL     OW 4580   0.893   4.603   2.324  0.3217  0.6589 -0.7075
 1299SOL    HW1 4581   0.826   4.666   2.352 -1.0560 -0.2047 -1.9316
 1299SOL    HW2 4582   0.861   4.518   2.354  1.2697  0.3114 -0.6441
 1300SOL     OW 4583   4.350   2.351   3.887  0.5996 -0.3638 -0.0487
 1300SOL    HW1 4584   4.282   2.285   3.878 -0.5465  0.9949 -2.3548
 1300SOL    HW2 4585   4.381   2.365   3.798  2.5664  0.4584  0.7121
 1301SOL     OW 4586   2.905   0.544   3.666 -0.1765  0.0546  0.0856
 1301SOL    HW1 4587   2.949   0.553   3.750 -0.9468 -0.4243  0.5478
 1301SOL    HW2 4588   2.959   0.481   3.617  1.0081  1.3204 -0.3018
 1302SOL     OW 4589   0.298   2.159   0.496 -1.0600  0.5484  0.5721
 1302SOL    HW1 4590   0.303   2.121   0.409  1.2556 -0.3589  1.0148
 1302SOL    HW2 4591   0.328   2.250   0.484 -2.8775  1.1235  0.1226
 1303SOL     OW 4592   0.021   4.127   2.848  0.1646  0.0420 -0.0503
 1303SOL    HW1 4593   0.026   4.095   2.938  1.7902  0.6067  0.1039
 1303SOL    HW2 4594  -0.059   4.180   2.846 -0.3834 -0.7256  0.7944
 1304SOL     OW 4595   1.282   4.763   2.287 -0.0332 -0.2560  0.4792
 1304SOL    HW1 4596   1.300   4.752   2.194 -2.5602 -0.4672 -0.0593
 1304SOL    HW2 4597   1.330   4.842   2.312  1.0789 -0.4790 -0.8586
 1305SOL     OW 4598   3.009   1.243   4.078 -0.0406  0.1451 -0.1661
 1305SOL    HW1 4599   2.915   1.255   4.092  0.0675 -0.6752  1.5761
 1305SOL    HW2 4600   3.046   1.332   4.084 -0.3420  0.1839  2.7735
 1306SOL     OW 4601   4.730   3.557   1.257  0.2359 -0.1479  0.0917
 1306SOL    HW1 4602   4.806   3.513   1.220  0.4898 -1.4432  1.9765
 1306SOL    HW2 4603   4.748   3.561   1.351 -1.7510  0.0319  0.5237
 1307SOL     OW 4604   1.224   2.813   5.097 -0.4527  0.8236 -0.0875
 1307SOL    HW1 4605   1.250   2.758   5.023 -0.5258  0.9610 -0.2158
 1307SOL    HW2 4606   1.258   2.900   5.076 -0.6209  0.9019 -0.0403
 1308SOL     OW 4607   4.094   1.469   0.774 -0.2933  0.4295 -0.0022
 1308SOL    HW1 4608   4.060   1.541   0.721 -0.1691 -0.2726 -1.0693
 1308SOL    HW2 4609   4.020   1.410   0.786 -0.3890  0.7114  0.8474
 1309SOL     OW 4610   2.272   0.647   1.330 -0.4368  0.5332 -0.2010
 1309SOL    HW1 4611   2.188   0.651   1.376  0.0797  0.2063  0.7952
 1309SOL    HW2 4612   2.280   0.556   1.302 -1.0345  0.8685 -1.5036
 1310SOL     OW 4613   4.578   2.584   4.360 -0.1514 -0.0421 -0.4410
 1310SOL    HW1 4614   4.551   2.497   4.330  1.6687 -1.1324  0.8325
 1310SOL    HW2 4615   4.611   2.627   4.282  0.5868 -1.2114 -0.8051
 1311SOL     OW 4616   0.247   3.904   3.060  0.0852 -0.2743  0.4202
 1311SOL    HW1 4617   0.298   3.975   3.021  0.2800 -0.4247  0.3990
 1311SOL    HW2 4618   0.313   3.845   3.098 -0.1065  0.0743  1.3335
 1312SOL     OW 4619   5.180   5.689   1.451 -0.5153  0.3480  0.4597
 1312SOL    HW1 4620   5.144   5.702   1.538  1.0920  3.1330  0.8114
 1312SOL    HW2 4621   5.181   5.776   1.412  0.2430 -0.5902 -1.7699
 1313SOL     OW 4622   4.929   1.799   4.280 -0.2348  0.1867 -0.1862
 1313SOL    HW1 4623   4.908   1.837   4.365 -1.2518 -0.4025 -0.1575
 1313SOL    HW2 4624   5.014   1.836   4.257 -0.3546  1.0311  0.6815
 1314SOL     OW 4625   2.934   3.987   1.059  0.3084  0.1284 -0.0350
 1314SOL    HW1 4626   2.968   4.074   1.036 -1.2085  0.4339 -1.2967
 1314SOL    HW2 4627   2.844   3.987   1.024 -0.8241 -0.8311  2.6388
 1315SOL     OW 4628   4.567   5.017   3.986  0.2281  0.8222 -0.4673
 1315SOL    HW1 4629   4.480   4.978   3.991 -0.8085  3.1490  1.3726
 1315SOL    HW2 4630   4.560   5.083   3.917  0.3060  1.4438  0.1035
 1316SOL     OW 4631   4.643   1.685   4.265  0.2132 -0.0893 -0.2391
 1316SOL    HW1 4632   4.707   1.615   4.249  0.1647 -0.0611 -0.5633
 1316SOL    HW2 4633   4.567   1.661   4.212  0.1785  0.1839 -0.3144
 1317SOL     OW 4634   3.013   3.504   5.199 -0.0659 -0.4056 -0.6412
 1317SOL    HW1 4635   3.072   3.469   5.132  0.6677 -0.3744 -0.0239
 1317SOL    HW2 4636   2.962   3.571   5.153  0.1493 -0.6608 -1.2629
 1318SOL     OW 4637   2.330   3.579   0.760  0.4571 -0.7801 -0.5853
 1318SOL    HW1 4638   2.288   3.590   0.845 -1.3064 -1.2093 -1.3400
 1318SOL    HW2 4639   2.313   3.662   0.714  1.3738 -0.5580 -0.5494
 1319SOL     OW 4640   2.629   1.381   0.120 -0.3154 -0.1461  0.0530
 1319SOL    HW1 4641   2.699   1.399   0.182  0.1949  1.9662 -1.0370
 1319SOL    HW2 4642   2.564   1.332   0.171  0.7875  0.1160  1.7955
 1320SOL     OW 4643   5.491   0.161   6.286  0.0784 -0.1929 -0.1216
 1320SOL    HW1 4644   5.516   0.077   6.323 -0.0713 -0.5199 -0.7450
 1320SOL    HW2 4645   5.397   0.167   6.303 -0.0411 -0.4611 -0.6597
 1321SOL     OW 4646   4.915   4.858   0.693 -0.2062 -0.3543 -0.1373
 1321SOL    HW1 4647   4.908   4.766   0.670  1.5045 -0.4473 -0.4173
 1321SOL    HW2 4648   4.901   4.861   0.787 -0.3771 -0.8811 -0.1468
 1322SOL     OW 4649   3.199   2.681   2.519  0.6982  0.1825  0.3188
 1322SOL    HW1 4650   3.266   2.713   2.458  0.5646 -0.0030  0.0753
 1322SOL    HW2 4651   3.138   2.631   2.464  1.8750 -2.0660  0.9290
 1323SOL     OW 4652   1.277   1.243   1.777 -0.1714  0.3399  0.1468
 1323SOL    HW1 4653   1.282   1.337   1.758 -1.2663  0.4581  0.3925
 1323SOL    HW2 4654   1.278   1.238   1.872  1.2575 -0.0011  0.1380
 1324SOL     OW 4655   2.886   1.583   5.515  0.2305 -0.4695 -0.3581
 1324SOL    HW1 4656   2.955   1.569   5.579 -0.3283 -1.2299  0.0964
 1324SOL    HW2 4657   2.843   1.664   5.543 -1.3688 -1.8714  1.5422
 1325SOL     OW 4658   4.282   4.133   6.234 -0.6572  0.1190 -0.4846
 1325SOL    HW1 4659   4.212   4.120   6.171 -1.1843  1.3103 -0.1865
 1325SOL    HW2 4660   4.263   4.219   6.273 -0.6476 -0.7925  1.6568
 1326SOL     OW 4661   1.847   3.918   4.635 -0.2440  0.1704 -0.2871
 1326SOL    HW1 4662   1.771   3.944   4.687  1.5353  1.5940  1.7627
 1326SOL    HW2 4663   1.884   3.843   4.682  0.9153  0.9507  0.0828
 1327SOL     OW 4664   1.112   2.516   2.597 -0.5283  0.6147  0.1198
 1327SOL    HW1 4665   1.061   2.483   2.670 -1.0944  2.3106  0.5490
 1327SOL    HW2 4666   1.057   2.585   2.559  0.8477  1.5532 -0.2635
 1328SOL     OW 4667   2.726   0.086   6.159  0.1591 -0.1271 -0.0505
 1328SOL    HW1 4668   2.781   0.032   6.102  2.0996  1.1739  0.4695
 1328SOL    HW2 4669   2.643   0.094   6.113 -0.2617 -3.5171 -0.1278
 1329SOL     OW 4670   1.879   6.291   4.502 -0.3630  0.2443  0.0816
 1329SOL    HW1 4671   1.935   6.311   4.578 -0.5191  0.4622  0.1418
 1329SOL    HW2 4672   1.866   6.197   4.506  1.9454 -0.2138 -1.2717
 1330SOL     OW 4673   0.008   6.387   0.451 -0.2283  0.1876 -0.5490
 1330SOL    HW1 4674   0.009   6.392   0.356 -2.2161  0.5828 -0.5973
 1330SOL    HW2 4675   0.100   6.394   0.477  0.1898  2.3947 -2.3218
 1331SOL     OW 4676   5.998   6.450   4.027  0.3943 -0.3028 -0.4265
 1331SOL    HW1 4677   6.059   6.455   4.100 -1.0740 -1.0889  0.9159
 1331SOL    HW2 4678   5.916   6.421   4.066 -0.4972 -0.5771 -2.3698
 1332SOL     OW 4679   4.137   3.176   0.847  0.8218  0.0395 -0.1476
 1332SOL    HW1 4680   4.199   3.231   0.895  0.5916  0.3063 -0.1563
 1332SOL    HW2 4681   4.053   3.191   0.891  0.6884 -0.0287 -0.3793
 1333SOL     OW 4682   2.470   2.550   4.636  0.2968  0.4019 -0.0091
 1333SOL    HW1 4683   2.395   2.493   4.620  0.0297  0.3360  1.3763
 1333SOL    HW2 4684   2.436   2.638   4.623  0.6429  0.3163 -1.8815
 1334SOL     OW 4685   5.569   2.786   6.199 -0.8395  0.2525  0.2156
 1334SOL    HW1 4686   5.609   2.871   6.180 -1.2312  0.4952  0.4711
 1334SOL    HW2 4687   5.548   2.790   6.292 -1.4547  0.1262  0.0841
 1335SOL     OW 4688   4.847   0.247   6.204  0.2381  0.5099 -0.1175
 1335SOL    HW1 4689   4.802   0.252   6.119 -0.9827  0.1309  0.4821
 1335SOL    HW2 4690   4.845   0.337   6.237 -0.1364  0.4874 -0.0733
 1336SOL     OW 4691   4.659   1.991   1.872  0.5295  0.0734  0.3429
 1336SOL    HW1 4692   4.667   1.957   1.783  1.0533  1.0030  0.0238
 1336SOL    HW2 4693   4.593   1.935   1.913 -0.0526 -0.0816 -0.7699
 1337SOL     OW 4694   3.084   2.142   3.798 -0.2168 -0.0751  1.0203
 1337SOL    HW1 4695   3.171   2.180   3.809 -0.6502  1.2034  0.1424
 1337SOL    HW2 4696   3.053   2.175   3.714 -0.5100 -2.6123  0.0249
 1338SOL     OW 4697   3.892   3.235   5.201 -0.4129 -0.7479 -0.2865
 1338SOL    HW1 4698   3.919   3.314   5.154 -1.3579  0.3057  0.8727
 1338SOL    HW2 4699   3.970   3.210   5.251 -1.1120  1.7329  2.3221
 1339SOL     OW 4700   0.467   1.422   1.806 -0.4684  0.4696 -0.4072
 1339SOL    HW1 4701   0.498   1.463   1.886 -1.7176  0.1112  0.2915
 1339SOL    HW2 4702   0.524   1.455   1.738  0.4970  0.9351  0.6045
 1340SOL     OW 4703   0.227   1.819   0.379  0.7039 -0.1934  0.0196
 1340SOL    HW1 4704   0.315   1.830   0.415  0.3422 -0.0709  0.8920
 1340SOL    HW2 4705   0.203   1.906   0.348  0.6363 -0.0767  0.3913
 1341SOL     OW 4706   3.424   1.106   2.561  0.2539  1.2565  0.1252
 1341SOL    HW1 4707   3.337   1.104   2.521  0.2958 -0.1675  0.0506
 1341SOL    HW2 4708   3.416   1.048   2.637  1.4676  0.0941 -0.6047
 1342SOL     OW 4709   4.583   0.418   1.183  0.5914 -0.2557  0.0695
 1342SOL    HW1 4710   4.490   0.422   1.204  0.1961 -0.6175 -1.4457
 1342SOL    HW2 4711   4.627   0.425   1.267 -0.8611 -3.7815  1.2884
 1343SOL     OW 4712   5.919   0.297   5.889  0.1085 -0.3001 -0.1723
 1343SOL    HW1 4713   5.871   0.379   5.880 -0.2614 -0.3882  0.7989
 1343SOL    HW2 4714   5.892   0.263   5.975 -0.5468 -1.9646 -0.9912
 1344SOL     OW 4715   5.967   3.215   2.113 -0.6356 -0.2451  0.1101
 1344SOL    HW1 4716   6.025   3.260   2.174 -1.0042  0.2784  0.0771
 1344SOL    HW2 4717   5.899   3.177   2.170 -1.2631  0.6737 -0.0133
 1345SOL     OW 4718   5.138   1.599   2.387  0.0481 -0.1524 -0.1489
 1345SOL    HW1 4719   5.076   1.526   2.387 -0.7120  0.3968 -2.7797
 1345SOL    HW2 4720   5.211   1.568   2.333  0.6145  0.3356  0.3324
 1346SOL     OW 4721   0.679   1.681   0.969 -0.2296  0.2025  0.3359
 1346SOL    HW1 4722   0.671   1.712   1.059  2.3963  2.0253  0.0731
 1346SOL    HW2 4723   0.722   1.596   0.977 -0.6314  0.0378  0.8097
 1347SOL     OW 4724   3.040   5.989   1.137 -0.2448 -0.2709  0.4474
 1347SOL    HW1 4725   2.984   5.928   1.186  0.5618 -0.7524  0.7933
 1347SOL    HW2 4726   2.979   6.048   1.094 -1.0097 -0.5080  1.1755
 1348SOL     OW 4727   5.886   4.534   0.944 -0.8809  0.2067  0.8437
 1348SOL    HW1 4728   5.810   4.514   0.889 -1.0876  0.2271  1.1210
 1348SOL    HW2 4729   5.900   4.628   0.932 -0.7975  0.1720  0.6647
 1349SOL     OW 4730   2.393   5.705   4.281 -0.4186  0.0332  0.1670
 1349SOL    HW1 4731   2.363   5.639   4.218 -0.7903  0.3188  0.0399
 1349SOL    HW2 4732   2.424   5.778   4.228 -1.5461  0.6372  0.2970
 1350SOL     OW 4733   3.409   5.959   5.576  0.5084 -0.1085  0.6723
 1350SOL    HW1 4734   3.477   5.892   5.582 -0.0278 -0.5753  1.7595
 1350SOL    HW2 4735   3.336   5.916   5.532  1.0760  0.5644 -1.0449
 1351SOL     OW 4736   2.684   4.581   4.655 -0.2524  0.4670  0.0981
 1351SOL    HW1 4737   2.741   4.621   4.721 -2.0606  0.6945  1.6141
 1351SOL    HW2 4738   2.690   4.638   4.579 -0.2114  1.7668  1.0488
 1352SOL     OW 4739   5.002   4.165   2.684  0.3248  0.1856  0.2102
 1352SOL    HW1 4740   5.092   4.161   2.650  0.0094  0.4853 -0.7001
 1352SOL    HW2 4741   4.952   4.107   2.626 -0.1194  0.2180  0.5540
 1353SOL     OW 4742   4.481   0.697   6.468  0.0107 -0.0807  0.2169
 1353SOL    HW1 4743   4.428   0.702   6.547 -0.9421  1.8976 -0.4750
 1353SOL    HW2 4744   4.426   0.650   6.405 -0.8469  1.6734 -0.3959
 1354SOL     OW 4745   6.359   0.499   2.152  0.0983 -0.2366 -0.7071
 1354SOL    HW1 4746   6.367   0.581   2.103  1.7187 -0.6787 -1.2584
 1354SOL    HW2 4747   6.359   0.526   2.244  2.0682  0.3530 -0.8309
 1355SOL     OW 4748   0.587   3.287   3.659 -0.2131  0.2736 -0.3775
 1355SOL    HW1 4749   0.533   3.247   3.727 -0.4199 -0.5561 -1.0152
 1355SOL    HW2 4750   0.675   3.289   3.695 -0.8571  3.1557  1.3628
 1356SOL     OW 4751   3.594   2.482   6.382  0.3680 -0.1386 -0.7155
 1356SOL    HW1 4752   3.667   2.423   6.364  0.0854 -0.5799 -0.4442
 1356SOL    HW2 4753   3.516   2.431   6.359  0.0411 -0.3782  0.8136
 1357SOL     OW 4754   3.278   3.631   6.001  0.2344 -0.2490  0.2830
 1357SOL    HW1 4755   3.262   3.537   6.005 -0.4504 -0.1752 -0.5770
 1357SOL    HW2 4756   3.266   3.654   5.909 -3.3416  1.3211  0.9597
 1358SOL     OW 4757   1.619   1.459   5.718  0.6187  0.2805 -0.2926
 1358SOL    HW1 4758   1.566   1.507   5.782 -0.2183 -1.0518  0.0498
 1358SOL    HW2 4759   1.586   1.489   5.633 -0.8513 -0.6249 -0.0897
 1359SOL     OW 4760   1.665   3.889   6.349  0.1639  0.4859  0.0050
 1359SOL    HW1 4761   1.760   3.882   6.360  0.5097  1.3252 -1.9694
 1359SOL    HW2 4762   1.652   3.882   6.254 -1.7966 -0.0282  0.2725
 1360SOL     OW 4763   0.841   0.418   3.689 -0.0683  0.1245  0.0402
 1360SOL    HW1 4764   0.829   0.350   3.755  4.2267  0.1801  1.1729
 1360SOL    HW2 4765   0.791   0.492   3.722 -0.9225 -0.9686  1.3193
 1361SOL     OW 4766   3.086   5.301   2.648  0.5258  0.1843  0.7927
 1361SOL    HW1 4767   3.052   5.221   2.610 -1.0119  1.3227 -0.3335
 1361SOL    HW2 4768   3.107   5.357   2.573 -2.4959  2.4584  1.4302
 1362SOL     OW 4769   0.414   3.119   5.262  0.4598  0.3782  0.0692
 1362SOL    HW1 4770   0.460   3.174   5.326 -1.1771  0.4540  1.2748
 1362SOL    HW2 4771   0.445   3.030   5.280 -0.8742  0.2142  1.9082
 1363SOL     OW 4772   2.045   6.049   1.492  0.0744 -0.1727 -0.9423
 1363SOL    HW1 4773   2.023   5.962   1.523  0.5059 -0.0498 -0.2585
 1363SOL    HW2 4774   2.041   6.043   1.397  0.6809 -1.0930 -0.9152
 1364SOL     OW 4775   0.293   0.072   2.796 -0.1187 -0.1033  0.0162
 1364SOL    HW1 4776   0.220   0.107   2.848 -0.9181 -2.4608  0.5828
 1364SOL    HW2 4777   0.366   0.067   2.858 -0.0530  0.3043 -0.0201
 1365SOL     OW 4778   0.009   0.635   1.917 -0.3859 -0.7879  0.3210
 1365SOL    HW1 4779   0.021   0.663   2.008  1.7882  1.7819 -0.6053
 1365SOL    HW2 4780  -0.071   0.679   1.889  1.1361  1.9630 -0.0842
 1366SOL     OW 4781   2.884   4.754   0.716 -0.0412 -0.3141  0.2887
 1366SOL    HW1 4782   2.863   4.813   0.644 -0.7942 -0.4980  0.3483
 1366SOL    HW2 4783   2.826   4.678   0.702  0.8889 -1.0306  0.2236
 1367SOL     OW 4784   3.688   3.559   2.110 -0.3765  0.9128  0.1094
 1367SOL    HW1 4785   3.706   3.648   2.139  0.6842  0.5696  0.5598
 1367SOL    HW2 4786   3.608   3.535   2.157 -0.0838  1.2656  0.8149
 1368SOL     OW 4787   5.868   1.296   0.677  0.0061  0.2379  0.2801
 1368SOL    HW1 4788   5.885   1.387   0.700 -2.6349  1.2479 -1.2937
 1368SOL    HW2 4789   5.938   1.273   0.616 -0.5502  2.0470 -1.1338
 1369SOL     OW 4790   1.461   4.268   2.226 -0.3949 -0.4934  0.1756
 1369SOL    HW1 4791   1.379   4.312   2.247 -0.6229 -0.8477  0.0261
 1369SOL    HW2 4792   1.510   4.332   2.174  0.4458  0.6571  2.2393
 1370SOL     OW 4793   3.819   4.098   5.453  0.6108 -0.6561  0.2856
 1370SOL    HW1 4794   3.849   4.114   5.543 -2.1939 -0.7918  1.3461
 1370SOL    HW2 4795   3.864   4.164   5.401 -0.1081  1.6046  2.3325
 1371SOL     OW 4796   0.947   5.469   3.115  0.2029 -0.2414 -0.1313
 1371SOL    HW1 4797   0.951   5.483   3.209 -0.1454  0.2247 -0.1812
 1371SOL    HW2 4798   1.019   5.409   3.096  1.2846  0.8992  0.2139
 1372SOL     OW 4799   3.545   5.479   4.074  0.1483 -0.2421 -0.4372
 1372SOL    HW1 4800   3.632   5.455   4.043  0.2607 -1.6804  0.8656
 1372SOL    HW2 4801   3.561   5.541   4.145  0.0912 -0.1415 -0.5129
 1373SOL     OW 4802   6.181   0.761   2.535 -0.0595 -0.6505 -0.1230
 1373SOL    HW1 4803   6.217   0.821   2.470 -0.6391  1.6217  1.5296
 1373SOL    HW2 4804   6.103   0.806   2.569 -1.3934 -3.0303  0.1656
 1374SOL     OW 4805   2.580   0.990   5.639  0.1399  0.0770 -0.0713
 1374SOL    HW1 4806   2.643   1.002   5.567 -0.8943  0.3797 -0.9555
 1374SOL    HW2 4807   2.618   1.039   5.712  2.1684 -1.7835  0.2408
 1375SOL     OW 4808   6.440   4.448   0.631 -0.4397 -0.3144 -0.1693
 1375SOL    HW1 4809   6.464   4.468   0.541 -0.4087 -0.1114 -0.1159
 1375SOL    HW2 4810   6.368   4.509   0.651  0.5751  0.7219  0.4560
 1376SOL     OW 4811   1.712   3.586   4.214 -0.3453  0.1774 -0.0242
 1376SOL    HW1 4812   1.621   3.575   4.187 -0.2303  0.1658 -0.4167
 1376SOL    HW2 4813   1.729   3.680   4.205  0.3347 -0.0909 -2.1280
 1377SOL     OW 4814   3.738   0.071   1.381 -0.0731  0.3737 -0.1212
 1377SOL    HW1 4815   3.792   0.028   1.314  0.3103 -1.0211  1.0483
 1377SOL    HW2 4816   3.663   0.105   1.332  2.2355  3.3102 -2.0029
 1378SOL     OW 4817   3.982   1.582   0.331  0.2843 -0.3625 -0.4636
 1378SOL    HW1 4818   3.889   1.605   0.324 -0.3077 -0.7901  3.4520
 1378SOL    HW2 4819   3.983   1.487   0.318 -0.0753 -0.5381  0.6597
 1379SOL     OW 4820   0.796   1.872   6.469 -0.1059 -0.5467  0.3843
 1379SOL    HW1 4821   0.811   1.856   6.376  1.0889  2.7198 -0.1217
 1379SOL    HW2 4822   0.701   1.876   6.479 -0.2462 -1.1575 -0.6282
 1380SOL     OW 4823   4.943   2.605   0.627  0.1446 -0.2903 -0.0345
 1380SOL    HW1 4824   4.990   2.524   0.608  1.9506  0.3328  1.3911
 1380SOL    HW2 4825   4.850   2.581   0.623  0.6008 -2.1172 -0.8202
 1381SOL     OW 4826   6.298   5.749   1.639  0.3530 -0.1731  0.4514
 1381SOL    HW1 4827   6.360   5.712   1.576 -1.6273 -0.4147 -1.4744
 1381SOL    HW2 4828   6.271   5.832   1.600 -0.4391  0.0001  1.3208
 1382SOL     OW 4829   5.641   3.140   2.694  0.4572  0.2045  0.4254
 1382SOL    HW1 4830   5.683   3.055   2.689 -0.2700 -0.3447  2.5285
 1382SOL    HW2 4831   5.623   3.152   2.787 -0.4683  2.1638  0.0428
 1383SOL     OW 4832   0.161   0.578   1.265  0.5267  0.0087 -0.3395
 1383SOL    HW1 4833   0.199   0.504   1.219 -1.2155 -1.6436  0.7215
 1383SOL    HW2 4834   0.075   0.590   1.225 -1.3950 -1.9929  2.6923
 1384SOL     OW 4835   3.312   4.417   4.040 -0.2418 -0.1934 -0.0297
 1384SOL    HW1 4836   3.342   4.499   4.079 -0.6858 -0.6482  1.3244
 1384SOL    HW2 4837   3.364   4.408   3.960 -0.4477  1.5771 -0.3939
 1385SOL     OW 4838   3.157   4.772   0.241 -0.9334  0.0787 -0.1942
 1385SOL    HW1 4839   3.177   4.859   0.206  1.8121 -0.8412 -1.1774
 1385SOL    HW2 4840   3.210   4.765   0.321 -0.3029 -1.0521 -0.6907
 1386SOL     OW 4841   3.359   5.463   2.279  0.1865  0.2378  0.1699
 1386SOL    HW1 4842   3.326   5.537   2.227 -0.4879 -0.8100 -0.9496
 1386SOL    HW2 4843   3.441   5.494   2.315  0.9689  0.8571 -1.9851
 1387SOL     OW 4844   2.621   6.334   0.702 -0.3477  0.1464 -0.3896
 1387SOL    HW1 4845   2.636   6.336   0.607 -1.1910  1.2918 -0.5241
 1387SOL    HW2 4846   2.573   6.252   0.716 -0.8179  0.2977 -1.0550
 1388SOL     OW 4847   4.547   4.885   4.672 -0.3922  0.4015  0.3858
 1388SOL    HW1 4848   4.570   4.807   4.621 -0.7142  0.1510  0.6193
 1388SOL    HW2 4849   4.627   4.909   4.718 -0.9901 -1.5362  2.6359
 1389SOL     OW 4850   0.014   4.170   2.370 -0.1661  0.0214  0.0143
 1389SOL    HW1 4851   0.075   4.238   2.344 -1.1014  0.2300 -1.8026
 1389SOL    HW2 4852   0.043   4.143   2.457  1.7136  0.9768 -0.2804
 1390SOL     OW 4853   1.754   5.172   1.964  0.0289 -0.5156  0.2077
 1390SOL    HW1 4854   1.722   5.231   1.896  0.9077 -0.1846  0.0683
 1390SOL    HW2 4855   1.710   5.088   1.947 -1.1312  0.0520  0.3320
 1391SOL     OW 4856   5.295   0.342   0.085 -0.6127 -0.3598  0.7832
 1391SOL    HW1 4857   5.217   0.374   0.039 -0.0259 -0.9651 -0.6780
 1391SOL    HW2 4858   5.264   0.268   0.136 -1.1883  0.0372  1.0231
 1392SOL     OW 4859   0.543   6.488   2.052 -0.2259  0.5715 -0.0880
 1392SOL    HW1 4860   0.548   6.546   1.976  1.9257 -0.2681 -0.6835
 1392SOL    HW2 4861   0.622   6.434   2.045 -1.4924 -1.5583  1.1304
 1393SOL     OW 4862   0.591   1.602   2.328  0.4920  0.3212  0.5343
 1393SOL    HW1 4863   0.565   1.645   2.247 -1.4441  1.3251  1.6167
 1393SOL    HW2 4864   0.685   1.621   2.337  0.4578  1.2542 -0.8203
 1394SOL     OW 4865   6.065   3.943   1.121 -0.0624 -0.2243  0.3606
 1394SOL    HW1 4866   6.131   3.874   1.116  0.2078 -0.0470  1.2873
 1394SOL    HW2 4867   6.113   4.020   1.153 -0.2502  0.5461 -1.1237
 1395SOL     OW 4868   5.765   1.565   0.491  0.4826  0.3041 -0.3746
 1395SOL    HW1 4869   5.848   1.611   0.475  0.5870  0.3021  0.1412
 1395SOL    HW2 4870   5.791   1.475   0.511  0.2601 -0.0745 -1.7083
 1396SOL     OW 4871   6.237   1.044   0.086  0.5794  0.8605 -0.2086
 1396SOL    HW1 4872   6.273   1.132   0.098  2.1919  0.4279 -1.4436
 1396SOL    HW2 4873   6.315   0.988   0.079 -0.1943 -0.0108 -4.0989
 1397SOL     OW 4874   2.235   4.045   0.027  0.0400 -0.3867 -0.0968
 1397SOL    HW1 4875   2.256   4.119   0.084  0.6496  0.3032 -1.2058
 1397SOL    HW2 4876   2.161   4.074  -0.025  0.2052 -0.5926 -0.4529
 1398SOL     OW 4877   6.135   0.102   5.906 -0.1860 -0.3012 -0.9225
 1398SOL    HW1 4878   6.061   0.144   5.949  0.1821 -1.5040  1.0269
 1398SOL    HW2 4879   6.101   0.071   5.822 -1.5584  0.2056 -0.5685
 1399SOL     OW 4880   1.305   2.312   0.863 -0.5846 -0.1354  0.4754
 1399SOL    HW1 4881   1.297   2.218   0.880 -1.3560  0.0464  1.2106
 1399SOL    HW2 4882   1.388   2.321   0.817 -0.0879 -1.0850  1.1409
 1400SOL     OW 4883   2.457   4.049   5.950  0.1052  0.4961 -0.1923
 1400SOL    HW1 4884   2.540   4.066   5.906  0.3195 -0.0550 -0.0066
 1400SOL    HW2 4885   2.446   4.125   6.008  0.5339  0.5256 -0.1395
 1401SOL     OW 4886   1.978   1.338   2.308 -0.3732 -0.2453 -0.4676
 1401SOL    HW1 4887   1.961   1.386   2.389  1.8697 -1.1898  0.6768
 1401SOL    HW2 4888   1.997   1.406   2.243  0.6530  0.5038  0.5668
 1402SOL     OW 4889   3.471   5.747   0.317 -0.2398 -0.3077  0.1082
 1402SOL    HW1 4890   3.405   5.807   0.283 -1.1160 -1.5416 -0.4530
 1402SOL    HW2 4891   3.421   5.671   0.347  0.9357 -1.4662 -0.7226
 1403SOL     OW 4892   4.796   1.535   3.009  0.4135  0.7963  0.1968
 1403SOL    HW1 4893   4.771   1.485   3.086 -1.3843 -1.4938 -1.6929
 1403SOL    HW2 4894   4.877   1.579   3.033  0.3462 -0.4697  3.0736
 1404SOL     OW 4895   5.134   2.379   6.173 -0.0670  0.0517  0.0221
 1404SOL    HW1 4896   5.181   2.378   6.090 -0.5291 -0.3388 -0.2403
 1404SOL    HW2 4897   5.202   2.393   6.239  0.6480 -1.9394 -0.2086
 1405SOL     OW 4898   0.590   1.280   3.222  0.9162 -0.2065 -0.1624
 1405SOL    HW1 4899   0.506   1.322   3.242  1.8659  1.7627 -0.0610
 1405SOL    HW2 4900   0.592   1.275   3.127  0.6958 -0.2226 -0.1681
 1406SOL     OW 4901   1.373   0.506   1.439 -0.0429  0.5199  0.0702
 1406SOL    HW1 4902   1.362   0.441   1.371 -1.7574 -0.4338  1.1846
 1406SOL    HW2 4903   1.390   0.455   1.519  0.2285  1.5119  0.6721
 1407SOL     OW 4904   3.885   1.839   6.182 -1.2752 -0.2542  0.1713
 1407SOL    HW1 4905   3.933   1.889   6.116 -2.4882  1.2764  0.4129
 1407SOL    HW2 4906   3.928   1.753   6.182  1.5113  1.0261  0.4056
 1408SOL     OW 4907   2.958   1.706   2.212  0.0138  0.5402 -0.2544
 1408SOL    HW1 4908   3.036   1.713   2.157  0.9716 -1.4789  0.7178
 1408SOL    HW2 4909   2.905   1.783   2.190  0.6974  0.2212 -3.3904
 1409SOL     OW 4910   0.575   1.874   6.074 -0.7056  0.6080  0.5852
 1409SOL    HW1 4911   0.592   1.815   6.147 -1.4776  0.4487  0.6415
 1409SOL    HW2 4912   0.618   1.956   6.099  0.0817  0.1823  0.6577
 1410SOL     OW 4913   6.483   4.007   3.445 -0.0711  0.2936 -0.1958
 1410SOL    HW1 4914   6.481   4.008   3.350 -2.8446 -0.0507 -0.2056
 1410SOL    HW2 4915   6.560   3.954   3.466 -0.0077 -0.5355 -2.2552
 1411SOL     OW 4916   4.255   2.986   1.950 -0.6029  0.1730 -0.1452
 1411SOL    HW1 4917   4.230   3.071   1.987 -2.9495 -0.9787  1.1219
 1411SOL    HW2 4918   4.306   2.944   2.020  0.4414  0.4369 -0.7219
 1412SOL     OW 4919   1.269   2.794   0.555 -0.2711 -0.2260  0.2993
 1412SOL    HW1 4920   1.317   2.715   0.579 -0.8348 -0.6962 -0.0816
 1412SOL    HW2 4921   1.183   2.762   0.528 -0.6841  0.5688  0.6481
 1413SOL     OW 4922   4.926   1.652   1.295  0.0689 -0.2343  0.5380
 1413SOL    HW1 4923   4.962   1.566   1.314  0.2740 -0.3091 -0.1432
 1413SOL    HW2 4924   4.931   1.659   1.199  0.3868  0.6758  0.6125
 1414SOL     OW 4925   1.858   4.770   1.497  0.2983  0.5841  0.4900
 1414SOL    HW1 4926   1.859   4.693   1.441  0.8076  0.5713  0.5134
 1414SOL    HW2 4927   1.932   4.758   1.556 -1.1323 -0.1825  2.2378
 1415SOL     OW 4928   3.530   3.597   3.577  0.0374 -0.1144 -0.2977
 1415SOL    HW1 4929   3.470   3.527   3.604 -0.4653 -1.0100 -3.3152
 1415SOL    HW2 4930   3.617   3.563   3.598 -0.2382 -1.3736 -1.0865
 1416SOL     OW 4931   5.292   0.628   2.103  0.4828 -0.3061 -0.0181
 1416SOL    HW1 4932   5.268   0.717   2.128  0.1754 -0.2440 -0.5065
 1416SOL    HW2 4933   5.318   0.586   2.184 -0.5074 -0.1180  0.4178
 1417SOL     OW 4934   4.979   1.038   2.171  0.9339 -0.1623 -0.0200
 1417SOL    HW1 4935   5.069   1.070   2.164  0.2646  1.7446 -0.5271
 1417SOL    HW2 4936   4.928   1.098   2.116 -0.6277 -1.3034  0.1216
 1418SOL     OW 4937   0.666   6.150   5.895 -0.5836 -0.0113  0.0893
 1418SOL    HW1 4938   0.719   6.101   5.832 -1.8292 -2.5555  0.8902
 1418SOL    HW2 4939   0.580   6.156   5.854 -0.4475  1.7332 -0.0395
 1419SOL     OW 4940   5.148   6.065   2.822  0.0704  0.6564  0.2428
 1419SOL    HW1 4941   5.181   6.141   2.870 -0.3207  0.5776  0.6430
 1419SOL    HW2 4942   5.145   5.995   2.888  1.4244 -0.0099 -0.3404
 1420SOL     OW 4943   1.368   6.288   2.774 -0.3227  0.5247 -0.1939
 1420SOL    HW1 4944   1.392   6.356   2.838 -2.0182  0.8736  0.1095
 1420SOL    HW2 4945   1.365   6.335   2.691 -1.2022  0.7670 -0.0303
 1421SOL     OW 4946   0.257   3.775   6.352 -0.2495  0.0941  0.6093
 1421SOL    HW1 4947   0.274   3.682   6.337 -1.6418  0.3652 -4.3933
 1421SOL    HW2 4948   0.171   3.778   6.394 -0.7485 -0.9152 -0.2966
 1422SOL     OW 4949   1.658   1.565   4.497 -0.0612  0.0262 -0.0427
 1422SOL    HW1 4950   1.585   1.534   4.552  1.4445 -2.0765  0.8926
 1422SOL    HW2 4951   1.625   1.557   4.408 -0.7251 -1.7875  0.3108
 1423SOL     OW 4952   2.000   5.446   4.673 -0.0702 -0.2341 -0.4631
 1423SOL    HW1 4953   1.935   5.447   4.743 -1.7730  0.9128 -1.9929
 1423SOL    HW2 4954   2.074   5.497   4.708 -0.7704  0.0759  0.5960
 1424SOL     OW 4955   5.021   6.080   0.646 -0.1144  0.0938 -0.1191
 1424SOL    HW1 4956   5.101   6.030   0.657 -1.5053 -2.2758  0.0346
 1424SOL    HW2 4957   5.045   6.152   0.588  1.9584 -0.8999 -0.5925
 1425SOL     OW 4958   3.883   0.479   2.663 -0.3530  0.5071  0.4430
 1425SOL    HW1 4959   3.837   0.529   2.730 -0.3342 -0.9050  1.5731
 1425SOL    HW2 4960   3.899   0.541   2.593 -0.1267  2.1172  1.8620
 1426SOL     OW 4961   3.554   3.821   6.486  0.0532 -0.0862 -0.2163
 1426SOL    HW1 4962   3.492   3.751   6.469  0.3120  0.2367 -2.8582
 1426SOL    HW2 4963   3.614   3.784   6.552 -2.1819 -0.7907  1.5526
 1427SOL     OW 4964   5.268   5.359   3.418 -0.4802  0.1852 -0.1051
 1427SOL    HW1 4965   5.203   5.429   3.427 -0.3232  0.2270  0.7193
 1427SOL    HW2 4966   5.347   5.394   3.459 -0.9150 -1.1458  1.9946
 1428SOL     OW 4967   0.657   4.903   2.012 -0.7212 -0.0429 -0.6682
 1428SOL    HW1 4968   0.692   4.964   2.077 -0.3688  0.5851 -1.4316
 1428SOL    HW2 4969   0.647   4.820   2.059  1.6252 -0.1985 -0.3696
 1429SOL     OW 4970   4.315   3.203   5.094 -0.5901 -0.3412 -0.5443
 1429SOL    HW1 4971   4.334   3.153   5.015  0.5906 -0.9633  0.1239
 1429SOL    HW2 4972   4.291   3.290   5.061  0.3306 -0.4538 -1.5627
 1430SOL     OW 4973   1.917   0.656   2.399 -0.1293 -0.1551 -0.2517
 1430SOL    HW1 4974   1.881   0.726   2.454 -1.4215 -0.7303 -0.3195
 1430SOL    HW2 4975   1.994   0.695   2.359 -0.0891  0.8121  0.6948
 1431SOL     OW 4976   4.852   2.900   1.287 -0.3782  0.3775  0.7138
 1431SOL    HW1 4977   4.859   2.995   1.294  0.4201  0.5104 -1.2832
 1431SOL    HW2 4978   4.854   2.882   1.193  1.9160 -1.7465  1.0544
 1432SOL     OW 4979   4.594   4.400   6.382  0.3430 -0.2680 -0.5153
 1432SOL    HW1 4980   4.592   4.416   6.288 -0.3450  0.6542 -0.3583
 1432SOL    HW2 4981   4.512   4.436   6.414 -0.7859 -3.1454  0.0760
 1433SOL     OW 4982   5.139   3.123   0.408 -0.3325 -0.1645  0.1212
 1433SOL    HW1 4983   5.160   3.122   0.314  0.1705 -0.6114  0.2349
 1433SOL    HW2 4984   5.122   3.215   0.428 -0.4372 -0.0650 -0.4066
 1434SOL     OW 4985   1.740   1.240   4.910  0.4869 -0.6025  0.9045
 1434SOL    HW1 4986   1.684   1.295   4.965  0.9328  1.3907 -0.5184
 1434SOL    HW2 4987   1.693   1.235   4.826  1.7557 -0.0087  0.1214
 1435SOL     OW 4988   0.986   5.754   1.673  0.3978  0.9128 -0.1348
 1435SOL    HW1 4989   0.941   5.805   1.605 -0.2401  1.5442  0.7323
 1435SOL    HW2 4990   0.958   5.795   1.755 -1.5168 -1.8798  0.7475
 1436SOL     OW 4991   2.621   4.517   6.209  0.1261  0.0924 -0.6596
 1436SOL    HW1 4992   2.644   4.511   6.116 -0.6129 -2.5476 -0.7559
 1436SOL    HW2 4993   2.690   4.467   6.254 -0.8650 -0.8251 -0.1000
 1437SOL     OW 4994   1.672   2.080   5.489  0.2173  0.3296  0.1475
 1437SOL    HW1 4995   1.634   2.087   5.577 -0.6180 -1.4511 -0.0210
 1437SOL    HW2 4996   1.766   2.083   5.503  0.1319 -1.3471  1.2811
 1438SOL     OW 4997   4.349   2.070   4.817 -0.0319  0.0211  0.4274
 1438SOL    HW1 4998   4.364   2.038   4.906  2.4386 -0.1762  0.0044
 1438SOL    HW2 4999   4.337   1.991   4.765 -0.5209  0.1054  0.3999
 1439SOL     OW 5000   3.532   3.285   4.389 -0.4914  0.2873 -0.5661
 1439SOL    HW1 5001   3.446   3.259   4.421 -0.8343  0.4335 -1.3658
 1439SOL    HW2 5002   3.525   3.379   4.375  0.3196  0.6160  0.9668
 1440SOL     OW 5003   6.494   3.800   5.208 -0.5465  0.1213 -0.2183
 1440SOL    HW1 5004   6.573   3.772   5.254 -1.2128 -1.7213 -0.1229
 1440SOL    HW2 5005   6.431   3.816   5.277 -0.1111  2.2616 -0.2515
 1441SOL     OW 5006   4.012   1.053   3.805 -0.0187 -0.1669  0.2378
 1441SOL    HW1 5007   4.028   1.012   3.890  1.1138 -0.6558 -0.1908
 1441SOL    HW2 5008   4.085   1.114   3.794 -0.5693  0.4418 -0.0479
 1442SOL     OW 5009   1.316   3.473   4.646  0.3338 -0.4092  0.4342
 1442SOL    HW1 5010   1.246   3.471   4.581  0.8804  0.0331 -0.1866
 1442SOL    HW2 5011   1.273   3.456   4.729 -0.7521  1.3700  0.2755
 1443SOL     OW 5012   5.167   5.066   0.285 -0.3758 -0.0461  0.0849
 1443SOL    HW1 5013   5.082   5.088   0.325 -1.3417 -1.7654 -0.9198
 1443SOL    HW2 5014   5.192   4.983   0.326  0.0575 -0.3395 -0.7692
 1444SOL     OW 5015   5.288   0.493   0.546  0.2251  0.0473 -0.0024
 1444SOL    HW1 5016   5.240   0.471   0.626 -1.6026  0.0633 -1.0328
 1444SOL    HW2 5017   5.237   0.453   0.476 -0.1646  2.8560 -1.4647
 1445SOL     OW 5018   3.459   0.665   2.528  0.0072  0.1800  0.2458
 1445SOL    HW1 5019   3.474   0.728   2.598  1.9766  1.1018 -0.9294
 1445SOL    HW2 5020   3.418   0.715   2.458 -0.8069 -0.4572  0.2460
 1446SOL     OW 5021   4.939   0.011   3.269  0.1627 -0.0032 -0.1568
 1446SOL    HW1 5022   4.969   0.011   3.178 -0.5798 -0.8326 -0.4267
 1446SOL    HW2 5023   4.883  -0.066   3.275  1.3143 -0.7780  1.3904
 1447SOL     OW 5024   0.743   0.731   0.166  0.7620 -0.2494 -0.0863
 1447SOL    HW1 5025   0.674   0.795   0.184  0.7767  0.2878 -1.8133
 1447SOL    HW2 5026   0.700   0.660   0.119  1.3434  0.0475 -1.0966
 1448SOL     OW 5027   6.088   1.347   1.492  0.4155  0.2295  0.3205
 1448SOL    HW1 5028   6.120   1.290   1.422  0.0485  1.0347 -0.5266
 1448SOL    HW2 5029   6.163   1.357   1.551  1.4290  1.2111 -1.0525
 1449SOL     OW 5030   1.744   2.005   5.932  0.0534 -0.3531  0.4507
 1449SOL    HW1 5031   1.761   1.974   6.021 -1.2926 -2.0678  0.1783
 1449SOL    HW2 5032   1.658   1.968   5.910  0.0157  0.6589 -1.2859
 1450SOL     OW 5033   1.369   2.400   4.410  0.3661  0.3100 -0.0851
 1450SOL    HW1 5034   1.337   2.393   4.321 -0.1584 -1.6002  0.2134
 1450SOL    HW2 5035   1.311   2.343   4.461  1.0648  0.8434  1.3621
 1451SOL     OW 5036   3.178   1.045   4.342 -0.5921 -0.0630  0.5785
 1451SOL    HW1 5037   3.248   1.108   4.361  0.5363 -1.8530  2.8304
 1451SOL    HW2 5038   3.217   0.984   4.280 -0.5168 -0.4444  0.9975
 1452SOL     OW 5039   4.288   1.266   5.984 -0.0433  0.2597  0.4500
 1452SOL    HW1 5040   4.334   1.191   6.021  1.1097  0.5163 -0.4393
 1452SOL    HW2 5041   4.196   1.240   5.984  0.3478 -1.1654  0.1368
 1453SOL     OW 5042   5.067   3.942   5.266  0.0423 -0.0178 -0.3857
 1453SOL    HW1 5043   4.999   3.994   5.309 -0.4470 -1.7610  1.1126
 1453SOL    HW2 5044   5.147   3.963   5.314  0.4643  1.5191 -1.7050
 1454SOL     OW 5045   4.203   2.666   4.492 -0.6128 -0.4462 -0.3747
 1454SOL    HW1 5046   4.261   2.608   4.541  0.9255 -0.8130 -2.4786
 1454SOL    HW2 5047   4.163   2.721   4.558  2.3825  0.0372  1.2180
 1455SOL     OW 5048   3.997   1.391   2.704 -0.1600  0.3775  0.5881
 1455SOL    HW1 5049   3.908   1.359   2.717 -0.0167 -0.3524 -0.1832
 1455SOL    HW2 5050   4.050   1.312   2.692  0.0967  0.8873 -2.0677
 1456SOL     OW 5051   5.390   3.347   4.311 -0.0964 -0.5263  0.2248
 1456SOL    HW1 5052   5.461   3.296   4.273 -0.4473 -1.3011  0.5772
 1456SOL    HW2 5053   5.426   3.380   4.393  0.6678  1.1673 -0.7547
 1457SOL     OW 5054   4.699   2.518   0.664  0.2536  0.1111 -0.0266
 1457SOL    HW1 5055   4.725   2.428   0.679  0.9544  0.3892  0.4428
 1457SOL    HW2 5056   4.606   2.520   0.687  0.2469 -0.4742  0.0034
 1458SOL     OW 5057   0.281   1.925   6.007  0.1651 -0.4961  0.1626
 1458SOL    HW1 5058   0.280   2.008   6.053  1.3061  0.3828 -1.3098
 1458SOL    HW2 5059   0.367   1.922   5.964 -0.2740 -1.9229 -0.7026
 1459SOL     OW 5060   1.155   3.886   6.492  0.0662  0.8734 -0.3536
 1459SOL    HW1 5061   1.250   3.891   6.502  0.5082 -0.7062 -2.8336
 1459SOL    HW2 5062   1.125   3.841   6.571  1.4277  1.1074  0.3209
 1460SOL     OW 5063   6.165   2.136   4.614 -0.1896 -0.0551 -0.0313
 1460SOL    HW1 5064   6.083   2.166   4.653 -0.5142  0.4296 -1.0358
 1460SOL    HW2 5065   6.218   2.216   4.607 -0.5693  0.0876 -1.5701
 1461SOL     OW 5066   5.762   1.577   3.647 -0.0645  0.1011 -0.0593
 1461SOL    HW1 5067   5.672   1.545   3.640  0.2527 -0.5958 -1.3008
 1461SOL    HW2 5068   5.790   1.551   3.735 -0.5718 -1.0823 -0.2208
 1462SOL     OW 5069   4.829   1.598   3.620  0.1050 -0.4317 -0.2586
 1462SOL    HW1 5070   4.883   1.611   3.543 -0.0761  1.5209 -0.1000
 1462SOL    HW2 5071   4.887   1.619   3.694  0.3597 -2.5271  0.2118
 1463SOL     OW 5072   0.290   0.917   6.043 -0.4683 -0.4403 -0.2301
 1463SOL    HW1 5073   0.285   1.005   6.080 -2.3133 -1.3936  2.0549
 1463SOL    HW2 5074   0.272   0.929   5.949 -0.2294  1.6289 -0.0547
 1464SOL     OW 5075   0.695   2.089   0.653  0.1208 -0.1874 -0.3565
 1464SOL    HW1 5076   0.605   2.086   0.620  0.0085  1.5497 -0.2858
 1464SOL    HW2 5077   0.727   2.175   0.627  0.9524  0.1768  1.7181
 1465SOL     OW 5078   4.354   2.733   2.960 -0.0038 -0.1806  0.2711
 1465SOL    HW1 5079   4.291   2.706   2.893 -0.0309  2.9534 -1.1307
 1465SOL    HW2 5080   4.302   2.740   3.040 -0.3641 -2.1534  0.2645
 1466SOL     OW 5081   4.315   0.465   1.160  0.1893 -0.4147  0.2078
 1466SOL    HW1 5082   4.326   0.465   1.065  1.0044 -0.5242  0.2962
 1466SOL    HW2 5083   4.272   0.381   1.179  0.4685 -0.6095 -0.0135
 1467SOL     OW 5084   3.908   6.186   0.009  0.1021 -0.1969  0.5423
 1467SOL    HW1 5085   3.813   6.191  -0.000  0.2725  2.5820 -0.8316
 1467SOL    HW2 5086   3.938   6.150  -0.075  0.2971 -1.2772  1.0540
 1468SOL     OW 5087   2.841   3.302   5.729  0.0933  0.3702  0.8224
 1468SOL    HW1 5088   2.906   3.236   5.754  0.8603  0.6091 -0.4474
 1468SOL    HW2 5089   2.878   3.385   5.759  0.4801  0.5301 -0.0909
 1469SOL     OW 5090   0.135   4.925   5.683 -0.6095  0.3622 -0.4082
 1469SOL    HW1 5091   0.222   4.932   5.722 -0.3747  0.7581 -1.0108
 1469SOL    HW2 5092   0.097   4.847   5.725 -1.2926  2.0407  2.4277
 1470SOL     OW 5093   6.148   5.905   6.157  0.6412 -0.2147  0.0747
 1470SOL    HW1 5094   6.065   5.947   6.136  1.6276  0.8207 -2.1607
 1470SOL    HW2 5095   6.180   5.949   6.235  0.5795  1.7081 -0.9378
 1471SOL     OW 5096   3.354   0.472   0.502  1.0639  0.1031 -0.3017
 1471SOL    HW1 5097   3.362   0.524   0.581  4.0626 -0.8730  0.1671
 1471SOL    HW2 5098   3.369   0.381   0.530 -1.3368 -0.7622 -1.4982
 1472SOL     OW 5099   2.616   0.056   6.408  0.0830 -0.2203 -1.0085
 1472SOL    HW1 5100   2.659   0.126   6.458 -0.1390  0.1535 -1.3305
 1472SOL    HW2 5101   2.664   0.054   6.325  1.1901 -1.6065 -0.3841
 1473SOL     OW 5102   2.005   4.530   0.196 -0.1003  0.3847 -0.4932
 1473SOL    HW1 5103   1.950   4.529   0.275  0.6743  0.8192  0.0620
 1473SOL    HW2 5104   2.095   4.523   0.229  0.4030  2.7180 -1.1756
 1474SOL     OW 5105   1.804   2.345   3.649  0.0196 -0.3789  0.5173
 1474SOL    HW1 5106   1.727   2.316   3.697  0.1663  0.2447  1.1410
 1474SOL    HW2 5107   1.778   2.428   3.609 -0.0675 -0.8384 -0.4171
 1475SOL     OW 5108   2.802   0.867   2.791 -0.0823  0.3684 -0.4992
 1475SOL    HW1 5109   2.817   0.961   2.800  1.3464  0.0553  0.9187
 1475SOL    HW2 5110   2.887   0.832   2.765 -0.0801 -0.7093  0.8299
 1476SOL     OW 5111   1.222   4.418   2.132 -0.4345 -0.1271 -0.4570
 1476SOL    HW1 5112   1.161   4.484   2.098  0.8142  0.4685 -1.6473
 1476SOL    HW2 5113   1.182   4.389   2.214 -1.3208  1.6966 -0.1715
 1477SOL     OW 5114   5.490   1.580   3.070  0.0671  1.4611  0.3004
 1477SOL    HW1 5115   5.570   1.627   3.045 -0.1684  0.9664 -1.5784
 1477SOL    HW2 5116   5.513   1.533   3.150  0.9084  3.1698  1.1117
 1478SOL     OW 5117   6.177   2.203   2.084  0.0805 -0.3308  0.0932
 1478SOL    HW1 5118   6.141   2.152   2.012  1.0209 -1.6390  0.4945
 1478SOL    HW2 5119   6.240   2.144   2.126  1.5100  1.2906  0.3609
 1479SOL     OW 5120   5.507   3.084   4.728 -0.0081 -0.0835 -0.1934
 1479SOL    HW1 5121   5.590   3.123   4.701  0.3925 -0.5874  0.2675
 1479SOL    HW2 5122   5.450   3.092   4.652 -0.1893  2.0579  0.1152
 1480SOL     OW 5123   0.110   4.883   0.653 -0.5107 -0.2257 -0.4398
 1480SOL    HW1 5124   0.095   4.829   0.731 -1.9986  0.7153 -0.0346
 1480SOL    HW2 5125   0.044   4.854   0.591 -0.7231  0.4821 -0.5538
 1481SOL     OW 5126   2.064   5.458   3.981  0.1219  0.3274 -0.2660
 1481SOL    HW1 5127   1.986   5.453   4.036 -1.0021  0.5473 -1.7685
 1481SOL    HW2 5128   2.036   5.423   3.896  2.3694 -2.0736 -0.1580
 1482SOL     OW 5129   2.362   3.111   2.692 -0.7815 -0.8188  0.6137
 1482SOL    HW1 5130   2.275   3.071   2.685 -1.4790  0.8698 -1.3398
 1482SOL    HW2 5131   2.376   3.155   2.608  0.4309  1.9386  2.0994
 1483SOL     OW 5132   5.749   3.240   1.234 -0.2447 -0.7396  0.2124
 1483SOL    HW1 5133   5.757   3.307   1.167  3.0798  0.0770  1.2695
 1483SOL    HW2 5134   5.745   3.288   1.317 -0.0263 -1.7995  0.8627
 1484SOL     OW 5135   5.060   4.307   4.884  0.4683 -0.6148 -0.1101
 1484SOL    HW1 5136   4.965   4.307   4.891  0.4857  1.2021  1.0064
 1484SOL    HW2 5137   5.089   4.240   4.946 -0.0730 -3.3527 -2.6057
 1485SOL     OW 5138   4.255   5.326   2.259  0.1391  0.6085  0.6318
 1485SOL    HW1 5139   4.307   5.255   2.296  0.3725  0.2513 -0.3328
 1485SOL    HW2 5140   4.317   5.398   2.247 -0.2742  1.2847  2.3824
 1486SOL     OW 5141   3.527   3.013   0.471 -0.7982  0.3962  0.2055
 1486SOL    HW1 5142   3.586   2.999   0.546 -1.6950  0.9991  1.0495
 1486SOL    HW2 5143   3.439   3.015   0.510 -1.4088 -0.6363 -1.0481
 1487SOL     OW 5144   4.990   0.322   4.429 -0.0986 -0.1151 -0.0101
 1487SOL    HW1 5145   5.004   0.304   4.336 -0.3712 -1.4395  0.1829
 1487SOL    HW2 5146   4.951   0.242   4.464  0.2426  0.2550  1.3086
 1488SOL     OW 5147   3.514   5.959   1.605  0.4756 -0.0205 -0.3507
 1488SOL    HW1 5148   3.598   5.924   1.575  0.1514 -0.3018 -0.9522
 1488SOL    HW2 5149   3.449   5.920   1.546 -0.3263 -1.4763  1.3782
 1489SOL     OW 5150   1.163   3.184   5.205 -0.3510  0.6288 -0.6252
 1489SOL    HW1 5151   1.195   3.201   5.294 -0.0284 -0.1210 -0.5891
 1489SOL    HW2 5152   1.240   3.197   5.150 -0.4595  0.7235 -0.7543
 1490SOL     OW 5153   3.508   2.094   1.589  0.7237 -0.5769  0.0118
 1490SOL    HW1 5154   3.497   2.151   1.512  2.4091 -1.3008 -0.8363
 1490SOL    HW2 5155   3.512   2.154   1.663  2.2168  0.4427 -0.8347
 1491SOL     OW 5156   3.566   4.599   6.218  0.2523  0.3003 -0.2679
 1491SOL    HW1 5157   3.621   4.673   6.245  0.7169 -0.3374  0.5895
 1491SOL    HW2 5158   3.479   4.637   6.207  0.6136  1.0962 -0.4416
 1492SOL     OW 5159   1.480   0.420   0.737 -0.1053  0.2979 -0.0815
 1492SOL    HW1 5160   1.406   0.444   0.794  0.0522 -0.8480  0.6464
 1492SOL    HW2 5161   1.463   0.466   0.655 -1.6487  0.0589  0.0650
 1493SOL     OW 5162   2.168   3.976   4.849  0.2054  0.2814  0.3155
 1493SOL    HW1 5163   2.078   3.996   4.825 -0.4877 -3.0785 -0.3501
 1493SOL    HW2 5164   2.220   4.003   4.772 -0.3083  1.3672  0.3301
 1494SOL     OW 5165   0.643   5.084   2.878 -0.0506 -0.3796  0.1870
 1494SOL    HW1 5166   0.552   5.113   2.871 -0.0795 -0.3083  0.8154
 1494SOL    HW2 5167   0.641   4.992   2.849  0.3639  0.6576 -3.7441
 1495SOL     OW 5168   6.118   1.695   0.908  0.0129 -0.1235  0.2111
 1495SOL    HW1 5169   6.187   1.681   0.972  0.7673 -0.0841 -0.5703
 1495SOL    HW2 5170   6.151   1.765   0.851 -0.6420 -0.1427 -0.2043
 1496SOL     OW 5171   2.815   5.703   2.757  0.0332  0.0649  0.1332
 1496SOL    HW1 5172   2.812   5.750   2.840  1.3456  1.1445 -0.4030
 1496SOL    HW2 5173   2.852   5.617   2.779  0.2937  0.3178  0.6754
 1497SOL     OW 5174   0.949   0.004   1.875  0.2787 -0.3857  0.1054
 1497SOL    HW1 5175   0.879   0.060   1.841 -0.6680  0.2976  2.8857
 1497SOL    HW2 5176   0.935  -0.080   1.832 -0.2049  0.6009 -1.8024
 1498SOL     OW 5177   1.878   2.881   4.256 -0.0760  0.3968 -1.1476
 1498SOL    HW1 5178   1.888   2.913   4.346  0.9030  1.0424 -1.4788
 1498SOL    HW2 5179   1.898   2.787   4.262  0.1470  0.4669 -0.7257
 1499SOL     OW 5180   6.485   6.025   6.239 -0.0572  0.3171  0.5321
 1499SOL    HW1 5181   6.450   6.049   6.153 -0.7945  0.0028  0.7332
 1499SOL    HW2 5182   6.410   6.031   6.298 -0.0966 -1.5767  0.7476
 1500SOL     OW 5183   6.358   2.708   4.570  0.2390  0.1115  0.2691
 1500SOL    HW1 5184   6.446   2.696   4.603  0.8640  0.7251 -1.0999
 1500SOL    HW2 5185   6.302   2.665   4.635  1.4845  0.1284  1.3977
 1501SOL     OW 5186   0.442   3.194   3.871 -0.5845 -0.1051 -0.2138
 1501SOL    HW1 5187   0.448   3.151   3.956 -0.5739 -0.8632 -0.5926
 1501SOL    HW2 5188   0.392   3.274   3.888  0.8702  0.6131  0.8192
 1502SOL     OW 5189   2.081   2.772   5.438  0.2121  0.5513  0.4256
 1502SOL    HW1 5190   2.046   2.859   5.458  0.4910  0.5597  0.8827
 1502SOL    HW2 5191   2.171   2.775   5.469  0.6044  0.5042 -0.6851
 1503SOL     OW 5192   2.511   6.450   5.517 -0.4914  0.2886  0.0760
 1503SOL    HW1 5193   2.521   6.366   5.472 -0.4090  0.0337  0.5551
 1503SOL    HW2 5194   2.420   6.475   5.502 -0.6990 -0.2100  0.4711
 1504SOL     OW 5195   0.298   1.260   0.137 -0.1883 -0.4783 -0.0065
 1504SOL    HW1 5196   0.315   1.278   0.230  0.5762 -0.1255 -0.2098
 1504SOL    HW2 5197   0.321   1.168   0.126 -0.4640 -0.5735  0.1954
 1505SOL     OW 5198   3.628   3.699   4.164 -0.2235 -0.3962  0.3319
 1505SOL    HW1 5199   3.614   3.794   4.163  0.1346 -0.3403 -0.4186
 1505SOL    HW2 5200   3.614   3.673   4.073  1.9747 -0.7079  0.0365
 1506SOL     OW 5201   6.410   4.848   0.023 -0.0470 -0.0717  0.4163
 1506SOL    HW1 5202   6.426   4.912   0.093 -2.3649  1.1491 -0.0806
 1506SOL    HW2 5203   6.431   4.895  -0.058 -0.8358 -0.2579  0.0973
 1507SOL     OW 5204   3.540   3.727   3.870  0.1271  0.2318  0.4231
 1507SOL    HW1 5205   3.576   3.643   3.839  0.9248  0.1541  1.4876
 1507SOL    HW2 5206   3.544   3.785   3.794 -1.6783 -1.0332 -0.7348
 1508SOL     OW 5207   0.195   4.683   4.139 -0.2868 -0.5938 -0.1728
 1508SOL    HW1 5208   0.161   4.768   4.166  0.3423  0.2263 -1.7757
 1508SOL    HW2 5209   0.258   4.660   4.206 -0.2440  0.3642  0.1348
 1509SOL     OW 5210   1.888   3.861   5.965  0.0849  0.0511  0.0598
 1509SOL    HW1 5211   1.963   3.801   5.964  2.0717  2.3462 -1.7685
 1509SOL    HW2 5212   1.877   3.883   6.057  1.2232 -0.8970  0.4523
 1510SOL     OW 5213   1.866   5.453   1.387 -0.2529  0.1732  0.1929
 1510SOL    HW1 5214   1.900   5.433   1.474  1.6672 -0.3262 -0.6104
 1510SOL    HW2 5215   1.820   5.374   1.360  0.0508 -0.0651  0.3625
 1511SOL     OW 5216   5.941   5.796   3.983  0.8936  0.0170 -0.1028
 1511SOL    HW1 5217   6.013   5.751   4.027  1.8828  0.6862 -0.9747
 1511SOL    HW2 5218   5.951   5.888   4.011  1.1322  0.3256 -1.1633
 1512SOL     OW 5219   0.701   1.749   1.466 -0.2124 -0.2296  0.1433
 1512SOL    HW1 5220   0.795   1.736   1.478  0.4117  2.9824 -0.2475
 1512SOL    HW2 5221   0.692   1.767   1.372 -0.7850  1.8898  0.5620
 1513SOL     OW 5222   4.751   5.745   1.640  1.0499 -0.7939 -1.2369
 1513SOL    HW1 5223   4.722   5.665   1.597  1.5231 -0.0001 -3.1138
 1513SOL    HW2 5224   4.734   5.815   1.576 -0.0207  0.7371  0.6069
 1514SOL     OW 5225   1.875   1.669   3.226  0.0152  0.3492 -0.5092
 1514SOL    HW1 5226   1.922   1.750   3.248  0.2912 -0.3089  1.5122
 1514SOL    HW2 5227   1.794   1.673   3.278  0.7622 -1.3461  0.9074
 1515SOL     OW 5228   1.809   4.357   0.726  0.0818 -0.0603 -0.4790
 1515SOL    HW1 5229   1.813   4.327   0.817  1.0892  0.0213 -0.4861
 1515SOL    HW2 5230   1.718   4.384   0.714 -0.4395 -1.5080  0.0362
 1516SOL     OW 5231   2.503   5.377   3.032  0.3577 -0.1241  0.0830
 1516SOL    HW1 5232   2.505   5.306   2.969 -0.7353  1.1645 -1.4578
 1516SOL    HW2 5233   2.488   5.334   3.117 -1.9008 -1.6245 -0.9944
 1517SOL     OW 5234   3.445   5.824   6.273 -0.0427  0.3763 -0.1633
 1517SOL    HW1 5235   3.405   5.910   6.285  1.7898  1.5373 -1.6609
 1517SOL    HW2 5236   3.522   5.826   6.330  0.0616 -0.2485 -0.2770
 1518SOL     OW 5237   2.790   3.658   0.053  0.2410 -0.3173  0.1576
 1518SOL    HW1 5238   2.796   3.672  -0.042 -1.1036 -0.9154 -0.0266
 1518SOL    HW2 5239   2.778   3.564   0.063 -0.3712 -0.1689  0.8841
 1519SOL     OW 5240   1.798   4.153   2.421 -0.6764 -0.0913  0.2947
 1519SOL    HW1 5241   1.807   4.113   2.508  0.0690 -0.0251  0.2571
 1519SOL    HW2 5242   1.844   4.237   2.429  0.2524 -0.5087 -0.4300
 1520SOL     OW 5243   2.942   3.871   3.538 -0.3928  0.0786 -0.2929
 1520SOL    HW1 5244   3.018   3.858   3.596 -1.6353 -2.8828  0.8916
 1520SOL    HW2 5245   2.869   3.885   3.597 -1.2360 -0.0333 -1.2799
 1521SOL     OW 5246   2.835   0.263   3.519 -0.8929  0.0228  0.0267
 1521SOL    HW1 5247   2.767   0.316   3.561 -1.0558  0.2694 -0.5438
 1521SOL    HW2 5248   2.908   0.266   3.581 -1.0322  0.6084  0.1702
 1522SOL     OW 5249   1.999   0.474   3.899  0.2520 -0.3697 -0.3391
 1522SOL    HW1 5250   1.997   0.415   3.823 -0.6744  1.5784 -1.9157
 1522SOL    HW2 5251   1.963   0.556   3.866 -0.1485  0.5696  2.2356
 1523SOL     OW 5252   5.971   5.284   1.578 -0.0608 -0.1048  0.2580
 1523SOL    HW1 5253   5.961   5.292   1.673  1.8756 -2.7424  0.8034
 1523SOL    HW2 5254   5.895   5.233   1.550 -0.8215  0.9769  0.2970
 1524SOL     OW 5255   6.067   0.124   2.486 -0.2501 -0.4361 -0.5931
 1524SOL    HW1 5256   6.073   0.184   2.560 -0.3297  1.0024 -1.7229
 1524SOL    HW2 5257   6.155   0.086   2.478 -0.2335 -0.5766  0.2039
 1525SOL     OW 5258   4.654   0.389   3.697 -0.0618  0.2813 -0.4748
 1525SOL    HW1 5259   4.690   0.381   3.786  1.7348  0.2608 -1.1482
 1525SOL    HW2 5260   4.620   0.302   3.677  2.3012 -0.6418 -0.8683
 1526SOL     OW 5261   2.795   1.187   3.745  0.6119  0.1869 -0.3494
 1526SOL    HW1 5262   2.719   1.141   3.708  1.7101 -1.2189 -0.9267
 1526SOL    HW2 5263   2.851   1.205   3.670  1.7686 -0.5607  0.3229
 1527SOL     OW 5264   2.975   0.329   5.019  0.4157  0.4101 -0.4425
 1527SOL    HW1 5265   3.053   0.289   4.982  2.8978  3.0065  1.5297
 1527SOL    HW2 5266   2.930   0.259   5.065  1.5534 -1.1431 -1.6108
 1528SOL     OW 5267   5.787   1.067   1.559  0.6832  0.0983  0.2604
 1528SOL    HW1 5268   5.758   1.156   1.539 -1.3566 -0.2988  1.2127
 1528SOL    HW2 5269   5.794   1.065   1.654  0.6008 -0.7801  0.2575
 1529SOL     OW 5270   6.033   6.004   3.654 -0.7912  0.7412 -0.1520
 1529SOL    HW1 5271   6.011   6.097   3.650 -0.3709  0.9620  1.5304
 1529SOL    HW2 5272   6.118   5.998   3.612 -0.9109  1.0913 -0.4482
 1530SOL     OW 5273   0.016   0.426   3.516 -0.0933 -0.3643 -0.1772
 1530SOL    HW1 5274   0.106   0.414   3.484 -0.1099  0.1673 -0.4319
 1530SOL    HW2 5275  -0.027   0.476   3.447 -0.5050 -0.3638  0.0799
 1531SOL     OW 5276   4.925   0.429   3.487  0.2179 -0.3246 -0.4637
 1531SOL    HW1 5277   4.960   0.364   3.547  1.1504  0.1821 -0.4411
 1531SOL    HW2 5278   4.903   0.380   3.407  1.3178 -0.5981 -0.6045
 1532SOL     OW 5279   5.734   0.544   1.237  0.5748 -0.4336 -0.5237
 1532SOL    HW1 5280   5.660   0.596   1.268 -0.7961 -1.3588 -2.0882
 1532SOL    HW2 5281   5.712   0.454   1.258  1.2942 -0.7223 -0.9431
 1533SOL     OW 5282   6.345   4.387   6.231  0.6591  0.2169 -0.0622
 1533SOL    HW1 5283   6.278   4.327   6.199  1.2768  0.0749 -1.1447
 1533SOL    HW2 5284   6.322   4.402   6.322  0.8590 -2.1891  0.4531
 1534SOL     OW 5285   4.234   1.701   4.423  0.1876  0.3165  0.0324
 1534SOL    HW1 5286   4.193   1.702   4.336 -1.5769 -0.5564  0.8090
 1534SOL    HW2 5287   4.288   1.622   4.422 -1.9290 -1.2394  0.5752
 1535SOL     OW 5288   5.548   4.022   4.248 -0.0635  0.1307 -0.0094
 1535SOL    HW1 5289   5.455   4.002   4.259 -0.3434  1.2794 -0.2125
 1535SOL    HW2 5290   5.586   3.941   4.213 -0.8325 -0.5968  0.7861
 1536SOL     OW 5291   0.707   5.266   4.019  0.1654  0.2494  0.5267
 1536SOL    HW1 5292   0.670   5.207   4.085  0.1523  0.2167  0.4905
 1536SOL    HW2 5293   0.636   5.326   3.998 -0.2013 -0.4462 -0.2892
 1537SOL     OW 5294   3.169   3.891   3.730  0.1668 -0.3244 -0.4086
 1537SOL    HW1 5295   3.184   3.856   3.818 -2.2019 -0.6858 -0.0981
 1537SOL    HW2 5296   3.195   3.983   3.736 -1.4100  0.0572  1.1249
 1538SOL     OW 5297   4.492   2.196   0.250  0.2989  0.0005 -0.1853
 1538SOL    HW1 5298   4.503   2.103   0.233  1.0827 -0.6244  3.0570
 1538SOL    HW2 5299   4.398   2.206   0.267  0.3350 -0.3758  0.2549
 1539SOL     OW 5300   5.893   5.705   0.344  0.3581  0.2772  0.2628
 1539SOL    HW1 5301   5.961   5.703   0.411 -1.1322  1.5952  1.8998
 1539SOL    HW2 5302   5.942   5.708   0.261  2.2509 -0.2815  1.2963
 1540SOL     OW 5303   0.462   4.661   3.355 -0.4114 -0.3700  0.2942
 1540SOL    HW1 5304   0.513   4.736   3.387  2.5850 -1.1954 -2.0890
 1540SOL    HW2 5305   0.517   4.585   3.372 -2.6027 -1.9298  0.9942
 1541SOL     OW 5306   0.811   2.300   3.510 -0.1979  0.4717  0.3500
 1541SOL    HW1 5307   0.886   2.277   3.565 -0.6995  0.5769  1.0907
 1541SOL    HW2 5308   0.833   2.264   3.424  1.3154  1.6971  0.1825
 1542SOL     OW 5309   3.008   1.553   4.220 -0.0922  0.4524 -0.1426
 1542SOL    HW1 5310   3.093   1.514   4.204 -1.0023 -0.6889 -2.8106
 1542SOL    HW2 5311   2.988   1.531   4.311  1.6124 -0.9394 -0.0580
 1543SOL     OW 5312   2.693   6.350   4.432  0.1823  0.3072  0.3465
 1543SOL    HW1 5313   2.715   6.357   4.339 -0.3991  0.7339  0.2326
 1543SOL    HW2 5314   2.640   6.271   4.438  1.1087 -0.3162  0.5006
 1544SOL     OW 5315   3.766   0.896   3.808  0.5209 -0.0904 -0.2225
 1544SOL    HW1 5316   3.832   0.965   3.797 -0.5870  0.9412 -0.5463
 1544SOL    HW2 5317   3.709   0.906   3.732 -2.2257  1.5216  1.8983
 1545SOL     OW 5318   4.074   0.668   0.105  0.2735  0.5939 -0.3681
 1545SOL    HW1 5319   4.065   0.641   0.197  0.8972  0.6988 -0.2651
 1545SOL    HW2 5320   4.160   0.711   0.102  0.0193  1.0726 -0.8842
 1546SOL     OW 5321   3.283   1.279   2.801  0.5408  0.0456  0.7332
 1546SOL    HW1 5322   3.220   1.332   2.751  1.4046 -0.4665 -0.9956
 1546SOL    HW2 5323   3.231   1.242   2.873 -1.0288  0.0392 -0.3418
 1547SOL     OW 5324   4.842   4.953   1.260 -0.1599 -0.1168  0.5611
 1547SOL    HW1 5325   4.894   5.027   1.292 -0.8878  0.3606  0.6670
 1547SOL    HW2 5326   4.869   4.942   1.169 -2.9985  3.0490 -0.8680
 1548SOL     OW 5327   1.968   3.908   2.180 -0.1414  0.3248 -0.2093
 1548SOL    HW1 5328   2.025   3.931   2.253  0.6340 -1.4295 -0.1954
 1548SOL    HW2 5329   2.003   3.956   2.105  0.6733  0.1234  0.0356
 1549SOL     OW 5330   4.723   4.960   0.504  0.5584  0.4458  0.1834
 1549SOL    HW1 5331   4.658   5.001   0.561 -1.3637 -1.3924 -0.5256
 1549SOL    HW2 5332   4.784   4.917   0.563  0.9991  1.9495  0.8637
 1550SOL     OW 5333   6.052   4.502   1.855  0.3544  0.5222 -0.5106
 1550SOL    HW1 5334   6.069   4.426   1.911  0.3411 -0.5934 -1.9601
 1550SOL    HW2 5335   5.958   4.518   1.863  0.4725  0.8412  0.3356
 1551SOL     OW 5336   0.992   5.798   3.511 -0.2965 -0.5722 -0.4628
 1551SOL    HW1 5337   1.043   5.862   3.561 -0.2714 -0.7606 -0.2435
 1551SOL    HW2 5338   1.046   5.779   3.434  0.0746 -0.9372 -0.1218
 1552SOL     OW 5339   3.780   0.225   4.569  0.2169  0.1168 -0.0161
 1552SOL    HW1 5340   3.869   0.254   4.553  0.0444 -0.1293 -1.5387
 1552SOL    HW2 5341   3.759   0.169   4.495 -0.6354 -1.1864  1.1480
 1553SOL     OW 5342   2.414   5.693   3.591  0.1624 -0.0709 -0.4959
 1553SOL    HW1 5343   2.439   5.681   3.683 -0.6513  0.0404 -0.2496
 1553SOL    HW2 5344   2.466   5.628   3.543  0.1817 -0.5138  0.1146
 1554SOL     OW 5345   5.269   4.975   5.118 -0.0783  0.1346  0.3515
 1554SOL    HW1 5346   5.205   5.047   5.122  0.5733  0.7050  0.5923
 1554SOL    HW2 5347   5.295   4.962   5.209  0.5365  0.2498  0.1904
 1555SOL     OW 5348   2.577   0.765   2.686 -0.0556  0.5894 -0.5167
 1555SOL    HW1 5349   2.540   0.849   2.661  1.5190  1.2459 -0.7420
 1555SOL    HW2 5350   2.659   0.786   2.730 -0.0553 -0.7971  0.2233
 1556SOL     OW 5351   1.482   2.750   4.283  0.0791  0.0868  0.2988
 1556SOL    HW1 5352   1.517   2.737   4.194 -1.3054  0.3443 -0.3075
 1556SOL    HW2 5353   1.555   2.727   4.340 -0.1412 -4.2845 -0.7527
 1557SOL     OW 5354   2.014   2.579   2.645 -0.4961  0.0848  0.4276
 1557SOL    HW1 5355   1.967   2.660   2.666 -1.1307 -0.1715  0.0160
 1557SOL    HW2 5356   2.035   2.541   2.730  0.7699  1.2081  0.6669
 1558SOL     OW 5357   1.712   2.633   5.524 -0.1541 -0.0017  0.1495
 1558SOL    HW1 5358   1.698   2.544   5.492 -0.6906 -0.8457  2.4847
 1558SOL    HW2 5359   1.775   2.624   5.595  0.4030  1.6220 -0.0829
 1559SOL     OW 5360   3.926   6.469   5.434  0.1447 -0.3432 -0.5009
 1559SOL    HW1 5361   4.000   6.477   5.495 -0.7275 -0.9638  0.6707
 1559SOL    HW2 5362   3.917   6.375   5.420 -1.3581 -0.4025  0.5888
 1560SOL     OW 5363   5.438   4.642   4.451 -0.0341 -0.0798 -0.0190
 1560SOL    HW1 5364   5.519   4.593   4.439 -0.0282 -0.0118 -0.2626
 1560SOL    HW2 5365   5.380   4.611   4.382  0.3017  0.9489 -0.7921
 1561SOL     OW 5366   5.442   3.221   1.145  0.3494  0.6007  0.0264
 1561SOL    HW1 5367   5.477   3.144   1.190  0.1798  0.5903  0.1407
 1561SOL    HW2 5368   5.504   3.237   1.074  0.0094 -0.0625 -0.4297
 1562SOL     OW 5369   3.657   5.502   1.856 -0.2943  0.1052  0.0018
 1562SOL    HW1 5370   3.728   5.502   1.792 -0.4867 -1.5072 -0.2472
 1562SOL    HW2 5371   3.612   5.586   1.842  1.0691  0.8145 -0.3601
 1563SOL     OW 5372   3.267   5.270   2.849 -0.1753 -0.0080  0.6058
 1563SOL    HW1 5373   3.233   5.187   2.882  2.1957 -2.5280 -2.7357
 1563SOL    HW2 5374   3.215   5.288   2.771  0.1609  1.0097  0.6020
 1564SOL     OW 5375   5.553   2.415   2.757  0.2841 -0.9528 -0.6451
 1564SOL    HW1 5376   5.531   2.496   2.803  0.2787  0.0827 -2.3677
 1564SOL    HW2 5377   5.468   2.378   2.731  0.2784 -1.6269  0.2936
 1565SOL     OW 5378   0.207   4.033   5.325  0.3096  0.4518  0.1681
 1565SOL    HW1 5379   0.287   4.022   5.275 -0.1473 -1.2747 -0.2718
 1565SOL    HW2 5380   0.150   4.085   5.269  0.4899  0.1519 -0.3021
 1566SOL     OW 5381   0.872   1.156   3.781 -0.1549 -0.8793  0.1765
 1566SOL    HW1 5382   0.835   1.089   3.838 -1.3339  1.2936  2.1256
 1566SOL    HW2 5383   0.796   1.195   3.737  0.3405  0.1624  0.2162
 1567SOL     OW 5384   3.549   3.438   0.756 -0.3073 -0.1157 -0.2300
 1567SOL    HW1 5385   3.504   3.457   0.838 -0.6124 -0.5923 -0.2810
 1567SOL    HW2 5386   3.490   3.379   0.709 -0.5388  0.8465 -1.1869
 1568SOL     OW 5387   4.819   5.258   4.977 -0.0388  0.0685 -0.1532
 1568SOL    HW1 5388   4.743   5.304   4.942  0.2985  0.9311  0.2109
 1568SOL    HW2 5389   4.892   5.319   4.965  0.4393 -0.4017  0.2657
 1569SOL     OW 5390   1.508   1.650   4.950  0.0341 -0.3399 -0.3391
 1569SOL    HW1 5391   1.549   1.734   4.930 -1.0602  0.1864 -0.4585
 1569SOL    HW2 5392   1.414   1.666   4.936 -0.4473 -0.8940  1.9222
 1570SOL     OW 5393   0.491   5.725   2.823 -0.2501 -0.3233 -0.0052
 1570SOL    HW1 5394   0.520   5.812   2.851 -0.1287 -0.6917  1.0839
 1570SOL    HW2 5395   0.529   5.713   2.736 -0.1230  0.6445 -0.0843
 1571SOL     OW 5396   5.517   0.164   6.012 -0.8555 -0.0655 -0.4754
 1571SOL    HW1 5397   5.440   0.217   5.993 -1.4103 -0.1514  1.4174
 1571SOL    HW2 5398   5.522   0.160   6.107 -0.7783 -3.2964 -0.5078
 1572SOL     OW 5399   4.906   5.750   0.111  0.2153  0.2114 -0.4661
 1572SOL    HW1 5400   4.878   5.784   0.196  0.0949  1.0590 -0.8347
 1572SOL    HW2 5401   4.826   5.718   0.071  0.3736 -0.8085  0.0017
 1573SOL     OW 5402   6.157   5.617   4.535  0.5863  0.1767  0.1497
 1573SOL    HW1 5403   6.112   5.701   4.534  0.7758  0.3018  1.1670
 1573SOL    HW2 5404   6.225   5.625   4.469 -0.2450  0.3314 -0.7104
 1574SOL     OW 5405   5.042   2.659   1.670  0.2402  0.1914  0.0134
 1574SOL    HW1 5406   4.969   2.648   1.609 -0.3645  2.3195  0.2708
 1574SOL    HW2 5407   5.072   2.749   1.656  1.9920 -0.2202  0.8167
 1575SOL     OW 5408   2.120   1.135   4.024 -0.6716 -0.4384  0.9252
 1575SOL    HW1 5409   2.144   1.221   4.060 -1.5186  0.6369 -0.9032
 1575SOL    HW2 5410   2.196   1.080   4.040  0.5826  1.1430  0.6656
 1576SOL     OW 5411   3.619   4.086   5.284  0.7176  0.6486 -0.7659
 1576SOL    HW1 5412   3.674   4.066   5.360 -0.6371 -0.3974 -0.0221
 1576SOL    HW2 5413   3.617   4.181   5.280  2.9633  0.7293 -1.1272
 1577SOL     OW 5414   1.264   2.415   0.259 -1.1547  0.1441  0.4282
 1577SOL    HW1 5415   1.190   2.356   0.276 -1.1675 -1.0497 -3.0215
 1577SOL    HW2 5416   1.225   2.491   0.217 -0.6568  0.5897  0.7616
 1578SOL     OW 5417   1.409   3.240   5.079  0.3176  0.2537  0.1959
 1578SOL    HW1 5418   1.420   3.293   5.000 -0.0553  0.5298  0.3239
 1578SOL    HW2 5419   1.453   3.290   5.148 -0.8338  0.8765  0.5075
 1579SOL     OW 5420   6.452   0.186   6.466  0.0413  0.5223 -0.3961
 1579SOL    HW1 5421   6.479   0.143   6.547  0.1493 -0.4523 -0.9311
 1579SOL    HW2 5422   6.457   0.117   6.400 -0.3610  1.2217 -1.1713
 1580SOL     OW 5423   3.891   2.491   3.239 -0.1681 -0.1735 -0.1198
 1580SOL    HW1 5424   3.955   2.555   3.272 -0.6517  0.2889 -0.0533
 1580SOL    HW2 5425   3.806   2.533   3.256 -0.5296 -1.1815  0.6674
 1581SOL     OW 5426   4.026   4.060   3.473 -0.1430 -0.1300 -0.3629
 1581SOL    HW1 5427   4.093   4.092   3.412 -1.9737  2.3930 -1.1661
 1581SOL    HW2 5428   3.948   4.049   3.419 -0.6666 -2.2314  0.7237
 1582SOL     OW 5429   1.992   2.578   3.373  0.5267  0.1302  0.2520
 1582SOL    HW1 5430   1.937   2.649   3.407 -1.4359 -0.6036 -1.1734
 1582SOL    HW2 5431   1.958   2.562   3.285  2.1630 -1.3240 -0.1623
 1583SOL     OW 5432   1.078   0.994   3.591  0.5003 -0.0745 -0.2664
 1583SOL    HW1 5433   1.055   1.008   3.499 -0.8312  0.6870  0.1607
 1583SOL    HW2 5434   1.165   1.033   3.599  0.3888  0.3751 -1.0744
 1584SOL     OW 5435   2.997   3.270   4.954 -0.3782 -0.3550  0.6399
 1584SOL    HW1 5436   2.958   3.281   5.041 -0.8299  0.5718  0.3367
 1584SOL    HW2 5437   2.954   3.192   4.918  0.9470 -1.6965  1.8321
 1585SOL     OW 5438   0.539   5.036   5.525  0.5572  0.0345 -0.5503
 1585SOL    HW1 5439   0.473   5.073   5.466 -1.2600 -1.3021  0.5756
 1585SOL    HW2 5440   0.518   4.943   5.530  1.6354 -0.1593  1.0072
 1586SOL     OW 5441   5.371   0.034   0.799  0.4802 -0.4891  0.1804
 1586SOL    HW1 5442   5.298   0.080   0.841  0.1238 -0.2935 -0.6186
 1586SOL    HW2 5443   5.440   0.100   0.790 -0.3632  0.2098 -1.8057
 1587SOL     OW 5444   0.720   0.696   1.998  0.4419  0.1430 -0.1938
 1587SOL    HW1 5445   0.683   0.642   2.069 -0.8745  0.5422 -0.5414
 1587SOL    HW2 5446   0.726   0.784   2.036 -0.3757  0.3811 -0.5963
 1588SOL     OW 5447   6.205   6.471   3.308 -0.1060 -1.0915 -0.2052
 1588SOL    HW1 5448   6.264   6.410   3.352  0.6098 -0.7162 -0.6178
 1588SOL    HW2 5449   6.134   6.485   3.371  2.5895  2.2414  2.5451
 1589SOL     OW 5450   2.436   2.482   0.711  0.1275  0.2277 -0.3932
 1589SOL    HW1 5451   2.483   2.401   0.692 -0.8770 -0.7307  0.9999
 1589SOL    HW2 5452   2.491   2.528   0.774 -0.2463 -0.3464  0.3606
 1590SOL     OW 5453   4.118   2.038   5.208 -0.0223 -0.0537 -0.1930
 1590SOL    HW1 5454   4.161   1.965   5.252 -0.9026 -1.0702 -0.9548
 1590SOL    HW2 5455   4.054   1.997   5.150  1.2236  1.1851 -2.6339
 1591SOL     OW 5456   5.481   0.905   0.635  0.3380  0.1729 -0.1516
 1591SOL    HW1 5457   5.410   0.867   0.583  1.2988 -0.4218 -1.0927
 1591SOL    HW2 5458   5.442   0.980   0.679 -0.2617  1.4836 -2.7218
 1592SOL     OW 5459   2.627   4.917   5.129 -0.8066 -0.0754 -0.5601
 1592SOL    HW1 5460   2.595   4.874   5.209 -0.1226 -0.1820 -0.3408
 1592SOL    HW2 5461   2.636   4.845   5.066  1.4794 -0.4982  0.1588
 1593SOL     OW 5462   4.629   4.555   2.605  0.1696 -0.1813 -0.0598
 1593SOL    HW1 5463   4.697   4.567   2.671  0.1683 -0.3623 -0.0244
 1593SOL    HW2 5464   4.659   4.480   2.553  1.0053  0.9555 -1.2985
 1594SOL     OW 5465   0.641   0.800   6.133 -0.0395  0.9076 -0.1183
 1594SOL    HW1 5466   0.695   0.788   6.211 -1.6127  1.0808  1.0526
 1594SOL    HW2 5467   0.609   0.890   6.139 -2.1725  0.1694  0.4070
 1595SOL     OW 5468   5.692   6.110   5.091 -0.2241  0.1302  0.3357
 1595SOL    HW1 5469   5.636   6.033   5.084  0.6425 -0.4723 -0.1503
 1595SOL    HW2 5470   5.700   6.141   5.001  1.8513 -1.0003  0.0745
 1596SOL     OW 5471   3.576   2.565   5.757 -0.1756 -0.5931 -0.3822
 1596SOL    HW1 5472   3.643   2.609   5.809 -0.6399 -0.4945  0.1377
 1596SOL    HW2 5473   3.623   2.532   5.680  0.2680  0.3926 -0.5515
 1597SOL     OW 5474   4.822   5.066   6.303 -0.1077  0.6819  0.3946
 1597SOL    HW1 5475   4.894   5.004   6.294  0.2293  1.3338 -2.0749
 1597SOL    HW2 5476   4.863   5.152   6.296 -1.0703  1.0643 -0.8308
 1598SOL     OW 5477   1.392   3.643   2.950 -0.0904  0.3106 -0.0573
 1598SOL    HW1 5478   1.430   3.576   3.007 -1.5465 -0.8137 -0.3475
 1598SOL    HW2 5479   1.466   3.677   2.900  0.7841 -0.6010  0.5823
 1599SOL     OW 5480   2.993   4.252   1.037 -0.1982  0.2373 -0.1794
 1599SOL    HW1 5481   3.012   4.270   0.945 -0.2041  0.9914 -0.0400
 1599SOL    HW2 5482   3.079   4.255   1.080 -0.4020  1.9768  0.1741
 1600SOL     OW 5483   1.181   1.360   4.250 -0.8340  0.0272 -0.4487
 1600SOL    HW1 5484   1.200   1.305   4.173 -0.9418  0.1688 -0.5776
 1600SOL    HW2 5485   1.116   1.311   4.299  1.0868 -1.3219  0.9285
 1601SOL     OW 5486   2.313   2.183   3.443  0.4506  0.1861  0.8871
 1601SOL    HW1 5487   2.407   2.167   3.437 -0.0007 -2.6415 -1.5336
 1601SOL    HW2 5488   2.281   2.169   3.354 -2.2375  1.3815  1.5673
 1602SOL     OW 5489   5.909   5.703   4.764  0.0666  0.3157 -0.3365
 1602SOL    HW1 5490   5.917   5.749   4.681 -0.9592  1.8962  0.3957
 1602SOL    HW2 5491   5.983   5.642   4.765  0.0788  0.2257 -2.4015
 1603SOL     OW 5492   0.528   4.436   0.921 -1.0519  0.2129 -0.5472
 1603SOL    HW1 5493   0.524   4.341   0.916 -0.2177  0.0768  0.7839
 1603SOL    HW2 5494   0.538   4.465   0.831  2.0274 -1.1857 -0.7885
 1604SOL     OW 5495   5.989   3.881   5.319 -0.0547 -0.0894  0.5726
 1604SOL    HW1 5496   5.914   3.939   5.307  0.4371  0.7509  1.4807
 1604SOL    HW2 5497   6.026   3.871   5.231 -1.0076 -0.2301  0.1776
 1605SOL     OW 5498   0.129   3.840   1.723 -0.2433 -0.2394  0.6303
 1605SOL    HW1 5499   0.061   3.795   1.774 -2.7600 -1.4760 -3.3645
 1605SOL    HW2 5500   0.086   3.918   1.689  1.4109  0.6619  0.5005
 1606SOL     OW 5501   0.905   2.105   5.845 -0.1789 -0.1055 -0.1071
 1606SOL    HW1 5502   0.910   2.090   5.750  1.7179  1.1688 -0.2684
 1606SOL    HW2 5503   0.956   2.033   5.882 -1.8113 -1.2262  0.0778
 1607SOL     OW 5504   4.821   2.991   5.655  0.2189 -0.6963 -0.0833
 1607SOL    HW1 5505   4.839   3.059   5.590 -1.2311  0.4213  0.6353
 1607SOL    HW2 5506   4.780   2.920   5.606  0.3172 -0.4019 -0.5949
 1608SOL     OW 5507   0.126   5.628   3.937  0.2872 -0.6109 -0.4644
 1608SOL    HW1 5508   0.138   5.698   4.000  2.7783  0.0296 -1.5166
 1608SOL    HW2 5509   0.034   5.602   3.946 -0.7030  2.6502  0.0948
 1609SOL     OW 5510   0.086   4.703   3.755 -0.1499 -0.2257 -0.3086
 1609SOL    HW1 5511   0.127   4.616   3.755  1.3849  0.4402 -1.3933
 1609SOL    HW2 5512   0.101   4.736   3.666  0.9424  1.8505  0.5733
 1610SOL     OW 5513   0.885   3.815   5.754 -0.7721  0.3558 -0.1685
 1610SOL    HW1 5514   0.809   3.862   5.790  0.5236  0.6208  2.5244
 1610SOL    HW2 5515   0.847   3.742   5.705 -2.8051  0.0534  1.6645
 1611SOL     OW 5516   6.223   4.868   2.419 -0.3743  0.3337 -0.4734
 1611SOL    HW1 5517   6.231   4.821   2.502  2.0773 -0.4819 -1.0920
 1611SOL    HW2 5518   6.210   4.959   2.444  1.2901  0.2471  0.8516
 1612SOL     OW 5519   0.206   0.062   3.535  0.0000  0.3006  0.3804
 1612SOL    HW1 5520   0.136   0.125   3.553  0.1611  0.1925  1.4526
 1612SOL    HW2 5521   0.251   0.052   3.619  0.1885 -0.9884  0.1502
 1613SOL     OW 5522   3.750   2.312   6.270  0.5621 -0.2625 -0.4239
 1613SOL    HW1 5523   3.835   2.333   6.231  0.3929 -1.4870 -1.5232
 1613SOL    HW2 5524   3.688   2.318   6.197  0.0116 -1.1873 -0.0523
 1614SOL     OW 5525   5.168   0.932   3.640  0.8365 -0.8773 -0.2619
 1614SOL    HW1 5526   5.074   0.946   3.652  1.0069  1.1388 -0.8514
 1614SOL    HW2 5527   5.174   0.846   3.598 -0.6483 -1.5324  0.7730
 1615SOL     OW 5528   5.059   1.781   6.278  0.2103  0.2291  0.0803
 1615SOL    HW1 5529   4.988   1.826   6.232 -0.0142  1.4010  1.5087
 1615SOL    HW2 5530   5.015   1.723   6.340  0.5169 -0.4825 -0.3463
 1616SOL     OW 5531   5.925   3.130   5.515 -0.7062 -0.3764 -0.3393
 1616SOL    HW1 5532   5.918   3.145   5.610 -2.3880  0.0610 -0.4937
 1616SOL    HW2 5533   5.963   3.212   5.481 -0.8711 -0.2125 -0.1325
 1617SOL     OW 5534   1.542   0.978   3.818 -0.0284  0.3526  0.4020
 1617SOL    HW1 5535   1.450   0.984   3.793  0.1903 -0.1696 -0.5579
 1617SOL    HW2 5536   1.560   1.060   3.864 -1.0102  0.3860  0.7533
 1618SOL     OW 5537   5.789   4.530   0.315 -0.3124 -0.1971 -0.3176
 1618SOL    HW1 5538   5.759   4.582   0.390  1.4161  2.3598 -1.2441
 1618SOL    HW2 5539   5.735   4.560   0.242  0.6347  0.2939 -0.8427
 1619SOL     OW 5540   5.383   3.587   4.071 -0.2375 -0.0871  0.4013
 1619SOL    HW1 5541   5.377   3.492   4.080  1.0692 -0.1657  0.6329
 1619SOL    HW2 5542   5.474   3.607   4.089 -0.1261  1.0505 -1.1821
 1620SOL     OW 5543   5.916   0.370   2.762 -0.1867  0.0627 -0.2494
 1620SOL    HW1 5544   5.969   0.450   2.759  0.2420 -0.2150 -0.1608
 1620SOL    HW2 5545   5.848   0.385   2.697  0.5064  0.0702 -0.9964
 1621SOL     OW 5546   3.845   4.260   2.973  0.2898 -0.0510  0.1297
 1621SOL    HW1 5547   3.794   4.340   2.958  2.1263  0.9044 -1.4834
 1621SOL    HW2 5548   3.825   4.205   2.898  0.4508 -0.3465  0.3019
 1622SOL     OW 5549   4.341   5.966   3.247 -0.3192  0.1925  0.1757
 1622SOL    HW1 5550   4.269   5.927   3.199 -1.0945  2.8047 -0.9836
 1622SOL    HW2 5551   4.418   5.949   3.192 -0.3751 -0.9162  0.4281
 1623SOL     OW 5552   3.047   5.657   4.604  0.4164  0.0543  0.3897
 1623SOL    HW1 5553   3.099   5.715   4.659 -1.1702  0.5848  1.3996
 1623SOL    HW2 5554   2.992   5.716   4.553  2.4025 -0.3769 -2.4611
 1624SOL     OW 5555   4.036   4.568   2.196 -0.0868  0.2730 -0.0647
 1624SOL    HW1 5556   3.981   4.491   2.211  0.1821 -0.2140 -1.3824
 1624SOL    HW2 5557   4.120   4.546   2.236 -0.2067  0.1385  0.1123
 1625SOL     OW 5558   0.516   5.046   5.069  0.2776  0.4971 -0.1243
 1625SOL    HW1 5559   0.436   5.092   5.094  1.0888  1.7835  0.1693
 1625SOL    HW2 5560   0.574   5.057   5.144  1.2778  0.8975 -0.9421
 1626SOL     OW 5561   4.767   1.736   0.459 -0.2177 -1.3325 -0.1668
 1626SOL    HW1 5562   4.799   1.816   0.416  1.8327 -1.6942  0.5778
 1626SOL    HW2 5563   4.713   1.768   0.532  0.0394 -0.6367 -0.2726
 1627SOL     OW 5564   3.314   3.325   1.645  0.1167  0.4310 -0.2194
 1627SOL    HW1 5565   3.237   3.331   1.702 -0.3953 -0.1553 -0.8211
 1627SOL    HW2 5566   3.388   3.336   1.704 -0.3670 -0.8135  0.6894
 1628SOL     OW 5567   0.224   2.849   3.486 -0.0557 -0.8100  0.1472
 1628SOL    HW1 5568   0.179   2.838   3.570 -1.3725  0.8966 -0.2777
 1628SOL    HW2 5569   0.311   2.812   3.501  0.8189  1.9754  3.1981
 1629SOL     OW 5570   1.981   1.911   2.104  0.0236 -0.1754  0.0771
 1629SOL    HW1 5571   2.002   1.983   2.044 -1.2639 -0.0650 -0.2541
 1629SOL    HW2 5572   2.035   1.838   2.074  1.1097  0.5488  0.2211
 1630SOL     OW 5573   4.164   3.545   3.519 -0.0998  0.2893  0.2507
 1630SOL    HW1 5574   4.107   3.615   3.486  1.0872  0.7523 -0.8737
 1630SOL    HW2 5575   4.189   3.496   3.440  0.7238 -0.1453  0.7748
 1631SOL     OW 5576   1.393   4.894   0.210 -0.4034  0.6833 -0.6765
 1631SOL    HW1 5577   1.464   4.910   0.148 -2.1322 -0.4985 -3.1259
 1631SOL    HW2 5578   1.401   4.801   0.233  0.0975  1.0610  0.7596
 1632SOL     OW 5579   3.459   1.110   0.643  0.4654  0.0366  0.1653
 1632SOL    HW1 5580   3.545   1.092   0.681  0.5934  0.9224  0.3046
 1632SOL    HW2 5581   3.478   1.159   0.563  0.1908 -1.6692 -0.9953
 1633SOL     OW 5582   3.689   1.763   1.093 -0.5515  0.0996 -0.2787
 1633SOL    HW1 5583   3.759   1.815   1.053 -0.7312  0.4945 -0.0864
 1633SOL    HW2 5584   3.725   1.675   1.098 -0.4740  0.0690 -1.1861
 1634SOL     OW 5585   1.139   5.751   2.568 -0.2233  0.1024  0.1123
 1634SOL    HW1 5586   1.048   5.726   2.585 -0.5009  0.3120 -0.9741
 1634SOL    HW2 5587   1.186   5.724   2.647 -0.8136 -2.1889 -0.2339
 1635SOL     OW 5588   0.375   2.461   2.557 -0.0308 -0.5549 -0.5467
 1635SOL    HW1 5589   0.420   2.450   2.473  0.1330  0.7306 -0.6512
 1635SOL    HW2 5590   0.373   2.374   2.595  2.3976 -0.7117 -0.6313
 1636SOL     OW 5591   6.440   5.004   3.002 -0.1599  0.5601 -0.6091
 1636SOL    HW1 5592   6.376   5.046   2.946  0.6373  0.4850 -1.6134
 1636SOL    HW2 5593   6.454   4.918   2.963  0.2068  0.4007 -0.1421
 1637SOL     OW 5594   4.619   4.759   6.467 -0.4078  0.3413  0.3249
 1637SOL    HW1 5595   4.658   4.838   6.504 -0.7280  0.5503  0.2175
 1637SOL    HW2 5596   4.681   4.689   6.488 -0.5707  0.4617  1.2137
 1638SOL     OW 5597   6.307   4.675   6.049  0.5878 -0.5082  0.3785
 1638SOL    HW1 5598   6.245   4.726   6.101  0.8200  0.3234 -0.1513
 1638SOL    HW2 5599   6.344   4.612   6.111  0.1387 -0.1800  0.9853
 1639SOL     OW 5600   4.262   4.131   2.725 -0.6494 -0.3796 -0.0896
 1639SOL    HW1 5601   4.336   4.085   2.685  0.1035  0.3966  0.3625
 1639SOL    HW2 5602   4.302   4.182   2.796 -1.6069  0.1684  0.0639
 1640SOL     OW 5603   1.941   5.815   5.678 -0.5629 -0.1930  0.6616
 1640SOL    HW1 5604   1.984   5.738   5.642 -0.0525  1.2102 -2.0232
 1640SOL    HW2 5605   1.942   5.802   5.773  1.6945 -2.3148  0.4372
 1641SOL     OW 5606   2.443   5.203   0.124 -0.2957 -0.1576  0.0160
 1641SOL    HW1 5607   2.362   5.206   0.175 -0.7486 -0.9093 -0.6264
 1641SOL    HW2 5608   2.513   5.219   0.187 -1.0384  2.3641  0.2978
 1642SOL     OW 5609   3.389   6.123   0.965  0.0401  0.5238  0.0206
 1642SOL    HW1 5610   3.421   6.104   1.053  2.3240 -2.7440 -1.2933
 1642SOL    HW2 5611   3.326   6.053   0.947  0.9561  0.0194 -1.4785
 1643SOL     OW 5612   1.491   5.512   1.064 -0.2475 -0.2597  0.4448
 1643SOL    HW1 5613   1.472   5.504   1.157  0.2407  0.2733  0.5959
 1643SOL    HW2 5614   1.525   5.601   1.054  2.3661 -1.1725  0.2582
 1644SOL     OW 5615   3.895   6.309   3.485  0.4973  0.4207  0.3204
 1644SOL    HW1 5616   3.811   6.355   3.486  0.9059  1.4264 -2.5169
 1644SOL    HW2 5617   3.878   6.228   3.438  0.6233 -0.5452  1.8920
 1645SOL     OW 5618   2.485   4.691   0.750  0.3716 -0.0304 -0.1111
 1645SOL    HW1 5619   2.469   4.709   0.658  2.3306 -1.9564 -0.9327
 1645SOL    HW2 5620   2.501   4.596   0.753 -3.1338 -0.7320  2.8085
 1646SOL     OW 5621   4.076   4.401   5.080 -0.4785  0.0303 -0.0970
 1646SOL    HW1 5622   4.140   4.470   5.061 -0.9678  0.0428 -1.8678
 1646SOL    HW2 5623   4.110   4.324   5.035 -0.9679 -0.3454  0.1732
 1647SOL     OW 5624   4.528   5.603   5.922 -0.3479 -0.1045 -0.3280
 1647SOL    HW1 5625   4.490   5.682   5.886 -0.2474 -0.0514 -0.3177
 1647SOL    HW2 5626   4.616   5.600   5.887  0.2461  0.6880  1.0059
 1648SOL     OW 5627   2.916   1.149   4.389  0.1705  0.1344  0.0424
 1648SOL    HW1 5628   2.913   1.242   4.369  0.3839  0.1885  0.2552
 1648SOL    HW2 5629   2.998   1.119   4.350 -0.7230 -0.3310 -1.5652
 1649SOL     OW 5630   2.662   4.889   1.733  0.3417 -0.8826  0.1036
 1649SOL    HW1 5631   2.719   4.854   1.664 -0.8865 -1.2533 -0.7576
 1649SOL    HW2 5632   2.627   4.812   1.777  0.7193 -0.6512  0.8402
 1650SOL     OW 5633   1.748   3.600   2.862 -0.1316  0.4665 -0.6484
 1650SOL    HW1 5634   1.660   3.625   2.834 -0.8276  0.6687  1.5460
 1650SOL    HW2 5635   1.781   3.677   2.908  0.5734 -0.1453 -0.1062
 1651SOL     OW 5636   5.044   0.137   1.307 -0.0793  0.1063 -0.6003
 1651SOL    HW1 5637   5.133   0.127   1.272  0.8627  1.0800  1.3935
 1651SOL    HW2 5638   5.032   0.232   1.314 -0.9884 -0.0390 -0.1005
 1652SOL     OW 5639   3.411   4.602   2.052  0.2091 -0.4711  0.0753
 1652SOL    HW1 5640   3.456   4.518   2.049 -0.1617 -0.6386 -1.4015
 1652SOL    HW2 5641   3.447   4.651   1.978  1.4834  1.2563  1.7393
 1653SOL     OW 5642   0.236   4.407   3.097  0.4274  0.1689 -0.3661
 1653SOL    HW1 5643   0.144   4.382   3.092  0.9380 -1.6098 -1.8585
 1653SOL    HW2 5644   0.274   4.378   3.014  2.4525  0.4188  0.4028
 1654SOL     OW 5645   3.139   2.484   2.928  0.2596  0.0367  0.6263
 1654SOL    HW1 5646   3.206   2.537   2.884  0.8690 -0.5874  0.7686
 1654SOL    HW2 5647   3.069   2.545   2.949  1.0597  0.8402  1.0296
 1655SOL     OW 5648   2.014   4.648   5.458 -0.4373 -0.0264  0.3786
 1655SOL    HW1 5649   2.098   4.618   5.423 -1.5105 -0.5507 -2.0063
 1655SOL    HW2 5650   1.968   4.568   5.485 -0.8593  0.0583 -0.0628
 1656SOL     OW 5651   2.225   1.594   1.762  0.1476 -0.2385 -1.1368
 1656SOL    HW1 5652   2.303   1.552   1.799  0.4426  1.7262  0.6435
 1656SOL    HW2 5653   2.252   1.683   1.741 -1.9360  1.0489  1.1167
 1657SOL     OW 5654   0.836   4.358   2.433  0.0831  0.0782  0.1030
 1657SOL    HW1 5655   0.776   4.318   2.370  0.3362 -0.3586  0.1341
 1657SOL    HW2 5656   0.914   4.303   2.430  0.0370 -0.0447  0.9189
 1658SOL     OW 5657   6.489   0.693   5.167 -0.0903  0.1966  0.1904
 1658SOL    HW1 5658   6.430   0.747   5.115  0.1751 -0.9105 -1.3101
 1658SOL    HW2 5659   6.435   0.620   5.197  0.3657 -0.5625 -0.7829
 1659SOL     OW 5660   2.390   3.667   4.959 -0.2286 -0.1787 -0.5676
 1659SOL    HW1 5661   2.305   3.704   4.987 -0.7741 -1.0058 -1.0989
 1659SOL    HW2 5662   2.455   3.719   5.006 -1.0207  0.6884 -0.4029
 1660SOL     OW 5663   5.648   0.267   4.353 -0.0321  0.3141  0.1143
 1660SOL    HW1 5664   5.680   0.329   4.288  0.6079  0.3875  0.4877
 1660SOL    HW2 5665   5.572   0.309   4.393 -0.3708  0.3101 -0.5051
 1661SOL     OW 5666   0.742   3.016   1.568 -0.0208  0.2092 -0.3855
 1661SOL    HW1 5667   0.823   3.067   1.563  0.4521 -0.5726 -0.9106
 1661SOL    HW2 5668   0.739   2.985   1.658  0.2143  0.3290 -0.3341
 1662SOL     OW 5669   6.204   5.986   1.519 -0.2016  0.3201 -0.0649
 1662SOL    HW1 5670   6.113   5.961   1.538 -0.2377 -1.5836 -2.2612
 1662SOL    HW2 5671   6.212   6.074   1.554 -2.1324 -0.3436  2.3918
 1663SOL     OW 5672   5.563   1.971   5.942 -0.0583 -0.1319 -0.8512
 1663SOL    HW1 5673   5.480   1.945   5.902 -0.9870  1.8952 -0.3515
 1663SOL    HW2 5674   5.600   2.037   5.883  0.2225  0.4083 -0.0878
 1664SOL     OW 5675   4.375   4.141   0.149 -0.0412  0.4840 -0.0091
 1664SOL    HW1 5676   4.350   4.231   0.168 -0.4692  0.5307 -0.7640
 1664SOL    HW2 5677   4.457   4.148   0.100  0.1651  0.4422  0.3294
 1665SOL     OW 5678   0.758   0.127   1.770 -0.0035  0.1432  0.0441
 1665SOL    HW1 5679   0.792   0.115   1.682 -0.5622 -0.3525 -0.1139
 1665SOL    HW2 5680   0.663   0.113   1.761  0.0067 -0.4877  0.8182
 1666SOL     OW 5681   1.626   3.689   1.357 -0.1464 -0.1597 -0.6603
 1666SOL    HW1 5682   1.578   3.655   1.432  0.6427 -0.4238 -0.2603
 1666SOL    HW2 5683   1.601   3.781   1.352 -0.9544 -0.3742 -0.6773
 1667SOL     OW 5684   5.355   3.985   5.378  0.7200  0.2992 -0.8315
 1667SOL    HW1 5685   5.419   3.914   5.366 -1.3037 -1.5138 -1.6977
 1667SOL    HW2 5686   5.406   4.065   5.370  3.2933 -1.0138  1.0719
 1668SOL     OW 5687   2.143   2.519   2.906 -0.6432 -0.2466 -0.0920
 1668SOL    HW1 5688   2.177   2.430   2.909 -2.6182 -1.0625 -0.7563
 1668SOL    HW2 5689   2.163   2.555   2.993  0.4671 -1.2057  0.0643
 1669SOL     OW 5690   4.467   3.562   6.014  0.2734  0.2565  0.4049
 1669SOL    HW1 5691   4.388   3.540   6.064 -1.1698  0.5549 -1.6380
 1669SOL    HW2 5692   4.500   3.477   5.984 -0.6568  0.2619 -0.7030
 1670SOL     OW 5693   0.383   0.130   2.202 -0.5302  0.0982 -0.5728
 1670SOL    HW1 5694   0.439   0.085   2.139 -1.6741 -0.8827 -0.9281
 1670SOL    HW2 5695   0.357   0.062   2.264 -2.9803  0.0088 -1.5897
 1671SOL     OW 5696   2.134   5.126   4.338  1.0033  0.3905 -0.1032
 1671SOL    HW1 5697   2.093   5.074   4.407 -1.1573  0.9202 -0.8961
 1671SOL    HW2 5698   2.140   5.066   4.263  1.8052  0.2927  0.0279
 1672SOL     OW 5699   5.984   4.964   3.485 -0.2023  0.3286  0.4088
 1672SOL    HW1 5700   5.925   4.908   3.435  0.7419  0.5411 -0.9868
 1672SOL    HW2 5701   5.943   5.051   3.482  0.0510  0.4287 -0.3717
 1673SOL     OW 5702   1.906   4.960   5.762  0.5368 -0.3019 -0.3562
 1673SOL    HW1 5703   1.970   4.980   5.694  0.3232 -0.7801 -0.7070
 1673SOL    HW2 5704   1.926   5.020   5.834  2.9106 -2.0246  0.5373
 1674SOL     OW 5705   4.267   2.662   0.054 -0.2321  0.1218  0.0823
 1674SOL    HW1 5706   4.307   2.726  -0.004  0.3088 -0.9608 -0.7746
 1674SOL    HW2 5707   4.232   2.713   0.127  0.4280  1.3436 -0.4463
 1675SOL     OW 5708   6.418   2.853   4.197  0.2820 -0.3907  0.0455
 1675SOL    HW1 5709   6.426   2.933   4.249 -1.0828 -1.0396  1.3078
 1675SOL    HW2 5710   6.342   2.808   4.232  1.2199 -2.4517 -0.3783
 1676SOL     OW 5711   2.969   3.214   3.372  0.1970  0.2346  0.0498
 1676SOL    HW1 5712   2.933   3.133   3.410  2.8078 -0.6714  0.7740
 1676SOL    HW2 5713   2.917   3.284   3.412  0.5238 -0.8924  2.6314
 1677SOL     OW 5714   4.617   4.915   1.453  0.2466 -0.3847 -0.0234
 1677SOL    HW1 5715   4.545   4.970   1.422  0.8942  0.0545 -0.7810
 1677SOL    HW2 5716   4.691   4.940   1.399  0.2723 -2.9293 -1.3209
 1678SOL     OW 5717   1.226   3.242   5.464 -0.3148  0.7984  0.2277
 1678SOL    HW1 5718   1.145   3.293   5.461 -0.9411 -0.1244  0.8962
 1678SOL    HW2 5719   1.207   3.171   5.525 -0.0291 -1.1913 -1.8752
 1679SOL     OW 5720   2.461   2.097   0.721  0.0375  0.2491  0.3065
 1679SOL    HW1 5721   2.499   2.017   0.684 -0.0876 -0.3042  1.3506
 1679SOL    HW2 5722   2.525   2.165   0.702  1.0062 -0.4466  0.9992
 1680SOL     OW 5723   5.231   4.719   3.290 -0.6425  0.0683 -0.8408
 1680SOL    HW1 5724   5.277   4.635   3.297 -1.4940 -0.2379  2.8981
 1680SOL    HW2 5725   5.141   4.695   3.266 -0.5504  0.0788 -1.2119
 1681SOL     OW 5726   5.343   3.446   6.388 -0.3444  0.0345 -0.4104
 1681SOL    HW1 5727   5.394   3.526   6.405 -0.5787  0.1595 -0.2851
 1681SOL    HW2 5728   5.295   3.465   6.307 -1.1383  0.3930  0.1285
 1682SOL     OW 5729   5.712   3.849   3.876  0.2553  0.1616 -0.5062
 1682SOL    HW1 5730   5.665   3.818   3.798 -2.7879  0.7458  0.9317
 1682SOL    HW2 5731   5.735   3.939   3.856  0.0128  0.1256 -0.9669
 1683SOL     OW 5732   2.116   6.222   5.586 -0.2588  0.2797 -0.1752
 1683SOL    HW1 5733   2.029   6.216   5.624  0.8891  0.2898  2.6963
 1683SOL    HW2 5734   2.145   6.131   5.577  1.0166  0.2388  3.1015
 1684SOL     OW 5735   3.954   4.401   4.144 -0.1223 -0.5373 -0.7212
 1684SOL    HW1 5736   3.908   4.484   4.138  0.1035 -0.4019 -0.5889
 1684SOL    HW2 5737   4.045   4.425   4.161  0.2113 -0.7565 -2.0294
 1685SOL     OW 5738   3.911   4.982   0.039  0.6303 -0.7402  0.9873
 1685SOL    HW1 5739   3.929   4.900  -0.007  1.3972 -0.7079  1.2264
 1685SOL    HW2 5740   3.994   5.007   0.078  0.5918  0.5421  0.3115
 1686SOL     OW 5741   1.453   5.500   6.168  0.1808  0.7714  0.5334
 1686SOL    HW1 5742   1.436   5.585   6.127 -1.3185 -0.4056 -1.5121
 1686SOL    HW2 5743   1.371   5.452   6.158  1.6124 -1.6724 -0.3598
 1687SOL     OW 5744   0.682   1.968   2.757 -0.3668 -0.1674 -0.6242
 1687SOL    HW1 5745   0.718   2.043   2.711 -0.5833 -0.5295 -1.4001
 1687SOL    HW2 5746   0.590   1.964   2.729  0.0157 -1.6310 -1.8343
 1688SOL     OW 5747   4.391   1.432   6.276  0.3534 -0.2073  0.5610
 1688SOL    HW1 5748   4.413   1.388   6.194  0.3023 -0.5375  0.7270
 1688SOL    HW2 5749   4.401   1.365   6.344  0.7121  0.1459  0.8644
 1689SOL     OW 5750   4.575   5.340   4.865  0.3277  0.2693 -0.7514
 1689SOL    HW1 5751   4.523   5.420   4.875 -0.0488  0.0631 -0.9984
 1689SOL    HW2 5752   4.512   5.269   4.879  0.9889 -0.0023  1.1003
 1690SOL     OW 5753   0.303   1.690   1.696  0.0810 -0.3291 -0.0624
 1690SOL    HW1 5754   0.354   1.722   1.622  0.4649 -0.5410  0.1104
 1690SOL    HW2 5755   0.294   1.766   1.754 -1.0083  0.0932 -0.7493
 1691SOL     OW 5756   4.145   4.509   1.397  0.1231  0.1222 -1.0188
 1691SOL    HW1 5757   4.135   4.601   1.421 -1.4825 -0.4253  0.7906
 1691SOL    HW2 5758   4.095   4.499   1.316 -1.7274  0.4622  0.0101
 1692SOL     OW 5759   1.048   4.113   5.876 -0.2276  0.1953  0.1233
 1692SOL    HW1 5760   0.995   4.188   5.849 -1.8062 -1.1999 -0.9489
 1692SOL    HW2 5761   0.986   4.039   5.874  1.4385 -1.2644  0.3383
 1693SOL     OW 5762   3.426   2.262   4.952  0.5371 -0.0693  0.2826
 1693SOL    HW1 5763   3.402   2.217   5.033 -0.5939  0.0820  0.0409
 1693SOL    HW2 5764   3.497   2.209   4.916 -0.4746 -1.4517  0.2188
 1694SOL     OW 5765   5.832   3.562   5.086  0.2265  0.2179 -0.6194
 1694SOL    HW1 5766   5.918   3.602   5.096 -0.5874  1.7006  0.9574
 1694SOL    HW2 5767   5.773   3.635   5.068 -0.8520 -0.6617 -0.7706
 1695SOL     OW 5768   0.388   3.891   1.743  0.2643  0.1345  0.5929
 1695SOL    HW1 5769   0.302   3.868   1.708  0.2062 -0.0215  0.8359
 1695SOL    HW2 5770   0.449   3.870   1.672  0.0793  0.4703  0.3345
 1696SOL     OW 5771   4.741   3.769   3.709 -0.2781  0.2227  0.0894
 1696SOL    HW1 5772   4.680   3.782   3.636  0.4073  0.3709 -0.4698
 1696SOL    HW2 5773   4.723   3.842   3.768  0.0776  0.8952 -0.6001
 1697SOL     OW 5774   5.185   3.301   2.424  0.0461  0.3241  0.0697
 1697SOL    HW1 5775   5.243   3.230   2.450 -1.1531 -1.2297 -1.3282
 1697SOL    HW2 5776   5.136   3.323   2.503  1.3121  0.5140  0.8274
 1698SOL     OW 5777   5.182   2.557   4.025 -0.1972  0.1764  0.3686
 1698SOL    HW1 5778   5.137   2.592   3.949  0.1040  0.0261  0.1181
 1698SOL    HW2 5779   5.275   2.567   4.004 -0.0818 -1.5234 -0.0765
 1699SOL     OW 5780   4.544   5.279   3.907  0.5764  0.3849 -0.0068
 1699SOL    HW1 5781   4.563   5.277   3.814 -1.4255  0.1262 -0.4641
 1699SOL    HW2 5782   4.476   5.346   3.916 -0.2050 -0.5053  1.0496
 1700SOL     OW 5783   0.024   3.264   6.359  0.3375  0.0012 -0.3125
 1700SOL    HW1 5784   0.005   3.356   6.379  3.3998  0.3215  1.8300
 1700SOL    HW2 5785  -0.009   3.216   6.435 -1.6129 -0.8281 -1.6014
 1701SOL     OW 5786   1.421   2.848   2.524 -0.1547  0.1542  0.2847
 1701SOL    HW1 5787   1.358   2.833   2.594 -0.7205 -2.2753 -0.6676
 1701SOL    HW2 5788   1.369   2.883   2.452 -0.0831 -0.0703  0.1230
 1702SOL     OW 5789   4.313   2.819   4.764  0.7118  0.2606  0.4631
 1702SOL    HW1 5790   4.240   2.760   4.781  1.6093 -0.5134  1.9433
 1702SOL    HW2 5791   4.382   2.789   4.824  1.2393  2.7760  1.2339
 1703SOL     OW 5792   2.278   3.627   4.693  0.4191 -0.2426  0.2786
 1703SOL    HW1 5793   2.280   3.700   4.632  2.2373 -1.2081 -0.9076
 1703SOL    HW2 5794   2.193   3.585   4.677  0.0054  0.6995 -0.0929
 1704SOL     OW 5795   2.685   4.096   6.481  0.1458 -0.0946 -0.2364
 1704SOL    HW1 5796   2.734   4.123   6.404  0.1979 -2.8605 -1.2682
 1704SOL    HW2 5797   2.699   4.001   6.487 -2.2602 -0.4347  1.4548
 1705SOL     OW 5798   4.026   4.126   1.347  0.1161 -0.2488  0.1468
 1705SOL    HW1 5799   4.091   4.086   1.289 -0.5957  0.5161 -1.2090
 1705SOL    HW2 5800   3.964   4.055   1.365 -1.5175  0.2743 -2.8002
 1706SOL     OW 5801   6.387   5.752   6.173  0.3092 -0.3467  0.4119
 1706SOL    HW1 5802   6.359   5.822   6.113  2.1991  0.4609  0.3846
 1706SOL    HW2 5803   6.328   5.759   6.247 -2.3776 -1.6436 -1.4623
 1707SOL     OW 5804   5.888   0.835   2.929 -0.0935 -0.3929 -0.2397
 1707SOL    HW1 5805   5.841   0.897   2.984  0.4767 -1.0945  1.0943
 1707SOL    HW2 5806   5.865   0.859   2.839 -0.9885  0.8346  0.2989
 1708SOL     OW 5807   5.561   1.543   5.754 -0.0273 -0.1329  0.6292
 1708SOL    HW1 5808   5.528   1.572   5.669  0.2769 -0.1313  0.5089
 1708SOL    HW2 5809   5.511   1.594   5.818  0.1819  0.3354  0.4306
 1709SOL     OW 5810   1.904   5.152   5.972  0.2284  0.1833  0.1818
 1709SOL    HW1 5811   1.937   5.090   6.037  0.8985 -1.1361 -1.3409
 1709SOL    HW2 5812   1.834   5.199   6.017  1.5577  0.2969  2.2651
 1710SOL     OW 5813   3.311   5.055   4.983 -0.0961  0.4387 -0.3068
 1710SOL    HW1 5814   3.305   5.150   4.997  1.5236  0.3188  1.6252
 1710SOL    HW2 5815   3.402   5.041   4.956 -0.0679 -0.6599  0.3252
 1711SOL     OW 5816   4.367   6.322   5.776  0.1311 -0.8176 -0.0996
 1711SOL    HW1 5817   4.414   6.250   5.734  0.6811  0.0356 -1.0192
 1711SOL    HW2 5818   4.434   6.367   5.828 -0.2609 -1.1031  0.6662
 1712SOL     OW 5819   3.608   6.364   5.074 -0.1926 -0.1394  0.0609
 1712SOL    HW1 5820   3.560   6.444   5.093  0.7805  0.9556 -1.7846
 1712SOL    HW2 5821   3.698   6.383   5.100  0.1161 -0.4786 -0.7312
 1713SOL     OW 5822   1.799   4.133   5.247 -0.1158  0.2344 -0.1386
 1713SOL    HW1 5823   1.862   4.161   5.313  0.5769  0.8663 -1.0473
 1713SOL    HW2 5824   1.722   4.189   5.261 -0.4562 -0.4660  0.8995
 1714SOL     OW 5825   2.443   6.134   6.386  0.2555  0.6577 -0.3210
 1714SOL    HW1 5826   2.463   6.161   6.296  1.1372 -0.0010 -0.3405
 1714SOL    HW2 5827   2.488   6.198   6.441  2.6779 -0.8528 -0.3631
 1715SOL     OW 5828   0.165   5.623   2.731 -0.1811 -0.0774 -0.8093
 1715SOL    HW1 5829   0.212   5.691   2.683 -1.0349 -0.0459 -1.6379
 1715SOL    HW2 5830   0.200   5.541   2.699  0.0546 -0.0397 -0.6462
 1716SOL     OW 5831   0.485   5.523   2.086  0.3365  0.1097 -0.0889
 1716SOL    HW1 5832   0.478   5.614   2.058  0.3553 -0.5127 -2.3205
 1716SOL    HW2 5833   0.579   5.505   2.085  0.2369 -0.5103 -1.8581
 1717SOL     OW 5834   4.048   5.645   2.282 -0.0603  0.4234  0.0896
 1717SOL    HW1 5835   4.138   5.661   2.309  0.4125 -0.6555 -0.7824
 1717SOL    HW2 5836   3.995   5.675   2.356  0.9771  1.5255  0.4021
 1718SOL     OW 5837   1.148   3.084   5.662 -0.4242  0.2474 -0.0420
 1718SOL    HW1 5838   1.086   3.011   5.660 -0.1643 -0.0856  2.0473
 1718SOL    HW2 5839   1.109   3.148   5.722  0.3069  0.9297 -0.2678
 1719SOL     OW 5840   4.498   0.828   6.007 -0.2309 -0.3235 -0.1755
 1719SOL    HW1 5841   4.445   0.797   5.934 -1.1318 -0.8640  0.6831
 1719SOL    HW2 5842   4.460   0.914   6.029  0.1214 -0.1032 -0.4172
 1720SOL     OW 5843   2.604   3.369   0.967  0.1643  0.4517 -0.0838
 1720SOL    HW1 5844   2.691   3.410   0.962  0.7950 -0.8506 -0.1246
 1720SOL    HW2 5845   2.571   3.372   0.877  1.0354 -0.8262 -0.4773
 1721SOL     OW 5846   3.974   1.573   2.495 -0.5191  0.6525  0.1099
 1721SOL    HW1 5847   3.990   1.546   2.586 -1.5597  0.9370  0.3939
 1721SOL    HW2 5848   3.920   1.503   2.459  1.7032 -0.6121 -1.0260
 1722SOL     OW 5849   1.625   0.395   5.005 -0.7358  0.1102  0.0682
 1722SOL    HW1 5850   1.645   0.422   5.095  0.0891  0.0953 -0.1098
 1722SOL    HW2 5851   1.531   0.376   5.007 -0.9378  1.1242  0.6667
 1723SOL     OW 5852   5.484   1.677   4.439 -0.3570 -0.3935  0.1538
 1723SOL    HW1 5853   5.507   1.769   4.450  0.3195 -0.7332  2.0694
 1723SOL    HW2 5854   5.414   1.676   4.375  0.2412  1.3653 -0.5689
 1724SOL     OW 5855   6.151   0.463   3.024  0.0971  0.0455 -0.6483
 1724SOL    HW1 5856   6.133   0.458   2.930  0.8321  0.2719 -0.8095
 1724SOL    HW2 5857   6.176   0.374   3.048 -1.7704 -0.4104 -0.2958
 1725SOL     OW 5858   3.882   1.150   0.634 -0.1336 -0.3212 -0.1417
 1725SOL    HW1 5859   3.851   1.171   0.546 -0.8141 -0.7601 -0.0114
 1725SOL    HW2 5860   3.864   1.229   0.685  0.0862 -0.1363 -0.3483
 1726SOL     OW 5861   6.176   4.990   6.322  0.0152  0.1066 -0.0943
 1726SOL    HW1 5862   6.125   4.909   6.316 -1.0090  0.7269  0.1527
 1726SOL    HW2 5863   6.253   4.973   6.267 -0.2884 -0.9558 -0.2119
 1727SOL     OW 5864   2.811   5.566   0.611 -0.2415 -0.4709 -0.3763
 1727SOL    HW1 5865   2.850   5.479   0.609  1.3965  0.2241 -1.6868
 1727SOL    HW2 5866   2.732   5.556   0.664  0.8965 -2.3267  1.1155
 1728SOL     OW 5867   1.946   2.179   2.758  0.0654 -0.6616  0.9871
 1728SOL    HW1 5868   1.916   2.116   2.693 -1.6556  0.3063  0.7889
 1728SOL    HW2 5869   1.876   2.244   2.763  0.6694 -0.0896  2.9778
 1729SOL     OW 5870   4.374   0.014   3.863 -0.2655  0.6462 -0.6748
 1729SOL    HW1 5871   4.378  -0.029   3.778  2.0410  1.6452 -1.1406
 1729SOL    HW2 5872   4.307   0.082   3.852 -2.5088 -1.4099 -0.5268
 1730SOL     OW 5873   0.016   1.947   3.627  0.2199  0.2561 -0.5876
 1730SOL    HW1 5874   0.074   1.978   3.557  0.8889 -0.7693 -0.5109
 1730SOL    HW2 5875   0.034   1.853   3.634 -0.5393  0.1569  0.3087
 1731SOL     OW 5876   5.122   0.072   2.217 -0.2706  0.2388  0.0547
 1731SOL    HW1 5877   5.091   0.160   2.194  0.6236  0.5254 -0.1065
 1731SOL    HW2 5878   5.047   0.030   2.258 -0.7775  1.0056 -0.0617
 1732SOL     OW 5879   4.968   3.291   3.317 -0.1804  0.0337  0.2729
 1732SOL    HW1 5880   4.969   3.342   3.398  1.8896  3.2184 -1.4786
 1732SOL    HW2 5881   4.906   3.337   3.261  0.6496 -0.2072 -0.8911
 1733SOL     OW 5882   2.460   5.949   3.551 -0.2834  0.2973 -0.3282
 1733SOL    HW1 5883   2.430   5.859   3.536  1.2557 -0.0126 -2.0154
 1733SOL    HW2 5884   2.483   5.981   3.463 -1.1958  2.5075  0.1773
 1734SOL     OW 5885   0.468   1.702   0.786 -0.5778  0.0287  0.0801
 1734SOL    HW1 5886   0.550   1.664   0.817  0.0755  0.8724 -0.5718
 1734SOL    HW2 5887   0.433   1.748   0.863  0.6049  1.3882 -0.1401
 1735SOL     OW 5888   6.379   4.972   3.609 -0.3184  0.4149  0.4345
 1735SOL    HW1 5889   6.313   4.905   3.627 -0.3640  0.3669  0.1037
 1735SOL    HW2 5890   6.458   4.923   3.587 -0.0717  0.4728  1.1714
 1736SOL     OW 5891   2.037   2.746   5.728 -0.2813  0.3459  0.1243
 1736SOL    HW1 5892   1.959   2.690   5.726  0.1901 -0.5073  2.6452
 1736SOL    HW2 5893   2.107   2.691   5.695 -0.3115  0.3705  0.0169
 1737SOL     OW 5894   0.623   0.274   0.393  0.3961 -0.3913  0.1917
 1737SOL    HW1 5895   0.672   0.225   0.327  0.1733 -1.0353  0.4896
 1737SOL    HW2 5896   0.604   0.209   0.461  0.5819  0.2465  0.8679
 1738SOL     OW 5897   1.495   0.169   1.354 -0.1369 -0.1368 -0.2980
 1738SOL    HW1 5898   1.589   0.179   1.369  0.2642 -1.2955 -1.8537
 1738SOL    HW2 5899   1.481   0.075   1.349 -1.7629 -0.0892  1.9113
 1739SOL     OW 5900   4.950   0.965   2.815 -0.2049  0.6061 -0.4073
 1739SOL    HW1 5901   4.881   0.933   2.874  0.1568 -1.8910 -1.2274
 1739SOL    HW2 5902   4.906   1.028   2.758 -1.1165  1.2040  0.9129
 1740SOL     OW 5903   4.188   4.785   6.124  0.6836  0.5742 -0.1829
 1740SOL    HW1 5904   4.265   4.811   6.176  1.2698  1.0426 -1.2502
 1740SOL    HW2 5905   4.225   4.744   6.046 -0.1674  0.5369 -0.5737
 1741SOL     OW 5906   2.221   3.546   5.328  0.0147  0.2581 -0.3095
 1741SOL    HW1 5907   2.293   3.487   5.306 -0.0996 -0.2379  0.5922
 1741SOL    HW2 5908   2.142   3.493   5.320 -0.1211  0.3771  0.1658
 1742SOL     OW 5909   1.764   5.032   4.340 -0.2282 -0.2454  0.5436
 1742SOL    HW1 5910   1.759   5.042   4.245 -2.2587 -1.4194  0.4893
 1742SOL    HW2 5911   1.835   4.969   4.354 -0.1738 -0.3600 -0.2207
 1743SOL     OW 5912   0.248   3.621   0.703  0.0060  0.1070  0.3526
 1743SOL    HW1 5913   0.311   3.586   0.766  0.9229  0.2781 -0.4430
 1743SOL    HW2 5914   0.163   3.617   0.748  0.3138 -1.7219  0.8168
 1744SOL     OW 5915   3.324   0.703   4.452  0.1106  0.4379  0.3339
 1744SOL    HW1 5916   3.252   0.641   4.440  1.2430 -1.1396  1.2885
 1744SOL    HW2 5917   3.376   0.694   4.372 -0.1429  0.7256  0.1378
 1745SOL     OW 5918   4.029   6.086   4.263 -0.3353 -0.1858  0.3602
 1745SOL    HW1 5919   3.944   6.044   4.277 -0.4758 -0.5627 -1.3311
 1745SOL    HW2 5920   4.051   6.064   4.172  2.0365 -0.9233  1.0527
 1746SOL     OW 5921   1.526   1.992   1.884  0.2147  0.1991 -0.1791
 1746SOL    HW1 5922   1.591   1.985   1.953  0.5086 -0.0934 -0.4848
 1746SOL    HW2 5923   1.576   2.010   1.805  0.0286 -1.0615 -0.6065
 1747SOL     OW 5924   4.912   4.606   0.551  0.2280 -0.0006  0.2345
 1747SOL    HW1 5925   4.985   4.546   0.534  1.9773  2.8048 -3.5496
 1747SOL    HW2 5926   4.848   4.586   0.484 -0.0281  1.0882  0.1409
 1748SOL     OW 5927   0.286   0.901   2.527  0.2238 -0.2115 -0.4384
 1748SOL    HW1 5928   0.318   0.987   2.500  0.8382 -0.2348  0.1942
 1748SOL    HW2 5929   0.334   0.838   2.473  0.6177 -0.2068 -0.0961
 1749SOL     OW 5930   1.688   3.359   0.413 -0.0938  0.6054  0.0637
 1749SOL    HW1 5931   1.675   3.297   0.341  0.6389  0.2153  0.2530
 1749SOL    HW2 5932   1.620   3.425   0.401 -3.2182 -2.0129  1.8121
 1750SOL     OW 5933   2.689   4.084   5.796 -0.0816 -0.6027 -0.5138
 1750SOL    HW1 5934   2.738   4.005   5.822 -0.6635 -0.4776  1.0605
 1750SOL    HW2 5935   2.748   4.129   5.735  1.0555 -1.3174  0.0125
 1751SOL     OW 5936   0.872   2.011   3.465  0.7234 -0.2307 -0.1321
 1751SOL    HW1 5937   0.786   1.978   3.440 -0.0723  1.7191 -0.1461
 1751SOL    HW2 5938   0.877   1.994   3.559 -0.7204  1.7407  0.3540
 1752SOL     OW 5939   6.040   3.331   0.515 -0.4707 -0.0255 -0.6631
 1752SOL    HW1 5940   6.106   3.397   0.534  0.9598 -0.7354 -2.7666
 1752SOL    HW2 5941   5.967   3.351   0.574  0.9918  1.7302  0.6444
 1753SOL     OW 5942   4.487   1.108   1.253  0.4601  0.3543 -0.1879
 1753SOL    HW1 5943   4.485   1.103   1.157  2.7165 -0.0787 -0.2750
 1753SOL    HW2 5944   4.447   1.027   1.282  0.1592  0.2855 -0.7760
 1754SOL     OW 5945   3.200   6.463   3.425 -0.5254 -0.6822  0.5960
 1754SOL    HW1 5946   3.106   6.446   3.427 -0.5428 -1.1672 -1.4723
 1754SOL    HW2 5947   3.239   6.379   3.401  0.3802 -0.3448  0.8426
 1755SOL     OW 5948   5.670   1.414   6.369 -0.7148  0.1651  0.1870
 1755SOL    HW1 5949   5.602   1.350   6.387 -0.2208  0.1026  1.9452
 1755SOL    HW2 5950   5.656   1.483   6.433 -0.1596  0.9833 -0.5504
 1756SOL     OW 5951   3.338   3.846   0.302 -0.2745 -0.4202 -0.0963
 1756SOL    HW1 5952   3.342   3.824   0.209  0.1316  2.9938 -1.0473
 1756SOL    HW2 5953   3.428   3.834   0.333  0.4136  1.5285 -1.1040
 1757SOL     OW 5954   3.403   2.351   1.066 -0.3392  0.7651 -0.5084
 1757SOL    HW1 5955   3.317   2.325   1.097 -0.0371 -0.4300 -0.6291
 1757SOL    HW2 5956   3.416   2.300   0.986 -0.4397  2.5993 -1.7562
 1758SOL     OW 5957   3.658   3.513   0.500  0.2558  0.7233  0.6304
 1758SOL    HW1 5958   3.610   3.479   0.576  0.2178  1.3251  0.8856
 1758SOL    HW2 5959   3.690   3.599   0.529 -0.1153  1.1429 -0.1660
 1759SOL     OW 5960   3.711   0.312   5.002 -0.4308  0.5844  0.6359
 1759SOL    HW1 5961   3.706   0.400   5.039 -2.0162 -0.2662  2.5690
 1759SOL    HW2 5962   3.771   0.265   5.060  1.2418  0.5840 -0.9816
 1760SOL     OW 5963   4.367   2.624   3.647 -0.1938 -0.2144  0.0659
 1760SOL    HW1 5964   4.275   2.626   3.622  0.0084  2.2226 -0.8600
 1760SOL    HW2 5965   4.390   2.531   3.650 -2.9225 -0.9359  1.4642
 1761SOL     OW 5966   5.736   4.513   2.705 -0.4094 -0.3397  0.1022
 1761SOL    HW1 5967   5.747   4.582   2.771  0.0306 -0.0217 -0.2957
 1761SOL    HW2 5968   5.642   4.500   2.699 -0.5062  0.3048  0.1091
 1762SOL     OW 5969   1.359   2.290   3.409  0.0076 -0.0442  0.4143
 1762SOL    HW1 5970   1.289   2.353   3.395 -0.1563 -0.1721  0.6492
 1762SOL    HW2 5971   1.383   2.260   3.322 -1.3279 -1.2002  0.4019
 1763SOL     OW 5972   0.850   4.603   3.266  0.1911  0.1814  0.3584
 1763SOL    HW1 5973   0.819   4.669   3.204 -0.0143 -0.9453 -0.7741
 1763SOL    HW2 5974   0.775   4.543   3.277  0.6723 -0.3824  0.6230
 1764SOL     OW 5975   1.053   5.188   4.350 -0.3813 -0.2229 -0.2303
 1764SOL    HW1 5976   1.075   5.120   4.413  0.4837 -0.6140 -0.9334
 1764SOL    HW2 5977   1.040   5.142   4.268  1.7382  0.5495 -1.0785
 1765SOL     OW 5978   3.636   1.690   3.981 -0.0157 -0.0796  0.1394
 1765SOL    HW1 5979   3.622   1.609   3.933 -0.4085 -0.6636  1.1964
 1765SOL    HW2 5980   3.601   1.759   3.924  0.6089 -0.6090 -0.9032
 1766SOL     OW 5981   4.158   1.479   1.061 -0.9087  0.5413 -0.1007
 1766SOL    HW1 5982   4.253   1.486   1.074 -0.9964 -0.6205  1.3894
 1766SOL    HW2 5983   4.145   1.500   0.968  0.6885  1.6225 -0.1238
 1767SOL     OW 5984   1.010   3.420   1.623  0.1568  0.1313  0.8741
 1767SOL    HW1 5985   1.075   3.489   1.635 -1.6611  1.8951  1.0959
 1767SOL    HW2 5986   0.983   3.396   1.712  0.7580 -0.8944  0.8006
 1768SOL     OW 5987   0.890   2.606   5.711  0.3215  0.0161  0.2496
 1768SOL    HW1 5988   0.818   2.606   5.774  0.7035 -0.3910  0.6921
 1768SOL    HW2 5989   0.929   2.519   5.719  1.9257  0.7947  1.2484
 1769SOL     OW 5990   5.062   6.402   4.938 -0.4982 -0.0170  0.5725
 1769SOL    HW1 5991   5.002   6.347   4.989  0.5379 -0.7993  0.9834
 1769SOL    HW2 5992   5.066   6.359   4.852  0.4145 -0.6896  0.9354
 1770SOL     OW 5993   2.119   1.864   3.210  0.1422  0.2374 -0.3954
 1770SOL    HW1 5994   2.191   1.848   3.271 -1.4377 -0.5620  1.3333
 1770SOL    HW2 5995   2.132   1.799   3.141  1.6839  0.8407 -0.7192
 1771SOL     OW 5996   1.675   4.835   4.950 -0.2686 -0.2261 -0.0407
 1771SOL    HW1 5997   1.753   4.873   4.990  0.3095  0.1564 -1.4658
 1771SOL    HW2 5998   1.635   4.907   4.901 -1.2299 -0.5525  0.2392
 1772SOL     OW 5999   1.777   1.668   2.685 -0.0541  0.4143 -0.1433
 1772SOL    HW1 6000   1.742   1.754   2.663 -0.0371  0.4885  0.1116
 1772SOL    HW2 6001   1.806   1.677   2.776  1.6031  0.6635 -0.6698
 1773SOL     OW 6002   2.598   2.674   6.098 -0.2412  0.0323 -0.1136
 1773SOL    HW1 6003   2.544   2.695   6.021 -2.4827  2.1488  1.8567
 1773SOL    HW2 6004   2.681   2.718   6.082 -0.5224  0.1030 -1.4935
 1774SOL     OW 6005   6.176   5.982   5.838 -0.0320 -0.0551 -0.0887
 1774SOL    HW1 6006   6.239   6.028   5.894 -0.7065 -1.4577  1.9292
 1774SOL    HW2 6007   6.093   5.989   5.885 -0.8411 -0.4609 -1.4173
 1775SOL     OW 6008   6.163   1.527   6.236  0.8158  0.1181 -0.1013
 1775SOL    HW1 6009   6.095   1.546   6.172  0.8983 -0.2722 -0.3101
 1775SOL    HW2 6010   6.231   1.592   6.219  0.7244  0.1774 -0.2393
 1776SOL     OW 6011   1.092   6.343   5.569  0.6306 -0.4208  0.8600
 1776SOL    HW1 6012   1.071   6.392   5.649 -2.7037  0.0945 -0.2088
 1776SOL    HW2 6013   1.120   6.410   5.506 -0.8643 -0.2436  0.3559
 1777SOL     OW 6014   1.040   5.145   3.472  0.4111 -0.2424 -0.1638
 1777SOL    HW1 6015   1.128   5.150   3.436  0.2818  2.8835 -0.3909
 1777SOL    HW2 6016   1.046   5.192   3.555 -0.8227 -0.9008  0.3179
 1778SOL     OW 6017   4.286   2.707   0.377 -0.0205  0.5152 -0.2237
 1778SOL    HW1 6018   4.322   2.761   0.306  0.2695  2.0672  1.0504
 1778SOL    HW2 6019   4.232   2.767   0.428  0.4105 -0.3545  1.3250
 1779SOL     OW 6020   4.922   6.431   5.231 -0.2387  0.1077  0.3085
 1779SOL    HW1 6021   4.884   6.487   5.299  0.7655  0.8266  0.2922
 1779SOL    HW2 6022   4.956   6.492   5.166 -1.2501 -0.5622 -0.9116
 1780SOL     OW 6023   2.497   1.312   4.271 -0.6662 -0.1887 -0.0593
 1780SOL    HW1 6024   2.453   1.257   4.337  0.3573 -1.9357 -0.7613
 1780SOL    HW2 6025   2.534   1.385   4.321 -3.5419  0.8917  0.6744
 1781SOL     OW 6026   5.440   2.781   5.216 -0.0435  0.0869  0.1908
 1781SOL    HW1 6027   5.430   2.730   5.297  1.5659 -1.6885 -0.6506
 1781SOL    HW2 6028   5.526   2.821   5.225 -1.3957  3.0899  0.9733
 1782SOL     OW 6029   5.371   1.969   0.872 -0.0827 -0.6085 -0.3510
 1782SOL    HW1 6030   5.326   1.886   0.858  1.0400 -0.8911 -2.8915
 1782SOL    HW2 6031   5.354   2.019   0.792  1.7026  0.3886 -0.1629
 1783SOL     OW 6032   0.783   3.947   0.377 -0.1509  0.4004  0.7273
 1783SOL    HW1 6033   0.878   3.947   0.375 -0.0989 -0.9510  1.5662
 1783SOL    HW2 6034   0.760   3.914   0.464 -1.3244 -2.1268 -0.4282
 1784SOL     OW 6035   1.803   4.290   1.793  0.0014 -0.2605 -0.3541
 1784SOL    HW1 6036   1.891   4.254   1.776  0.0180 -0.9619  1.0627
 1784SOL    HW2 6037   1.762   4.225   1.850 -0.5347  1.2372  1.0282
 1785SOL     OW 6038   6.080   1.601   2.660  0.8093 -0.3786 -0.3423
 1785SOL    HW1 6039   6.168   1.590   2.624  0.4287  1.2796 -1.9113
 1785SOL    HW2 6040   6.068   1.696   2.668 -1.2250 -0.4912 -1.2561
 1786SOL     OW 6041   2.333   5.182   1.933 -0.1833  0.1626 -0.1649
 1786SOL    HW1 6042   2.321   5.191   2.028 -0.1915 -0.9549 -0.0353
 1786SOL    HW2 6043   2.428   5.182   1.921 -0.1848  0.4755 -0.1768
 1787SOL     OW 6044   0.403   3.542   0.902  0.5644  0.2718  0.2997
 1787SOL    HW1 6045   0.431   3.545   0.994  1.3749  1.5715  0.0347
 1787SOL    HW2 6046   0.411   3.450   0.878 -2.0604 -0.5887  2.2044
 1788SOL     OW 6047   1.776   1.933   1.709  0.3199 -0.1138 -0.3203
 1788SOL    HW1 6048   1.726   1.910   1.631 -1.1478  1.7333  0.0053
 1788SOL    HW2 6049   1.823   2.012   1.686  0.7525 -0.1647  0.3365
 1789SOL     OW 6050   2.258   3.722   0.507 -0.0704  0.0029 -1.0876
 1789SOL    HW1 6051   2.259   3.632   0.538 -0.0482  0.8228  1.5187
 1789SOL    HW2 6052   2.348   3.740   0.480  1.0639  0.4339  2.4462
 1790SOL     OW 6053   6.287   1.060   1.470 -0.1680 -0.2089 -0.2444
 1790SOL    HW1 6054   6.268   1.121   1.400  1.2266 -0.5389 -0.9458
 1790SOL    HW2 6055   6.263   0.974   1.434  1.2518 -0.4674 -0.6371
 1791SOL     OW 6056   5.046   3.078   3.612 -0.4491 -0.0405 -0.5783
 1791SOL    HW1 6057   5.011   3.005   3.664 -0.2901 -0.6557 -1.3148
 1791SOL    HW2 6058   5.105   3.036   3.550  0.6181  0.8550 -0.1926
 1792SOL     OW 6059   1.228   2.082   3.802 -0.6492 -0.1950 -0.0121
 1792SOL    HW1 6060   1.302   2.072   3.743  0.7144  1.1675  1.3561
 1792SOL    HW2 6061   1.267   2.073   3.890 -2.3395 -0.6977  0.7221
 1793SOL     OW 6062   1.851   3.317   0.010  0.3207  0.3291 -0.0461
 1793SOL    HW1 6063   1.890   3.249  -0.045 -0.2287  0.3817 -0.5076
 1793SOL    HW2 6064   1.924   3.375   0.032  0.4934  0.4933 -0.9978
 1794SOL     OW 6065   5.441   5.622   1.387 -0.8799 -0.3498 -0.5628
 1794SOL    HW1 6066   5.350   5.618   1.417 -0.5654  0.7386  0.6161
 1794SOL    HW2 6067   5.434   5.622   1.291 -2.1941  0.5614 -0.5058
 1795SOL     OW 6068   6.388   4.093   1.053 -0.6716 -0.1650  0.2988
 1795SOL    HW1 6069   6.359   4.003   1.063  0.5391 -0.7649 -1.1535
 1795SOL    HW2 6070   6.367   4.115   0.962 -0.9966  1.0468  0.6480
 1796SOL     OW 6071   4.411   2.362   0.976  0.2037 -0.6277 -0.0325
 1796SOL    HW1 6072   4.377   2.321   0.897 -0.9718  0.5718 -0.1748
 1796SOL    HW2 6073   4.427   2.289   1.036  1.8903 -1.6543 -1.5990
 1797SOL     OW 6074   3.800   6.348   3.065 -0.2886 -0.0287  0.1186
 1797SOL    HW1 6075   3.883   6.367   3.110 -0.5113 -1.0255  0.9999
 1797SOL    HW2 6076   3.822   6.351   2.972  0.4533  0.9261  0.2968
 1798SOL     OW 6077   4.577   3.324   3.264  0.4311  0.0767  0.0257
 1798SOL    HW1 6078   4.549   3.360   3.348  0.4572 -0.2179  0.1621
 1798SOL    HW2 6079   4.497   3.314   3.214  0.3642 -0.1513  0.1754
 1799SOL     OW 6080   5.859   2.533   4.835  0.4109  1.0832  1.0614
 1799SOL    HW1 6081   5.867   2.625   4.809  2.2169  0.6263 -0.1836
 1799SOL    HW2 6082   5.767   2.523   4.857 -0.2769  2.6970 -0.7345
 1800SOL     OW 6083   4.364   5.578   2.209 -0.1452 -0.1838 -0.3595
 1800SOL    HW1 6084   4.309   5.626   2.148 -1.1416  1.2627  1.5403
 1800SOL    HW2 6085   4.441   5.634   2.221 -0.5968  0.2508  0.6959
 1801SOL     OW 6086   0.564   0.803   2.728 -0.1876 -0.5896 -0.1211
 1801SOL    HW1 6087   0.536   0.879   2.677  1.3313  0.0110 -0.1216
 1801SOL    HW2 6088   0.582   0.735   2.663 -2.6808 -1.4235 -0.0632
 1802SOL     OW 6089   2.229   2.969   0.326 -0.2711  0.2451 -0.3293
 1802SOL    HW1 6090   2.179   3.019   0.390 -0.6329  0.0310 -0.4410
 1802SOL    HW2 6091   2.249   3.032   0.257 -1.5547  0.0154 -0.9325
 1803SOL     OW 6092   3.927   4.084   6.422  0.3152 -0.2934 -0.5173
 1803SOL    HW1 6093   3.954   4.000   6.384 -0.2414 -0.2932 -0.9250
 1803SOL    HW2 6094   3.990   4.147   6.387  0.0844 -0.3707 -1.0841
 1804SOL     OW 6095   2.486   5.243   0.875 -0.3143 -0.3360 -0.0177
 1804SOL    HW1 6096   2.470   5.156   0.911  0.1396 -0.2207  0.4764
 1804SOL    HW2 6097   2.576   5.264   0.901 -0.3505  0.2003 -0.2968
 1805SOL     OW 6098   4.764   5.271   1.000  0.1004 -0.0338 -0.3209
 1805SOL    HW1 6099   4.729   5.269   1.089 -0.1200 -0.3907 -0.4165
 1805SOL    HW2 6100   4.720   5.346   0.959 -0.3617 -0.3287 -0.3641
 1806SOL     OW 6101   1.164   0.074   6.416 -0.0389  0.3612  0.2641
 1806SOL    HW1 6102   1.195   0.026   6.339 -0.0294 -1.6041  1.4494
 1806SOL    HW2 6103   1.232   0.061   6.482 -0.3223  1.5417  0.8210
 1807SOL     OW 6104   1.678   1.495   6.377 -0.0576 -0.4877 -0.3648
 1807SOL    HW1 6105   1.735   1.536   6.442  0.6386 -1.2435 -0.4764
 1807SOL    HW2 6106   1.696   1.542   6.296  2.4283 -2.3417 -1.0389
 1808SOL     OW 6107   2.680   0.655   2.298  0.0282  0.0702  0.2438
 1808SOL    HW1 6108   2.620   0.597   2.344  0.6042  0.2847  1.3069
 1808SOL    HW2 6109   2.654   0.743   2.324  0.4988  0.1868  0.3289
 1809SOL     OW 6110   2.245   3.947   1.948 -0.6196 -0.3895  0.2639
 1809SOL    HW1 6111   2.271   3.894   1.873 -0.3419  0.8680 -0.5557
 1809SOL    HW2 6112   2.184   4.012   1.913  1.8799  2.2765  0.3685
 1810SOL     OW 6113   4.876   2.349   4.192  0.2522 -0.6868 -0.6862
 1810SOL    HW1 6114   4.926   2.428   4.211 -0.0733 -0.0971 -2.1034
 1810SOL    HW2 6115   4.930   2.301   4.129  1.3036 -2.5645  1.4827
 1811SOL     OW 6116   5.907   4.348   2.241  0.3971  0.0017 -0.1274
 1811SOL    HW1 6117   5.916   4.426   2.187 -0.9091 -0.0740 -0.4808
 1811SOL    HW2 6118   5.917   4.380   2.331 -1.0651  0.7633 -0.2065
 1812SOL     OW 6119   2.017   3.911   4.403 -0.2968 -0.4162  0.6466
 1812SOL    HW1 6120   1.962   3.868   4.468  1.4480 -2.2506  1.0006
 1812SOL    HW2 6121   1.964   3.909   4.323 -1.5796 -0.1501  1.4527
 1813SOL     OW 6122   2.822   0.609   2.599  0.2110  0.8805  0.4804
 1813SOL    HW1 6123   2.782   0.612   2.686 -0.7020 -0.2140  0.1290
 1813SOL    HW2 6124   2.791   0.688   2.555 -3.2063 -0.7807 -0.4253
 1814SOL     OW 6125   1.360   0.490   4.356  0.5073  0.1775  0.0474
 1814SOL    HW1 6126   1.340   0.559   4.293  0.4104  0.0508 -0.0594
 1814SOL    HW2 6127   1.327   0.410   4.316 -0.7984  0.2832  0.8489
 1815SOL     OW 6128   3.890   0.505   4.283  0.0423  0.1527  0.7227
 1815SOL    HW1 6129   3.798   0.480   4.287 -0.1422  0.3642 -1.2651
 1815SOL    HW2 6130   3.891   0.596   4.314 -0.9402  1.2014 -2.0544
 1816SOL     OW 6131   3.914   5.075   3.729  0.2873  0.0461  0.0190
 1816SOL    HW1 6132   4.001   5.116   3.724  1.4686 -2.2794  0.2389
 1816SOL    HW2 6133   3.855   5.142   3.695  2.1559  1.6961 -0.2060
 1817SOL     OW 6134   1.972   3.216   5.756  0.4748 -0.5173 -0.0957
 1817SOL    HW1 6135   2.038   3.197   5.822 -0.1697 -0.0394  0.7199
 1817SOL    HW2 6136   1.913   3.278   5.799  0.5777  0.5785 -1.4583
 1818SOL     OW 6137   1.973   1.267   0.915 -0.1944  0.1308 -0.5672
 1818SOL    HW1 6138   2.042   1.333   0.918 -1.7530  1.8016 -0.1233
 1818SOL    HW2 6139   1.956   1.246   1.007 -0.5276 -0.0214 -0.6605
 1819SOL     OW 6140   6.341   5.318   5.427  0.0814 -0.2331  0.2787
 1819SOL    HW1 6141   6.368   5.398   5.472 -1.0068 -0.7074  1.8656
 1819SOL    HW2 6142   6.408   5.304   5.361  1.2005  1.0788  1.0736
 1820SOL     OW 6143   2.329   0.975   4.056 -0.5821  0.6750 -0.6211
 1820SOL    HW1 6144   2.371   0.925   3.986 -0.5304 -0.0400 -0.0855
 1820SOL    HW2 6145   2.387   0.966   4.131 -1.2854  0.3439 -0.1059
 1821SOL     OW 6146   0.816   3.113   5.902 -0.3160  0.6369  0.6216
 1821SOL    HW1 6147   0.840   3.035   5.952 -1.7757 -0.2723 -0.0258
 1821SOL    HW2 6148   0.750   3.156   5.956 -1.7852 -0.2654 -0.3734
 1822SOL     OW 6149   3.389   3.914   5.982 -0.1779 -0.4203 -0.4655
 1822SOL    HW1 6150   3.382   3.822   6.006 -1.0319 -0.0494  0.8530
 1822SOL    HW2 6151   3.408   3.959   6.064 -1.3071  0.7337 -0.7914
 1823SOL     OW 6152   5.261   0.157   4.511 -0.1110  0.2739 -0.4092
 1823SOL    HW1 6153   5.274   0.086   4.573 -0.5075  1.3198  0.9186
 1823SOL    HW2 6154   5.179   0.136   4.466  0.3058 -0.6120 -0.7831
 1824SOL     OW 6155   5.187   5.698   0.075 -0.3446 -0.7201 -0.1815
 1824SOL    HW1 6156   5.092   5.703   0.085 -0.2159  0.1594  0.8040
 1824SOL    HW2 6157   5.217   5.650   0.152 -0.0124 -1.3511 -0.6910
 1825SOL     OW 6158   4.402   0.245   5.191 -0.2685  0.0354 -0.2601
 1825SOL    HW1 6159   4.400   0.242   5.095 -3.2448 -2.3247 -0.2649
 1825SOL    HW2 6160   4.425   0.156   5.218 -2.1445 -0.0983  1.1295
 1826SOL     OW 6161   0.121   6.026   5.508 -0.1812  0.1937 -0.6492
 1826SOL    HW1 6162   0.131   6.078   5.428 -1.5075  0.4297 -0.6856
 1826SOL    HW2 6163   0.097   5.939   5.476 -0.9205  0.3421 -0.5140
 1827SOL     OW 6164   3.294   1.400   2.221 -0.3074 -0.2504 -0.2371
 1827SOL    HW1 6165   3.330   1.359   2.143  0.3824 -1.4487  0.6626
 1827SOL    HW2 6166   3.325   1.490   2.217 -0.5248 -0.2169 -1.4811
 1828SOL     OW 6167   0.916   4.253   1.341  0.6826 -0.6051  0.2396
 1828SOL    HW1 6168   0.993   4.198   1.338  1.8877  0.9103  1.6995
 1828SOL    HW2 6169   0.948   4.340   1.318 -0.8646 -0.1852 -0.4838
 1829SOL     OW 6170   0.118   4.603   0.422  0.4048 -0.0886 -0.1989
 1829SOL    HW1 6171   0.047   4.664   0.439 -0.1229 -0.5085 -0.8644
 1829SOL    HW2 6172   0.107   4.577   0.330 -1.2444 -3.4920  0.7960
 1830SOL     OW 6173   1.339   5.342   1.939  0.0104 -0.6194 -0.3531
 1830SOL    HW1 6174   1.277   5.416   1.941 -0.4290 -0.9883 -0.2279
 1830SOL    HW2 6175   1.390   5.357   1.860 -0.8219 -0.7734 -0.9385
 1831SOL     OW 6176   1.193   0.813   1.099  0.1587  0.4107  0.1312
 1831SOL    HW1 6177   1.109   0.847   1.130  0.5894  3.5411 -1.6680
 1831SOL    HW2 6178   1.259   0.866   1.144  1.2680 -2.0327  1.5671
 1832SOL     OW 6179   0.825   0.859   0.686  0.1943  0.0451 -0.0827
 1832SOL    HW1 6180   0.792   0.805   0.615 -0.9621 -0.4939  0.8222
 1832SOL    HW2 6181   0.917   0.835   0.695  1.0232  1.7162 -2.7994
 1833SOL     OW 6182   1.475   3.316   5.538 -0.3546  0.3243 -0.9030
 1833SOL    HW1 6183   1.392   3.292   5.497 -2.5216  1.9247  2.1215
 1833SOL    HW2 6184   1.493   3.246   5.600 -0.4145  0.7991 -0.3358
 1834SOL     OW 6185   4.327   1.510   5.662 -0.0941  0.5788  0.4760
 1834SOL    HW1 6186   4.396   1.446   5.645 -2.1237 -2.3650  2.4095
 1834SOL    HW2 6187   4.256   1.486   5.602 -0.5548  1.6800  0.5442
 1835SOL     OW 6188   5.118   5.890   3.053 -0.5775 -0.5070 -0.7599
 1835SOL    HW1 6189   5.160   5.957   3.109  0.6276 -1.6173 -0.2906
 1835SOL    HW2 6190   5.025   5.915   3.053 -0.2951  0.6789  0.0957
 1836SOL     OW 6191   5.556   0.557   2.654  0.4666  0.2867 -0.0324
 1836SOL    HW1 6192   5.609   0.493   2.607 -1.5067 -1.2964 -0.2251
 1836SOL    HW2 6193   5.568   0.536   2.746  0.8811  0.5571 -0.0184
 1837SOL     OW 6194   3.527   3.240   5.823  0.1233  0.3819  0.1539
 1837SOL    HW1 6195   3.544   3.172   5.758 -0.8203  0.0164  0.2776
 1837SOL    HW2 6196   3.451   3.288   5.789 -1.6440 -1.0386  1.8772
 1838SOL     OW 6197   2.564   0.372   3.526  0.0155 -0.3469 -0.0942
 1838SOL    HW1 6198   2.492   0.326   3.569 -0.9220 -1.0587 -2.2812
 1838SOL    HW2 6199   2.540   0.465   3.533 -1.5968 -0.6106 -1.5003
 1839SOL     OW 6200   1.650   2.315   5.753 -0.5010 -0.3266 -0.8352
 1839SOL    HW1 6201   1.562   2.284   5.733 -0.2875 -1.6144  0.1009
 1839SOL    HW2 6202   1.689   2.245   5.805  0.2743  1.2116  0.7708
 1840SOL     OW 6203   2.134   3.444   5.689  0.1172 -0.1057  0.5104
 1840SOL    HW1 6204   2.222   3.438   5.653 -0.1707 -0.0770 -0.2197
 1840SOL    HW2 6205   2.105   3.353   5.698  0.2563 -0.1176  0.8397
 1841SOL     OW 6206   5.910   2.886   1.403 -0.3485 -0.2769 -0.2951
 1841SOL    HW1 6207   5.956   2.806   1.429 -0.1217  0.0097  0.2130
 1841SOL    HW2 6208   5.820   2.858   1.388 -0.3097 -0.6031  0.0475
 1842SOL     OW 6209   5.288   2.720   0.266 -0.5363 -0.3903  0.4778
 1842SOL    HW1 6210   5.311   2.633   0.299 -0.0994 -0.4556  0.0182
 1842SOL    HW2 6211   5.213   2.747   0.319 -0.9203 -1.2078  0.3788
 1843SOL     OW 6212   2.333   0.460   5.195  0.1706  0.3092  0.0428
 1843SOL    HW1 6213   2.282   0.505   5.263 -0.7342  0.9937 -1.0485
 1843SOL    HW2 6214   2.290   0.375   5.185 -0.2114  0.5282 -0.2296
 1844SOL     OW 6215   3.419   2.122   0.073  0.4056  0.3200  0.0945
 1844SOL    HW1 6216   3.436   2.144  -0.019 -0.2097  1.9886  0.3486
 1844SOL    HW2 6217   3.499   2.147   0.119  1.1476 -1.5504 -0.0994
 1845SOL     OW 6218   1.240   1.917   0.300 -0.1983 -0.1759 -0.1012
 1845SOL    HW1 6219   1.263   1.835   0.344 -0.0617 -1.2868 -2.1007
 1845SOL    HW2 6220   1.289   1.984   0.347  0.5363 -1.3743  0.9257
 1846SOL     OW 6221   0.553   0.612   4.326 -0.1616 -0.3772 -0.4182
 1846SOL    HW1 6222   0.463   0.645   4.329  0.0184  0.0743  0.0775
 1846SOL    HW2 6223   0.561   0.556   4.404  0.5589  1.0931  0.6045
 1847SOL     OW 6224   2.894   1.118   0.240 -0.1825 -0.4105  0.8387
 1847SOL    HW1 6225   2.924   1.030   0.218 -0.8102 -0.5656  0.5839
 1847SOL    HW2 6226   2.804   1.123   0.206  0.2661  0.7473 -0.2532
 1848SOL     OW 6227   1.289   5.882   1.120 -0.4005 -0.1399  0.2652
 1848SOL    HW1 6228   1.295   5.890   1.215  0.1837 -3.2379  0.5916
 1848SOL    HW2 6229   1.380   5.875   1.091 -0.6053  0.0303 -0.4279
 1849SOL     OW 6230   2.490   4.433   0.047  0.1015  0.0633 -0.5497
 1849SOL    HW1 6231   2.581   4.405   0.060  0.4658  1.9379  1.5280
 1849SOL    HW2 6232   2.438   4.358   0.077  1.0484  0.5244  2.7014
 1850SOL     OW 6233   6.120   6.195   3.385  0.1106  0.0705 -0.2251
 1850SOL    HW1 6234   6.081   6.203   3.298 -1.5685 -0.0977  0.4732
 1850SOL    HW2 6235   6.116   6.102   3.405 -1.1602  0.2939  0.7130
 1851SOL     OW 6236   3.591   1.440   4.919  0.2413 -0.3728 -0.1469
 1851SOL    HW1 6237   3.583   1.491   4.839 -0.3373 -0.2243  0.0029
 1851SOL    HW2 6238   3.583   1.349   4.891  0.1377 -0.3253 -0.2669
 1852SOL     OW 6239   4.775   2.553   3.713 -0.4624  0.4493  0.5237
 1852SOL    HW1 6240   4.867   2.563   3.738 -0.2006  0.0277 -0.2343
 1852SOL    HW2 6241   4.741   2.486   3.771 -0.3220  0.6852  0.8798
 1853SOL     OW 6242   2.843   1.477   3.162 -0.3226  0.5701 -0.0262
 1853SOL    HW1 6243   2.812   1.431   3.241 -0.0956 -0.7722 -0.6825
 1853SOL    HW2 6244   2.773   1.539   3.142 -3.7553 -3.4770 -2.4367
 1854SOL     OW 6245   5.062   3.487   5.195  0.4994  0.0006 -0.5419
 1854SOL    HW1 6246   5.144   3.443   5.173 -0.3025 -0.0626 -4.0504
 1854SOL    HW2 6247   5.053   3.555   5.128 -2.4603 -0.2467 -0.5242
 1855SOL     OW 6248   3.323   3.629   6.431  0.0556  0.4862 -0.2396
 1855SOL    HW1 6249   3.361   3.577   6.359  1.3594  1.2794 -0.1430
 1855SOL    HW2 6250   3.283   3.563   6.488 -0.4231 -0.2171 -1.3252
 1856SOL     OW 6251   2.554   1.131   0.242  0.1284 -0.2577 -0.6631
 1856SOL    HW1 6252   2.609   1.052   0.233  0.4711 -0.8033  3.8343
 1856SOL    HW2 6253   2.470   1.106   0.203  1.5395 -1.1022 -3.4300
 1857SOL     OW 6254   0.090   0.397   0.482  0.6084 -0.1020  0.3399
 1857SOL    HW1 6255   0.170   0.351   0.454  0.1614  0.5808 -2.3276
 1857SOL    HW2 6256   0.022   0.330   0.479  0.6092 -0.0905 -0.0811
 1858SOL     OW 6257   1.948   3.564   3.994 -0.5556  0.4515  0.7053
 1858SOL    HW1 6258   1.862   3.587   3.958 -0.7101 -1.9288 -0.6052
 1858SOL    HW2 6259   1.986   3.648   4.018 -1.9143  1.8952 -1.7525
 1859SOL     OW 6260   5.945   3.155   5.922 -0.3166  0.7061 -0.1097
 1859SOL    HW1 6261   5.903   3.200   5.849  0.1536  0.1995 -0.6991
 1859SOL    HW2 6262   5.936   3.062   5.901 -1.2079  0.4939  1.0485
 1860SOL     OW 6263   5.936   2.565   0.083 -0.1364  0.4127 -0.0266
 1860SOL    HW1 6264   5.917   2.645   0.034 -1.1111  0.3822  0.2930
 1860SOL    HW2 6265   5.995   2.594   0.153 -1.2960  1.0550  0.7093
 1861SOL     OW 6266   1.930   4.021   5.623  0.1429 -0.2169  0.0335
 1861SOL    HW1 6267   1.956   4.086   5.688  0.4072 -0.9631  0.6898
 1861SOL    HW2 6268   1.966   3.938   5.655 -0.7096 -0.8038 -0.4635
 1862SOL     OW 6269   4.905   5.010   3.412 -0.0715  0.1902 -0.1949
 1862SOL    HW1 6270   4.882   5.085   3.358 -0.4290 -0.5233 -1.0604
 1862SOL    HW2 6271   4.846   4.940   3.383 -0.4816 -0.1371  1.3264
 1863SOL     OW 6272   2.926   1.980   4.223  0.5440  0.2624  0.0517
 1863SOL    HW1 6273   2.853   2.042   4.229  1.0922  0.7938  1.9234
 1863SOL    HW2 6274   2.934   1.961   4.130 -0.2326  2.3165 -0.4879
 1864SOL     OW 6275   4.776   0.879   5.825  0.7851  0.0277  0.1612
 1864SOL    HW1 6276   4.788   0.956   5.769 -0.8448  2.0295  2.3564
 1864SOL    HW2 6277   4.687   0.849   5.805  0.6161  0.0695  0.8150
 1865SOL     OW 6278   3.643   0.648   2.742  0.5083  0.0741 -0.3138
 1865SOL    HW1 6279   3.581   0.575   2.741  0.8954 -0.2597 -1.0743
 1865SOL    HW2 6280   3.631   0.691   2.658 -1.2794  2.2727  0.9598
 1866SOL     OW 6281   4.906   4.809   4.059 -0.2047 -0.0892  0.1579
 1866SOL    HW1 6282   4.922   4.842   4.147 -1.3517  0.0598  0.3355
 1866SOL    HW2 6283   4.824   4.851   4.032 -0.8293 -1.5077 -0.2637
 1867SOL     OW 6284   4.441   1.428   0.175 -0.3169 -0.2218 -0.0950
 1867SOL    HW1 6285   4.413   1.409   0.085 -0.3814 -0.2811 -0.0622
 1867SOL    HW2 6286   4.495   1.506   0.167  0.8247 -1.0232 -0.3754
 1868SOL     OW 6287   1.401   0.280   1.655 -0.3329 -0.2057 -0.2288
 1868SOL    HW1 6288   1.467   0.234   1.603 -0.6166 -2.6232  1.4159
 1868SOL    HW2 6289   1.417   0.252   1.745 -0.1557  3.4908  1.0404
 1869SOL     OW 6290   2.846   5.373   1.748 -0.2849  0.0177 -0.7535
 1869SOL    HW1 6291   2.933   5.332   1.752  0.6357  1.9228 -0.0005
 1869SOL    HW2 6292   2.818   5.378   1.839 -0.0026  1.7462 -0.7328
 1870SOL     OW 6293   0.976   6.019   6.221 -0.3012  0.1127  0.2274
 1870SOL    HW1 6294   1.023   5.941   6.252 -0.1262  0.0005 -0.3175
 1870SOL    HW2 6295   0.890   6.012   6.262 -0.6784 -0.9600 -0.6857
 1871SOL     OW 6296   1.752   2.207   1.265 -0.0421 -0.2807  0.5082
 1871SOL    HW1 6297   1.748   2.164   1.179 -0.6359 -1.6358  1.1879
 1871SOL    HW2 6298   1.818   2.276   1.254 -1.3418  0.7574 -1.5421
 1872SOL     OW 6299   1.039   5.037   4.923  0.1098  0.0442 -0.2138
 1872SOL    HW1 6300   1.083   4.953   4.933 -0.3600 -0.2896 -0.8466
 1872SOL    HW2 6301   0.976   5.041   4.994  1.1179  0.5157  0.6902
 1873SOL     OW 6302   1.627   3.166   2.080  0.3986 -0.1616  0.0589
 1873SOL    HW1 6303   1.709   3.213   2.065  0.9258 -0.4688  1.7807
 1873SOL    HW2 6304   1.647   3.075   2.058  0.6087 -0.2842  0.7466
 1874SOL     OW 6305   2.343   6.222   2.600 -0.5668  0.2473  0.2687
 1874SOL    HW1 6306   2.379   6.135   2.582 -1.7968 -0.2903  0.2790
 1874SOL    HW2 6307   2.370   6.275   2.526 -0.0234 -0.2193  0.1300
 1875SOL     OW 6308   3.671   1.734   5.918 -0.3362 -0.5153 -0.2129
 1875SOL    HW1 6309   3.578   1.720   5.899 -0.6746 -1.0283  1.6512
 1875SOL    HW2 6310   3.700   1.654   5.961  0.7167  0.0221  0.1249
 1876SOL     OW 6311   1.872   1.565   2.442 -0.1737 -0.0061 -0.3409
 1876SOL    HW1 6312   1.860   1.614   2.524 -0.5680 -2.3792  1.1337
 1876SOL    HW2 6313   1.846   1.626   2.374  1.5998  2.5876  1.1313
 1877SOL     OW 6314   0.024   2.685   4.814 -0.1230  0.1556  0.1006
 1877SOL    HW1 6315  -0.042   2.695   4.883 -0.6669 -0.4622 -0.3181
 1877SOL    HW2 6316   0.054   2.774   4.797 -0.5328  0.3973  0.6022
 1878SOL     OW 6317   4.059   1.268   6.140 -0.1129 -0.4385  0.3058
 1878SOL    HW1 6318   4.034   1.199   6.201 -2.1367 -0.5830 -0.6197
 1878SOL    HW2 6319   4.054   1.349   6.191  0.9429 -0.8072  1.0319
 1879SOL     OW 6320   4.234   4.634   1.088  0.5681 -0.4669 -0.0688
 1879SOL    HW1 6321   4.216   4.648   0.995  0.1027  2.8301  0.4082
 1879SOL    HW2 6322   4.149   4.611   1.126  0.5179 -0.6471 -0.2921
 1880SOL     OW 6323   4.263   3.719   0.455 -0.0807 -0.4433 -0.4795
 1880SOL    HW1 6324   4.340   3.698   0.401  0.2571 -0.8002  0.1363
 1880SOL    HW2 6325   4.204   3.645   0.441 -0.9547  0.4852 -2.0771
 1881SOL     OW 6326   1.074   0.305   4.475 -0.1151  0.2624  0.5447
 1881SOL    HW1 6327   0.981   0.286   4.463 -0.4963  0.4461  2.7899
 1881SOL    HW2 6328   1.109   0.311   4.386 -2.3827  0.8968 -0.3741
 1882SOL     OW 6329   2.038   0.722   6.458 -0.1758 -0.7153  0.4860
 1882SOL    HW1 6330   2.089   0.790   6.414 -0.4382  0.2537  1.6015
 1882SOL    HW2 6331   1.969   0.699   6.396  0.3763 -0.5174 -0.2098
 1883SOL     OW 6332   5.575   3.608   6.387 -0.1322 -0.0310 -0.3121
 1883SOL    HW1 6333   5.579   3.624   6.481 -1.5845  0.4986 -0.3272
 1883SOL    HW2 6334   5.631   3.676   6.349  1.4351 -0.9778  0.2105
 1884SOL     OW 6335   6.051   1.809   1.411 -0.2704  0.1838 -0.1951
 1884SOL    HW1 6336   6.135   1.780   1.376 -1.3180 -0.1895 -2.5983
 1884SOL    HW2 6337   6.011   1.729   1.445 -0.4738 -0.0330 -0.9212
 1885SOL     OW 6338   6.350   3.819   0.920  0.2600 -0.1374 -0.2316
 1885SOL    HW1 6339   6.411   3.880   0.878  0.5008 -0.0557  0.2304
 1885SOL    HW2 6340   6.284   3.802   0.853 -0.2160  1.2097 -0.1268
 1886SOL     OW 6341   4.684   4.483   5.196 -0.2482  0.2460  0.5586
 1886SOL    HW1 6342   4.617   4.501   5.262 -0.9489 -0.0873 -0.0489
 1886SOL    HW2 6343   4.762   4.459   5.246 -1.0140 -0.8576  1.2612
 1887SOL     OW 6344   6.460   2.938   0.741 -0.2335 -0.2059 -0.0303
 1887SOL    HW1 6345   6.461   2.928   0.836 -0.5629 -1.2403 -0.1186
 1887SOL    HW2 6346   6.395   3.005   0.724 -0.8475 -0.6779  0.4298
 1888SOL     OW 6347   4.738   2.441   6.141 -0.0180 -0.1170  0.5794
 1888SOL    HW1 6348   4.748   2.443   6.046 -4.1051 -2.1587 -0.1204
 1888SOL    HW2 6349   4.773   2.525   6.171  2.5525  0.0703 -2.5029
 1889SOL     OW 6350   6.487   3.590   4.806 -0.3728 -0.2965  0.2081
 1889SOL    HW1 6351   6.434   3.591   4.727  0.0778  1.8614 -0.1181
 1889SOL    HW2 6352   6.434   3.634   4.873 -0.3174 -1.1309  0.8211
 1890SOL     OW 6353   2.999   2.018   0.013  0.3727  0.1482  0.2525
 1890SOL    HW1 6354   3.016   2.102   0.055  2.3083  1.3510 -2.6386
 1890SOL    HW2 6355   2.908   2.024  -0.018 -0.6977 -0.3328  3.0208
 1891SOL     OW 6356   0.315   0.084   3.784  0.3510  0.2917  0.0313
 1891SOL    HW1 6357   0.246   0.089   3.851 -0.1952 -0.8089 -0.4223
 1891SOL    HW2 6358   0.375   0.155   3.807 -1.2134  1.6653  0.1187
 1892SOL     OW 6359   3.052   3.837   2.250  0.3175  0.4432 -0.3096
 1892SOL    HW1 6360   3.134   3.812   2.293  0.3601  0.2476 -0.5056
 1892SOL    HW2 6361   3.005   3.755   2.237  2.1047 -0.2068 -4.4644
 1893SOL     OW 6362   0.653   3.289   1.822  0.5391  0.0050  0.4922
 1893SOL    HW1 6363   0.584   3.308   1.759  1.4682  0.1023 -0.5420
 1893SOL    HW2 6364   0.658   3.193   1.823  0.9632  0.0092 -0.1183
 1894SOL     OW 6365   4.915   5.349   3.478 -0.4031  0.0537  0.1456
 1894SOL    HW1 6366   4.979   5.416   3.454 -0.3852  0.2650  0.7651
 1894SOL    HW2 6367   4.938   5.325   3.568 -1.1155  0.0440  0.3300
 1895SOL     OW 6368   5.007   1.273   3.596  0.0109  0.7290  0.7328
 1895SOL    HW1 6369   5.100   1.262   3.613 -0.1315  0.3839  1.3109
 1895SOL    HW2 6370   5.003   1.334   3.522  0.6916  0.7416  0.7039
 1896SOL     OW 6371   2.653   0.692   4.448 -0.2819  1.0911  0.1748
 1896SOL    HW1 6372   2.668   0.661   4.359 -1.9132  0.1053  0.2157
 1896SOL    HW2 6373   2.677   0.785   4.445  0.8395  0.7968 -0.9611
 1897SOL     OW 6374   6.406   0.784   4.859 -0.1095  0.3303  0.1259
 1897SOL    HW1 6375   6.480   0.732   4.889 -1.1195 -1.5273 -0.3946
 1897SOL    HW2 6376   6.360   0.810   4.939  0.3453  0.3297  0.3877
 1898SOL     OW 6377   2.636   0.365   3.230  0.0266 -0.5616  0.0999
 1898SOL    HW1 6378   2.671   0.386   3.317  1.6227  0.3323 -0.7365
 1898SOL    HW2 6379   2.544   0.392   3.235  0.6363  1.5771  0.8389
 1899SOL     OW 6380   2.076   1.779   4.063 -0.9984 -0.3135  0.3093
 1899SOL    HW1 6381   2.019   1.850   4.092  0.8752  1.4126  0.0432
 1899SOL    HW2 6382   2.150   1.780   4.125  0.5894  0.1070 -1.4795
 1900SOL     OW 6383   0.087   3.233   2.413  0.1693  0.4250  0.4053
 1900SOL    HW1 6384   0.009   3.181   2.393  1.2364 -1.0151 -0.1960
 1900SOL    HW2 6385   0.151   3.205   2.348  1.0315  1.9869  0.5438
 1901SOL     OW 6386   2.441   1.554   4.471 -0.5236  0.1803  0.3103
 1901SOL    HW1 6387   2.496   1.583   4.543  0.7835 -0.1316 -0.5273
 1901SOL    HW2 6388   2.358   1.531   4.512  0.1357  0.1709  1.6916
 1902SOL     OW 6389   5.800   2.079   1.682  0.3088 -0.0053  0.1131
 1902SOL    HW1 6390   5.861   2.075   1.608  0.2538 -0.8253  0.1036
 1902SOL    HW2 6391   5.723   2.124   1.648  0.1514 -0.6852 -0.4208
 1903SOL     OW 6392   4.740   3.016   4.671  0.0314 -0.2551  0.5907
 1903SOL    HW1 6393   4.767   3.069   4.596 -1.0841 -1.5939 -0.8292
 1903SOL    HW2 6394   4.648   2.997   4.655  0.1301 -1.7420  1.5863
 1904SOL     OW 6395   5.069   6.235   1.728 -0.2739  0.3014  0.1726
 1904SOL    HW1 6396   5.124   6.157   1.730  0.3860  0.7509 -0.0898
 1904SOL    HW2 6397   5.017   6.230   1.808 -1.4580 -1.2627 -0.6294
 1905SOL     OW 6398   5.285   0.475   4.096 -0.4979  0.2243 -0.1542
 1905SOL    HW1 6399   5.245   0.397   4.059 -0.5267  0.8131 -1.4163
 1905SOL    HW2 6400   5.333   0.515   4.024  1.6009  0.0707  1.0768
 1906SOL     OW 6401   0.275   0.339   2.909  0.1432  0.1730 -0.7339
 1906SOL    HW1 6402   0.366   0.335   2.938  0.7871  3.3552 -1.9137
 1906SOL    HW2 6403   0.279   0.332   2.814 -0.4648  2.8682 -1.0451
 1907SOL     OW 6404   4.715   5.006   0.049 -0.2874 -0.2910 -0.1040
 1907SOL    HW1 6405   4.707   5.038  -0.041  0.1271  0.2530  0.0472
 1907SOL    HW2 6406   4.792   5.051   0.084 -1.5214  0.9734  1.1251
 1908SOL     OW 6407   1.978   3.468   3.649  0.0391 -0.2032  0.0005
 1908SOL    HW1 6408   1.892   3.493   3.683  0.8251 -0.0379  2.0205
 1908SOL    HW2 6409   1.993   3.380   3.685 -0.3086 -1.2971 -2.3842
 1909SOL     OW 6410   6.467   1.936   2.953 -0.1390  0.5764 -0.5092
 1909SOL    HW1 6411   6.489   1.956   3.044  1.9361 -0.4813 -0.7223
 1909SOL    HW2 6412   6.371   1.929   2.953 -0.1195 -2.2849  2.2882
 1910SOL     OW 6413   1.329   5.511   1.299  0.3379 -0.6068  0.3212
 1910SOL    HW1 6414   1.258   5.570   1.324 -0.2004 -1.0934 -0.0341
 1910SOL    HW2 6415   1.287   5.444   1.245  1.1487 -0.6477 -0.2778
 1911SOL     OW 6416   4.834   5.755   3.571 -0.8533  0.1672  0.2803
 1911SOL    HW1 6417   4.883   5.756   3.652 -1.4074  1.6195  0.6292
 1911SOL    HW2 6418   4.844   5.666   3.538  1.4800  0.2445  0.6296
 1912SOL     OW 6419   5.519   4.226   3.944  0.2024  0.1139  0.4565
 1912SOL    HW1 6420   5.489   4.135   3.949  0.1870  0.1410  0.8812
 1912SOL    HW2 6421   5.445   4.273   3.905 -0.9702  0.4581  2.9436
 1913SOL     OW 6422   0.501   5.084   1.357  0.3482  0.2449 -0.7718
 1913SOL    HW1 6423   0.453   5.010   1.318 -2.2105  1.0766  0.5591
 1913SOL    HW2 6424   0.495   5.154   1.292 -0.7266  0.4877 -0.4329
 1914SOL     OW 6425   3.896   2.414   5.107  0.4481  0.6735 -0.2895
 1914SOL    HW1 6426   3.960   2.466   5.155 -0.4025  0.6206  0.9568
 1914SOL    HW2 6427   3.816   2.467   5.110 -0.1472 -0.2304  0.0871
 1915SOL     OW 6428   4.834   1.001   5.071  0.4413 -0.2386  0.9593
 1915SOL    HW1 6429   4.792   0.987   4.986  1.8573 -0.1689  0.2132
 1915SOL    HW2 6430   4.924   0.970   5.058  0.3253 -1.5580  2.8494
 1916SOL     OW 6431   0.180   1.668   1.348  0.2289 -0.3620  0.3478
 1916SOL    HW1 6432   0.159   1.639   1.260 -0.0091 -1.1613  0.6616
 1916SOL    HW2 6433   0.202   1.761   1.338 -2.7140  0.3602 -0.1077
 1917SOL     OW 6434   2.842   2.488   0.519  0.8310 -0.1993  0.0467
 1917SOL    HW1 6435   2.921   2.528   0.554 -0.3572  0.1916  2.5002
 1917SOL    HW2 6436   2.814   2.426   0.586 -1.2024  0.0127 -0.5156
 1918SOL     OW 6437   4.850   3.123   5.026 -0.4135  0.4250 -1.0342
 1918SOL    HW1 6438   4.904   3.148   4.951  1.2092 -0.0330 -0.0657
 1918SOL    HW2 6439   4.861   3.194   5.089 -3.2145  1.7294 -1.8292
 1919SOL     OW 6440   4.953   3.141   2.098  1.2620 -0.0964 -0.4455
 1919SOL    HW1 6441   5.025   3.084   2.126  1.7225  1.6147  2.2480
 1919SOL    HW2 6442   4.879   3.114   2.154  0.9952  0.7836 -0.3560
 1920SOL     OW 6443   4.144   5.679   6.283  0.1271  0.6951 -0.1489
 1920SOL    HW1 6444   4.179   5.626   6.355 -0.5666  1.2166  0.5898
 1920SOL    HW2 6445   4.218   5.691   6.223  0.4981 -0.4545  0.0486
 1921SOL     OW 6446   4.604   0.618   4.290 -0.1762 -0.3098  0.3271
 1921SOL    HW1 6447   4.676   0.667   4.330  2.3578 -3.5160  0.1117
 1921SOL    HW2 6448   4.569   0.565   4.362 -0.4061 -0.7976 -0.1337
 1922SOL     OW 6449   6.366   5.623   3.992  0.3078  0.6978  0.2801
 1922SOL    HW1 6450   6.325   5.704   4.023  0.0689  0.3413  0.9292
 1922SOL    HW2 6451   6.296   5.558   3.996  0.6496  0.3307  0.3266
 1923SOL     OW 6452   4.939   6.258   1.136 -0.1614  0.3256  0.0195
 1923SOL    HW1 6453   4.879   6.289   1.204 -0.9595 -1.0936 -0.0018
 1923SOL    HW2 6454   4.898   6.284   1.054  0.3680  1.2654  0.0323
 1924SOL     OW 6455   1.703   2.793   2.508 -0.0851  0.2621 -0.6912
 1924SOL    HW1 6456   1.624   2.785   2.562 -0.0915 -0.8417 -0.8404
 1924SOL    HW2 6457   1.688   2.734   2.434  0.4204  0.8708 -1.2924
 1925SOL     OW 6458   1.083   0.103   0.304 -0.2788 -0.1116 -0.1531
 1925SOL    HW1 6459   1.170   0.067   0.320  0.1098  1.1806  0.8297
 1925SOL    HW2 6460   1.076   0.109   0.209 -0.0626 -1.9871 -0.3205
 1926SOL     OW 6461   1.332   1.776   1.317  0.1777 -0.3172  0.3478
 1926SOL    HW1 6462   1.381   1.716   1.373 -1.9015 -1.9771  0.5194
 1926SOL    HW2 6463   1.399   1.817   1.262  1.7826 -2.1828  0.7784
 1927SOL     OW 6464   0.126   0.340   5.131  0.0545 -0.5028 -0.4168
 1927SOL    HW1 6465   0.196   0.339   5.195  0.5140  0.0305 -0.9045
 1927SOL    HW2 6466   0.079   0.422   5.147  0.5266 -0.0833 -1.1321
 1928SOL     OW 6467   2.972   5.780   0.741  0.4168  0.3172  0.3436
 1928SOL    HW1 6468   2.907   5.846   0.721  0.2859  0.5205  1.3892
 1928SOL    HW2 6469   2.928   5.696   0.726  1.0228  0.3940 -2.4249
 1929SOL     OW 6470   1.837   0.552   4.625 -0.2518 -0.2945  0.6192
 1929SOL    HW1 6471   1.905   0.582   4.564  0.4486 -1.4010  0.8322
 1929SOL    HW2 6472   1.780   0.496   4.572  0.1775 -1.0045  0.8987
 1930SOL     OW 6473   6.328   2.782   6.134  0.4065 -0.4366  0.0267
 1930SOL    HW1 6474   6.364   2.693   6.136  0.6313 -0.3459  1.4839
 1930SOL    HW2 6475   6.404   2.838   6.120  0.3477 -0.4424 -0.3137
 1931SOL     OW 6476   2.417   1.761   3.662  0.2777  0.5309 -1.0525
 1931SOL    HW1 6477   2.430   1.819   3.737  1.5276  1.1089 -1.6809
 1931SOL    HW2 6478   2.332   1.786   3.626 -2.6629 -2.7280  2.6807
 1932SOL     OW 6479   1.965   6.025   2.376  0.0988  0.0804  0.4363
 1932SOL    HW1 6480   1.931   6.061   2.458 -2.1804 -0.1725 -0.3262
 1932SOL    HW2 6481   1.946   6.093   2.311  0.5222 -0.3335 -0.1318
 1933SOL     OW 6482   4.759   2.657   4.556 -0.4963  0.1748  0.4625
 1933SOL    HW1 6483   4.697   2.609   4.502 -0.2977 -0.3324  0.6802
 1933SOL    HW2 6484   4.781   2.734   4.504  0.8811 -1.0726 -0.9061
 1934SOL     OW 6485   5.975   2.812   5.477 -0.0389 -0.3951 -0.1358
 1934SOL    HW1 6486   5.941   2.747   5.416  0.2592  0.5562 -1.3675
 1934SOL    HW2 6487   6.070   2.804   5.471  0.0560 -2.1958  2.3611
 1935SOL     OW 6488   0.009   5.153   2.425  0.1838 -0.0064  0.0817
 1935SOL    HW1 6489   0.006   5.074   2.479 -0.2569  1.0695  1.7240
 1935SOL    HW2 6490   0.073   5.209   2.469  0.3241  0.6461 -0.9239
 1936SOL     OW 6491   1.356   1.390   1.492 -0.3246  0.3361 -0.0583
 1936SOL    HW1 6492   1.349   1.324   1.561 -0.3058 -1.6202 -1.8375
 1936SOL    HW2 6493   1.379   1.471   1.539 -0.2997 -0.8923  2.2010
 1937SOL     OW 6494   5.032   0.774   5.682 -0.3246 -0.0211 -0.2732
 1937SOL    HW1 6495   4.965   0.823   5.729  0.3809  0.7428 -0.0547
 1937SOL    HW2 6496   5.113   0.823   5.696  0.2285 -0.7631 -0.7897
 1938SOL     OW 6497   2.398   4.311   5.669  0.3500  0.1638  0.7880
 1938SOL    HW1 6498   2.345   4.237   5.698  0.1602 -0.2048 -0.4481
 1938SOL    HW2 6499   2.482   4.300   5.715  1.0497 -1.9626 -0.8312
 1939SOL     OW 6500   2.932   3.834   1.774  0.2667  0.0604 -0.3666
 1939SOL    HW1 6501   2.915   3.910   1.830 -0.2220 -0.6985  0.5542
 1939SOL    HW2 6502   3.027   3.837   1.759  0.6837 -0.4701  1.7154
 1940SOL     OW 6503   3.169   2.090   3.229 -0.2867 -0.1951  0.3921
 1940SOL    HW1 6504   3.259   2.116   3.209 -0.1833  1.3263  2.4878
 1940SOL    HW2 6505   3.163   2.094   3.324 -2.7884  0.5294  0.2846
 1941SOL     OW 6506   1.460   4.287   1.450 -0.2050 -0.4068 -0.0306
 1941SOL    HW1 6507   1.453   4.300   1.545  0.6733  0.5716 -0.0851
 1941SOL    HW2 6508   1.548   4.253   1.436  0.2712  1.0159 -0.6343
 1942SOL     OW 6509   4.066   3.296   5.818 -0.1836 -0.0595  0.5875
 1942SOL    HW1 6510   3.987   3.347   5.800 -0.2416 -0.4119 -0.1938
 1942SOL    HW2 6511   4.036   3.226   5.877 -0.2467  0.3776  1.0833
 1943SOL     OW 6512   5.982   0.986   0.618 -0.5354  0.0048 -0.0807
 1943SOL    HW1 6513   5.909   0.966   0.559 -1.1347  0.1323  0.6108
 1943SOL    HW2 6514   6.029   0.903   0.626 -0.1386  0.1018 -1.1363
 1944SOL     OW 6515   5.011   2.598   2.044 -0.4938 -0.9791 -0.1971
 1944SOL    HW1 6516   4.937   2.602   1.984 -0.9873 -1.2234  0.3859
 1944SOL    HW2 6517   4.973   2.576   2.128  0.0426  0.4442  0.4668
 1945SOL     OW 6518   2.423   6.271   2.850 -1.0097  0.2100  0.7034
 1945SOL    HW1 6519   2.405   6.273   2.756  2.8479  0.0316 -0.2146
 1945SOL    HW2 6520   2.374   6.345   2.886 -1.0639  1.4969 -1.8041
 1946SOL     OW 6521   1.539   0.383   3.160 -0.2325 -0.9833 -0.6429
 1946SOL    HW1 6522   1.483   0.314   3.196  0.3789 -1.7897 -1.2247
 1946SOL    HW2 6523   1.556   0.441   3.235 -0.7564 -1.4542 -0.1522
 1947SOL     OW 6524   3.991   0.667   2.465  0.6822 -0.9471 -0.5036
 1947SOL    HW1 6525   4.005   0.760   2.479  2.8873 -1.0951 -1.4357
 1947SOL    HW2 6526   4.011   0.653   2.372 -0.1440 -2.2742 -0.5170
 1948SOL     OW 6527   2.927   6.134   2.711 -0.5885  0.1043 -0.4950
 1948SOL    HW1 6528   2.847   6.154   2.663 -0.9250  1.9227  0.7478
 1948SOL    HW2 6529   2.997   6.144   2.646 -1.3263 -1.8641 -1.6934
 1949SOL     OW 6530   2.540   2.875   6.480  0.2101 -0.6491  0.0743
 1949SOL    HW1 6531   2.500   2.788   6.489 -0.8563 -0.0920  1.0230
 1949SOL    HW2 6532   2.614   2.861   6.421 -0.0884 -2.1501  0.0016
 1950SOL     OW 6533   6.081   1.157   6.123  0.1785  0.1674  0.1677
 1950SOL    HW1 6534   6.120   1.223   6.066 -0.5955  0.4006 -0.1151
 1950SOL    HW2 6535   6.047   1.091   6.062  0.1174 -0.0136  0.3981
 1951SOL     OW 6536   3.948   5.633   5.522  0.1506  0.0931 -0.2229
 1951SOL    HW1 6537   3.912   5.578   5.452 -2.5348  0.8063  0.4982
 1951SOL    HW2 6538   3.894   5.614   5.598  0.0251  2.6802  0.4196
 1952SOL     OW 6539   0.103   2.530   2.819 -0.3356 -0.1950  0.1300
 1952SOL    HW1 6540   0.124   2.439   2.840 -1.7628 -0.5306  0.2181
 1952SOL    HW2 6541   0.186   2.576   2.825  0.2675 -1.3405  0.9319
 1953SOL     OW 6542   4.182   5.204   1.505 -0.1316  0.1711  0.2874
 1953SOL    HW1 6543   4.241   5.268   1.544 -3.3804  1.3760  4.0003
 1953SOL    HW2 6544   4.146   5.247   1.428  1.0204  0.9645  0.1784
 1954SOL     OW 6545   3.980   4.655   0.236  0.7202  0.2759 -0.1478
 1954SOL    HW1 6546   4.048   4.687   0.176 -0.3940  0.8513 -1.1640
 1954SOL    HW2 6547   3.970   4.725   0.300 -2.0528  2.4403 -2.6426
 1955SOL     OW 6548   4.846   1.357   3.824 -0.1228 -0.1383 -0.0622
 1955SOL    HW1 6549   4.774   1.390   3.771 -1.2100 -1.1012  0.7484
 1955SOL    HW2 6550   4.915   1.336   3.761 -0.7093  0.3955 -0.9060
 1956SOL     OW 6551   4.571   3.468   4.832  0.4676  0.0048 -0.3566
 1956SOL    HW1 6552   4.549   3.490   4.742  1.7228 -1.9327 -1.2272
 1956SOL    HW2 6553   4.666   3.481   4.838  0.1751  1.8983  1.2916
 1957SOL     OW 6554   6.309   5.917   2.713 -0.3338 -0.4171 -0.0298
 1957SOL    HW1 6555   6.218   5.888   2.710  0.1584 -1.9510 -1.4408
 1957SOL    HW2 6556   6.310   5.997   2.661 -0.7429 -0.8739 -0.7628
 1958SOL     OW 6557   2.791   0.910   0.068  0.4268 -0.4641 -0.3877
 1958SOL    HW1 6558   2.735   0.876   0.138  1.3074 -0.6109  0.2642
 1958SOL    HW2 6559   2.765   0.861  -0.010 -0.8183 -0.0495 -0.2562
 1959SOL     OW 6560   0.961   3.138   3.314  1.0229 -0.2979  0.1235
 1959SOL    HW1 6561   1.020   3.203   3.351  2.3518 -1.6589  0.4795
 1959SOL    HW2 6562   0.998   3.054   3.340 -2.0691 -1.2620  2.0434
 1960SOL     OW 6563   5.383   4.069   2.112  0.0747 -0.5019 -0.0568
 1960SOL    HW1 6564   5.348   3.986   2.079  0.0209 -0.3127 -0.4964
 1960SOL    HW2 6565   5.448   4.044   2.178  0.4934 -0.9109 -0.6130
 1961SOL     OW 6566   1.815   0.577   1.473  0.0802  0.8885 -0.2904
 1961SOL    HW1 6567   1.779   0.582   1.561  0.8065 -0.2200  0.0794
 1961SOL    HW2 6568   1.747   0.615   1.417 -1.8938 -1.5602  0.3107
 1962SOL     OW 6569   5.561   1.327   2.356  0.0852 -0.3107  0.1503
 1962SOL    HW1 6570   5.585   1.352   2.267  0.8289  1.6535  0.8520
 1962SOL    HW2 6571   5.515   1.244   2.346 -0.8630  0.4140 -2.1909
 1963SOL     OW 6572   1.372   3.890   3.810  0.2382  0.2838  0.7438
 1963SOL    HW1 6573   1.308   3.956   3.787  1.6366  1.4519  0.0700
 1963SOL    HW2 6574   1.419   3.872   3.729  2.2137  1.1034  1.6446
 1964SOL     OW 6575   6.257   3.918   2.844 -0.0571  0.6188 -0.3169
 1964SOL    HW1 6576   6.226   3.844   2.791  1.6074  0.6823 -1.4460
 1964SOL    HW2 6577   6.351   3.905   2.851  0.2419  2.5012 -0.3702
 1965SOL     OW 6578   5.509   1.962   4.454  0.1931  0.0494 -0.1212
 1965SOL    HW1 6579   5.552   2.041   4.485 -1.6779 -0.1373  3.4498
 1965SOL    HW2 6580   5.437   1.994   4.399  0.4583  0.7124 -0.0930
 1966SOL     OW 6581   3.185   2.630   0.307 -0.0316  0.2793  0.3104
 1966SOL    HW1 6582   3.096   2.663   0.295  0.2706  0.9407 -0.1778
 1966SOL    HW2 6583   3.237   2.708   0.322  0.4880 -0.0938  0.4569
 1967SOL     OW 6584   0.187   4.381   4.258 -0.4937  0.0583  0.2208
 1967SOL    HW1 6585   0.275   4.379   4.295 -0.6867  1.7553  0.8549
 1967SOL    HW2 6586   0.192   4.445   4.187 -0.9497 -0.6906 -0.5106
 1968SOL     OW 6587   4.174   4.749   2.412 -0.1828  0.1601  0.4718
 1968SOL    HW1 6588   4.206   4.660   2.425 -0.3673 -0.3610 -2.0412
 1968SOL    HW2 6589   4.253   4.800   2.392 -0.3133  0.0023 -0.5105
 1969SOL     OW 6590   1.604   1.640   3.447  0.4885 -0.5193  0.0262
 1969SOL    HW1 6591   1.608   1.660   3.541  0.7988 -0.9523  0.1129
 1969SOL    HW2 6592   1.612   1.544   3.444 -0.6039 -0.6192 -0.3809
 1970SOL     OW 6593   5.458   0.648   4.320 -0.3757  0.6211 -0.1168
 1970SOL    HW1 6594   5.405   0.577   4.285  1.0617 -0.4548 -0.2235
 1970SOL    HW2 6595   5.487   0.696   4.243  0.9722 -0.4206 -0.3014
 1971SOL     OW 6596   3.298   1.647   0.214  0.0895  0.3944  0.1892
 1971SOL    HW1 6597   3.207   1.651   0.244  0.6062  1.6963  1.7059
 1971SOL    HW2 6598   3.328   1.738   0.216  1.5284 -0.0581  0.0298
 1972SOL     OW 6599   2.347   4.745   1.914  0.1074 -0.2092 -0.1246
 1972SOL    HW1 6600   2.304   4.828   1.895  2.3365  0.8281 -0.9846
 1972SOL    HW2 6601   2.311   4.684   1.849 -1.3083  0.1116  0.3107
 1973SOL     OW 6602   2.763   5.308   0.917 -0.4370  0.3214 -0.2754
 1973SOL    HW1 6603   2.819   5.318   0.840  0.6469 -1.8835  0.1252
 1973SOL    HW2 6604   2.819   5.333   0.991 -0.8034  0.5175 -0.0609
 1974SOL     OW 6605   4.183   1.737   0.397 -0.6660  0.0224 -0.2625
 1974SOL    HW1 6606   4.247   1.750   0.326 -2.1262  0.6642 -1.5032
 1974SOL    HW2 6607   4.117   1.680   0.360 -0.6705 -0.9435  1.1405
 1975SOL     OW 6608   3.476   4.190   1.478 -0.0301  0.0223 -0.1899
 1975SOL    HW1 6609   3.460   4.255   1.546 -1.5757 -0.6942  0.1867
 1975SOL    HW2 6610   3.410   4.122   1.494  0.2860 -0.6966 -1.7364
 1976SOL     OW 6611   2.265   3.921   5.569 -0.1483  0.3600 -0.4010
 1976SOL    HW1 6612   2.252   3.868   5.491  2.0491 -1.5898  0.4271
 1976SOL    HW2 6613   2.351   3.960   5.558  0.1548  0.1383  0.9462
 1977SOL     OW 6614   3.748   3.580   1.012 -0.0575  0.5257  0.0978
 1977SOL    HW1 6615   3.835   3.570   1.052  0.3453 -4.2280 -1.3355
 1977SOL    HW2 6616   3.765   3.582   0.918 -1.4556  1.5725 -0.1659
 1978SOL     OW 6617   2.455   6.086   5.121  0.2076 -0.6149  0.3307
 1978SOL    HW1 6618   2.441   6.019   5.054  1.4164  1.0658 -1.7163
 1978SOL    HW2 6619   2.505   6.154   5.076  2.0090  0.1329  3.2454
 1979SOL     OW 6620   5.478   3.236   5.546  0.7034  0.0748  0.2205
 1979SOL    HW1 6621   5.499   3.212   5.456 -0.2680  1.0402 -0.2816
 1979SOL    HW2 6622   5.470   3.331   5.545 -2.4338 -0.0621  0.5772
 1980SOL     OW 6623   4.245   0.681   2.755  0.1236  0.6297  0.4864
 1980SOL    HW1 6624   4.245   0.589   2.727  0.1499  0.9834 -0.7302
 1980SOL    HW2 6625   4.338   0.706   2.753  0.1904  0.4983  1.4937
 1981SOL     OW 6626   0.419   6.128   0.016 -0.0674  0.1002  0.5799
 1981SOL    HW1 6627   0.476   6.203   0.034 -0.5736  0.4094  0.9016
 1981SOL    HW2 6628   0.341   6.143   0.069 -1.1374  0.4810 -1.0373
 1982SOL     OW 6629   0.866   3.297   6.380  0.3484 -0.0519  0.1658
 1982SOL    HW1 6630   0.848   3.382   6.420 -2.6088 -0.1812 -0.6291
 1982SOL    HW2 6631   0.839   3.233   6.445  1.0874 -0.3694  0.1675
 1983SOL     OW 6632   0.136   4.089   0.535 -0.3262  0.6048 -0.8850
 1983SOL    HW1 6633   0.062   4.148   0.544  0.2802  1.2383  0.0469
 1983SOL    HW2 6634   0.113   4.034   0.460 -1.3855  1.2938 -1.0901
 1984SOL     OW 6635   4.317   3.351   0.173  0.1801 -0.3545 -0.2033
 1984SOL    HW1 6636   4.288   3.286   0.237 -1.3612  1.0113  0.5779
 1984SOL    HW2 6637   4.270   3.329   0.093 -1.7064  0.7302  0.5366
 1985SOL     OW 6638   6.320   4.923   5.125  0.1480  0.0098 -0.3275
 1985SOL    HW1 6639   6.312   4.891   5.214  0.4623 -0.9744 -0.6416
 1985SOL    HW2 6640   6.241   4.894   5.081  0.6959 -0.8582 -0.7637
 1986SOL     OW 6641   0.877   3.986   2.957 -0.0240  0.4448 -0.0461
 1986SOL    HW1 6642   0.957   4.039   2.957  0.5075 -0.3434 -0.5775
 1986SOL    HW2 6643   0.892   3.919   3.024  0.5524 -0.8376 -1.4011
 1987SOL     OW 6644   4.341   4.440   5.983  0.0391 -0.7774  0.0519
 1987SOL    HW1 6645   4.429   4.407   5.967 -0.1526 -1.9640  1.2425
 1987SOL    HW2 6646   4.323   4.418   6.075 -1.7818 -1.2873 -0.3754
 1988SOL     OW 6647   2.867   3.414   4.258 -0.2413  0.1770  0.2929
 1988SOL    HW1 6648   2.958   3.408   4.287 -0.2938  0.5199  0.5340
 1988SOL    HW2 6649   2.818   3.361   4.321 -0.3390  0.8209  0.7707
 1989SOL     OW 6650   4.561   0.619   6.162  0.3370 -0.6671 -0.0941
 1989SOL    HW1 6651   4.474   0.620   6.202  0.3750 -0.4754 -0.0164
 1989SOL    HW2 6652   4.560   0.693   6.101  1.4646  1.2510  2.0699
 1990SOL     OW 6653   2.665   3.400   5.551  0.3438 -0.3173  0.1030
 1990SOL    HW1 6654   2.711   3.351   5.619 -0.4965 -0.9256  0.2433
 1990SOL    HW2 6655   2.730   3.464   5.521  1.3876 -1.3376  0.0867
 1991SOL     OW 6656   2.609   4.675   5.347  0.3298 -0.1220 -0.0810
 1991SOL    HW1 6657   2.607   4.735   5.422 -0.7768  0.4966 -0.5921
 1991SOL    HW2 6658   2.576   4.592   5.382  1.3430 -0.3064  0.4901
 1992SOL     OW 6659   3.363   6.263   4.569 -0.0764  0.0760 -0.9235
 1992SOL    HW1 6660   3.451   6.300   4.564 -0.2761  0.5494 -1.0128
 1992SOL    HW2 6661   3.310   6.333   4.607 -0.0690 -0.8195  0.8712
 1993SOL     OW 6662   3.282   2.266   6.221 -0.1985 -0.3201  0.3657
 1993SOL    HW1 6663   3.273   2.226   6.134  0.8474 -1.3847  0.7105
 1993SOL    HW2 6664   3.324   2.198   6.273 -0.3354  0.5022  1.5717
 1994SOL     OW 6665   6.013   5.339   3.023 -0.2246  0.4904 -0.3426
 1994SOL    HW1 6666   5.968   5.396   3.084  1.8540  0.4242  1.3707
 1994SOL    HW2 6667   6.045   5.266   3.077  1.7500  0.4695 -1.4410
 1995SOL     OW 6668   2.352   2.452   3.144 -0.0430  0.7403  0.0736
 1995SOL    HW1 6669   2.344   2.375   3.087 -2.1253 -0.1760  1.4583
 1995SOL    HW2 6670   2.373   2.416   3.230 -2.2641  1.5587  1.0199
 1996SOL     OW 6671   0.171   1.012   1.313 -0.0468  0.4526  0.2043
 1996SOL    HW1 6672   0.151   1.105   1.324  0.8647  0.6483  0.2731
 1996SOL    HW2 6673   0.230   0.991   1.386 -0.2564 -0.1828  0.1983
 1997SOL     OW 6674   2.283   3.268   1.939 -0.4889  0.7303 -0.2534
 1997SOL    HW1 6675   2.372   3.251   1.908 -0.3194 -0.8433  0.9267
 1997SOL    HW2 6676   2.263   3.357   1.909  1.4067  1.0572 -0.6828
 1998SOL     OW 6677   3.706   0.133   4.325 -0.7097 -0.0444 -0.3407
 1998SOL    HW1 6678   3.755   0.195   4.270 -0.6103  0.8378  0.7058
 1998SOL    HW2 6679   3.627   0.114   4.274 -0.1820  0.0237 -1.1973
 1999SOL     OW 6680   4.381   1.066   6.162  0.7122  0.1356 -0.2465
 1999SOL    HW1 6681   4.304   1.020   6.195  1.3764 -1.9310 -1.4228
 1999SOL    HW2 6682   4.445   1.060   6.233  0.1956  0.8795  0.2986
 2000SOL     OW 6683   5.966   4.638   3.706  0.0225 -0.0885  0.1224
 2000SOL    HW1 6684   5.985   4.547   3.730 -1.2108 -0.4945 -0.3194
 2000SOL    HW2 6685   5.882   4.656   3.748 -0.4824  0.3353 -1.0311
 2001SOL     OW 6686   3.047   1.214   5.422 -0.3581 -0.6047 -0.1149
 2001SOL    HW1 6687   3.114   1.176   5.478  0.8231  0.7096 -0.5733
 2001SOL    HW2 6688   2.966   1.207   5.472  0.5223 -0.2032  1.4212
 2002SOL     OW 6689   6.495   0.080   0.680 -0.2765 -0.5483 -0.7628
 2002SOL    HW1 6690   6.580   0.125   0.685 -0.3112 -0.5820  0.3420
 2002SOL    HW2 6691   6.452   0.101   0.763 -0.4448 -2.3224 -0.3672
 2003SOL     OW 6692   2.988   4.640   3.967  0.4426 -0.4374 -0.2077
 2003SOL    HW1 6693   2.973   4.725   4.007  0.5784 -0.2862 -0.4768
 2003SOL    HW2 6694   3.040   4.592   4.032 -1.2262 -0.9947  0.7789
 2004SOL     OW 6695   0.967   4.537   1.244 -0.1000  0.2580  0.2570
 2004SOL    HW1 6696   0.900   4.592   1.203  0.5800  0.2755 -0.8670
 2004SOL    HW2 6697   0.979   4.575   1.332 -1.0552  0.6685  0.2202
 2005SOL     OW 6698   1.247   1.557   5.993 -0.0668 -0.1292 -0.1753
 2005SOL    HW1 6699   1.191   1.512   5.930  2.6314 -0.9098 -2.2067
 2005SOL    HW2 6700   1.284   1.488   6.047 -2.5353  0.5557  2.6040
 2006SOL     OW 6701   0.277   5.974   1.290  0.3016  0.0057  0.5353
 2006SOL    HW1 6702   0.267   6.047   1.352  1.1922 -0.0926  0.8172
 2006SOL    HW2 6703   0.188   5.947   1.271 -0.0017 -0.5691  2.4989
 2007SOL     OW 6704   3.038   0.719   4.071 -0.1098  0.0749 -0.0730
 2007SOL    HW1 6705   3.031   0.812   4.049 -1.0806  0.0147 -0.0496
 2007SOL    HW2 6706   3.066   0.677   3.989 -0.3768  0.2974 -0.2783
 2008SOL     OW 6707   1.221   2.469   5.024  0.1561  0.4683  0.3955
 2008SOL    HW1 6708   1.280   2.542   5.003 -0.1488  0.5470 -0.2141
 2008SOL    HW2 6709   1.209   2.424   4.941 -0.0481  0.0099  0.6742
 2009SOL     OW 6710   2.095   2.252   3.990 -0.1981 -0.1416 -0.4297
 2009SOL    HW1 6711   2.119   2.310   3.917  1.2713 -0.3903 -0.1800
 2009SOL    HW2 6712   2.019   2.294   4.030  0.4163  1.2683 -0.6694
 2010SOL     OW 6713   2.804   4.716   1.550 -0.3815 -0.0663 -0.1296
 2010SOL    HW1 6714   2.800   4.747   1.460  0.9948 -1.0196 -0.5368
 2010SOL    HW2 6715   2.713   4.693   1.571 -0.5424 -1.0318 -1.7182
 2011SOL     OW 6716   2.235   1.092   2.999  0.5130  0.3297 -0.5017
 2011SOL    HW1 6717   2.185   1.065   3.077  1.7051  0.7906  0.4621
 2011SOL    HW2 6718   2.216   1.186   2.991  0.6725  0.3558 -0.5570
 2012SOL     OW 6719   4.377   0.867   4.045  0.1284 -0.2913  0.0186
 2012SOL    HW1 6720   4.355   0.823   3.963 -0.0398 -0.4084  0.1260
 2012SOL    HW2 6721   4.467   0.899   4.032  0.6823 -1.6337  0.3349
 2013SOL     OW 6722   6.068   0.501   1.754  0.1082  0.1520  0.2259
 2013SOL    HW1 6723   6.135   0.477   1.818 -0.5840 -0.2399  0.8063
 2013SOL    HW2 6724   5.990   0.519   1.805 -0.5434 -0.4543 -0.5177
 2014SOL     OW 6725   1.568   2.223   6.459  0.4907  0.3122 -0.2202
 2014SOL    HW1 6726   1.608   2.143   6.424  0.8932  1.3143 -2.1665
 2014SOL    HW2 6727   1.637   2.265   6.509 -0.2981 -1.5066  2.6479
 2015SOL     OW 6728   2.075   3.797   4.028 -0.2015 -0.5748 -0.0046
 2015SOL    HW1 6729   2.035   3.882   4.046 -1.5399 -1.2931  0.5674
 2015SOL    HW2 6730   2.108   3.804   3.938 -1.9524 -0.0371 -0.6513
 2016SOL     OW 6731   1.212   0.706   5.313 -0.3957  0.3441  0.3410
 2016SOL    HW1 6732   1.139   0.689   5.373 -1.4181  0.6294 -0.7806
 2016SOL    HW2 6733   1.182   0.672   5.229  0.5090  1.0436 -0.2873
 2017SOL     OW 6734   0.146   1.924   2.756 -0.7568 -0.0311 -0.1153
 2017SOL    HW1 6735   0.105   1.917   2.842  0.3114 -1.8765  0.2796
 2017SOL    HW2 6736   0.165   1.834   2.730  1.9146  0.6430 -0.8121
 2018SOL     OW 6737   6.449   3.252   3.046  0.6073  0.0728  0.4448
 2018SOL    HW1 6738   6.500   3.177   3.077  1.7819  1.4960  2.1809
 2018SOL    HW2 6739   6.511   3.306   2.998 -0.0810  0.2528 -0.2678
 2019SOL     OW 6740   3.445   6.433   0.103  0.3850 -0.5677  0.3080
 2019SOL    HW1 6741   3.366   6.409   0.055  0.0990  0.0031  0.4905
 2019SOL    HW2 6742   3.481   6.508   0.054 -0.3302  0.5231  1.4069
 2020SOL     OW 6743   1.148   0.304   1.079 -0.5393 -0.0793  0.0023
 2020SOL    HW1 6744   1.079   0.368   1.094  1.0682  2.2196 -1.6357
 2020SOL    HW2 6745   1.133   0.274   0.989  1.8315  2.3886 -1.4018
 2021SOL     OW 6746   0.049   5.767   5.740 -0.0815  0.0701 -0.2625
 2021SOL    HW1 6747   0.042   5.672   5.737  1.9318 -0.1291 -0.8202
 2021SOL    HW2 6748  -0.030   5.799   5.697 -1.7751 -1.2503  1.7194
 2022SOL     OW 6749   0.045   1.241   0.024  0.3996  0.1188  0.2529
 2022SOL    HW1 6750   0.119   1.248   0.083 -0.2513 -2.4688  1.5347
 2022SOL    HW2 6751  -0.032   1.248   0.081 -0.2625 -1.1615 -0.4331
 2023SOL     OW 6752   4.570   5.330   5.814  0.2170  0.9726  0.0800
 2023SOL    HW1 6753   4.534   5.411   5.851 -0.9053  0.3172  0.4931
 2023SOL    HW2 6754   4.497   5.290   5.767  0.9619  0.5615 -0.7640
 2024SOL     OW 6755   5.850   0.602   2.375  0.9124 -0.0878 -0.0713
 2024SOL    HW1 6756   5.799   0.649   2.440  2.2112  0.7027  0.4140
 2024SOL    HW2 6757   5.802   0.520   2.362 -1.2285  1.1889 -0.7150
 2025SOL     OW 6758   4.747   5.015   2.420 -0.1325  0.8073 -0.2660
 2025SOL    HW1 6759   4.705   4.978   2.342  1.2075 -1.0752 -0.1672
 2025SOL    HW2 6760   4.676   5.023   2.484 -0.4697 -2.4188 -0.0469
 2026SOL     OW 6761   3.527   6.127   2.719 -0.2228  0.5698  0.4467
 2026SOL    HW1 6762   3.620   6.132   2.699  0.2321 -0.3552  2.1618
 2026SOL    HW2 6763   3.490   6.073   2.649  0.5794  0.7355 -0.1070
 2027SOL     OW 6764   4.570   3.055   4.999 -0.3009 -0.3972 -0.4949
 2027SOL    HW1 6765   4.665   3.053   5.008 -0.2995 -2.2664 -0.3821
 2027SOL    HW2 6766   4.538   3.008   5.077 -1.2312 -0.8616 -1.1395
 2028SOL     OW 6767   3.827   1.564   5.124 -0.2218 -0.2035  0.0427
 2028SOL    HW1 6768   3.836   1.531   5.035 -1.3720  1.7662 -0.8598
 2028SOL    HW2 6769   3.770   1.500   5.168 -0.2909 -0.7725 -0.8564
 2029SOL     OW 6770   2.404   0.328   6.362 -0.3819 -0.3586 -0.0861
 2029SOL    HW1 6771   2.386   0.256   6.423 -1.8183 -0.9145 -1.1169
 2029SOL    HW2 6772   2.464   0.385   6.410  0.8410 -2.2431  0.7474
 2030SOL     OW 6773   4.155   6.215   0.354 -0.1697 -0.7155  0.4123
 2030SOL    HW1 6774   4.218   6.178   0.416  2.6921 -1.3574 -2.6106
 2030SOL    HW2 6775   4.182   6.180   0.269 -3.5296  0.5365 -1.3428
 2031SOL     OW 6776   1.839   5.032   2.207 -0.0098  0.1634 -0.1044
 2031SOL    HW1 6777   1.825   5.085   2.129 -2.5317  0.5060  0.5076
 2031SOL    HW2 6778   1.752   4.999   2.230  0.9438 -1.3419  1.5794
 2032SOL     OW 6779   5.662   2.178   4.532 -0.3119  0.6049  0.3574
 2032SOL    HW1 6780   5.709   2.130   4.600 -0.7727  0.8645  0.8643
 2032SOL    HW2 6781   5.617   2.249   4.579 -1.1639  0.3923 -0.1206
 2033SOL     OW 6782   1.878   4.368   1.040  0.2892  0.3146  0.2479
 2033SOL    HW1 6783   1.815   4.303   1.071 -0.3195  1.8014  2.3691
 2033SOL    HW2 6784   1.836   4.452   1.057  1.8894  1.3167 -0.4961
 2034SOL     OW 6785   2.028   1.830   4.422  0.6733  0.2363  0.4538
 2034SOL    HW1 6786   2.065   1.745   4.396  0.2752 -0.1741  1.1823
 2034SOL    HW2 6787   2.081   1.857   4.497 -0.3819 -0.2823  1.4060
 2035SOL     OW 6788   6.081   2.128   1.852  0.1504  0.0918 -0.1881
 2035SOL    HW1 6789   6.045   2.040   1.839  0.4036 -0.2295  1.1768
 2035SOL    HW2 6790   6.067   2.171   1.768 -1.8203 -0.5848 -0.2737
 2036SOL     OW 6791   3.297   4.493   4.590  0.5494  0.1049 -0.2707
 2036SOL    HW1 6792   3.238   4.568   4.591  0.5888  0.1329  0.0683
 2036SOL    HW2 6793   3.346   4.500   4.672  1.0264  0.0844 -0.5504
 2037SOL     OW 6794   6.392   3.685   0.390 -0.3986  0.0956 -0.3971
 2037SOL    HW1 6795   6.360   3.647   0.472 -0.5882  0.5933 -0.2377
 2037SOL    HW2 6796   6.353   3.631   0.322  0.3479 -0.7777 -0.1457
 2038SOL     OW 6797   4.614   1.191   3.653  0.0263 -0.2168  0.2853
 2038SOL    HW1 6798   4.601   1.286   3.651  0.8245 -0.1126 -0.1315
 2038SOL    HW2 6799   4.537   1.158   3.700  0.3520  0.7410  1.5475
 2039SOL     OW 6800   6.513   6.314   0.085 -0.4943 -0.1212 -0.3289
 2039SOL    HW1 6801   6.496   6.398   0.127 -1.6781  0.9012 -2.6602
 2039SOL    HW2 6802   6.605   6.320   0.057  0.4717 -1.0174  2.3373
 2040SOL     OW 6803   3.530   0.207   5.329  0.2523  0.2619 -0.2247
 2040SOL    HW1 6804   3.546   0.127   5.379  0.6958 -0.1787 -1.0468
 2040SOL    HW2 6805   3.550   0.278   5.389 -0.4767 -0.2312  0.6284
 2041SOL     OW 6806   5.481   1.760   3.346  0.3947 -0.1798  0.5069
 2041SOL    HW1 6807   5.561   1.739   3.394  0.3337 -0.9357  0.2884
 2041SOL    HW2 6808   5.489   1.853   3.326  0.3558  0.1904  2.0910
 2042SOL     OW 6809   0.045   2.186   5.302  0.6410 -0.3276 -0.4053
 2042SOL    HW1 6810   0.126   2.236   5.301  0.8961 -0.7464 -0.6818
 2042SOL    HW2 6811  -0.022   2.248   5.272  0.6405  0.3785  0.9945
 2043SOL     OW 6812   1.714   4.147   1.413  0.9733  0.4987  0.7901
 2043SOL    HW1 6813   1.727   4.083   1.482 -0.3025 -0.0478  0.5504
 2043SOL    HW2 6814   1.769   4.116   1.340  0.9666  0.1174  0.9486
 2044SOL     OW 6815   3.132   3.348   0.647 -0.0566 -0.2088 -0.4552
 2044SOL    HW1 6816   3.184   3.410   0.596  0.4524 -1.2932 -1.2799
 2044SOL    HW2 6817   3.044   3.355   0.610 -0.9626  2.5867  1.7859
 2045SOL     OW 6818   4.136   2.318   1.968  0.1133 -0.1830  0.1556
 2045SOL    HW1 6819   4.052   2.296   1.928  0.0167  0.7436 -0.1674
 2045SOL    HW2 6820   4.201   2.276   1.911 -0.1264 -1.5583  0.8329
 2046SOL     OW 6821   6.101   4.192   1.253  0.0418 -0.6273 -0.1237
 2046SOL    HW1 6822   6.024   4.223   1.204  0.0752  0.2233  0.3465
 2046SOL    HW2 6823   6.173   4.246   1.221  0.1683 -0.4515  0.4514
 2047SOL     OW 6824   2.803   0.601   4.125 -0.2546 -0.6389 -0.0062
 2047SOL    HW1 6825   2.767   0.690   4.132 -0.9410 -0.9263  0.2036
 2047SOL    HW2 6826   2.897   0.613   4.136 -0.4248 -0.0345  0.9506
 2048SOL     OW 6827   2.537   2.054   4.950 -0.2607  0.0467 -0.6047
 2048SOL    HW1 6828   2.624   2.092   4.940 -0.3775 -0.0701 -2.3984
 2048SOL    HW2 6829   2.549   1.983   5.014  0.5600  1.1760  0.5458
 2049SOL     OW 6830   5.763   6.040   1.744 -0.5294  0.0295  0.0081
 2049SOL    HW1 6831   5.743   6.121   1.696 -0.4112  0.6564  0.9897
 2049SOL    HW2 6832   5.830   6.065   1.807  0.5246 -1.1649 -0.5930
 2050SOL     OW 6833   2.509   4.781   5.965 -0.8649 -0.2152  0.6206
 2050SOL    HW1 6834   2.527   4.847   6.031 -0.4626  0.1161  0.1883
 2050SOL    HW2 6835   2.420   4.751   5.984 -1.2755  0.8771  0.4554
 2051SOL     OW 6836   2.195   2.342   2.026 -0.0557  0.4119 -0.0916
 2051SOL    HW1 6837   2.225   2.279   2.091 -1.5369 -1.3174 -1.0044
 2051SOL    HW2 6838   2.201   2.427   2.070  0.7727 -0.4817  1.6144
 2052SOL     OW 6839   3.187   1.102   5.637  0.5358  0.0817 -0.0518
 2052SOL    HW1 6840   3.271   1.056   5.651  0.4968  0.3563  1.1578
 2052SOL    HW2 6841   3.142   1.095   5.721 -0.4937  0.2911 -0.5762
 2053SOL     OW 6842   5.373   4.741   5.952 -0.5247  0.1848  0.5854
 2053SOL    HW1 6843   5.332   4.808   6.007 -2.7619  0.1582 -0.9131
 2053SOL    HW2 6844   5.300   4.687   5.922  0.8010 -0.7693 -1.1008
 2054SOL     OW 6845   0.612   3.848   5.679 -0.2442  0.1022  0.2865
 2054SOL    HW1 6846   0.569   3.933   5.675 -0.8123 -0.0570  1.9910
 2054SOL    HW2 6847   0.596   3.817   5.769  1.0325 -1.2294  0.1026
 2055SOL     OW 6848   3.826   4.857   4.697 -0.2456 -0.1862 -0.0255
 2055SOL    HW1 6849   3.735   4.851   4.724  0.1474  1.2487  1.8732
 2055SOL    HW2 6850   3.853   4.766   4.684 -1.3483 -0.7990  1.6072
 2056SOL     OW 6851   2.038   1.208   4.867  0.1712 -0.2830  0.9154
 2056SOL    HW1 6852   1.943   1.216   4.878  0.1414 -0.4484  0.7846
 2056SOL    HW2 6853   2.057   1.117   4.892  0.3952 -0.0399  1.6581
 2057SOL     OW 6854   3.387   4.923   1.939  0.3717  0.5444 -0.4378
 2057SOL    HW1 6855   3.425   4.849   1.892  0.3100 -0.2475  0.7044
 2057SOL    HW2 6856   3.462   4.970   1.976  0.3217 -0.5787  1.1745
 2058SOL     OW 6857   3.624   6.165   2.264  0.8251 -0.2105 -0.0077
 2058SOL    HW1 6858   3.665   6.082   2.286  0.3356 -0.4145  0.1574
 2058SOL    HW2 6859   3.649   6.181   2.173 -0.5018 -1.4224 -0.6181
 2059SOL     OW 6860   1.271   4.203   3.150  0.2104 -0.0081  0.2207
 2059SOL    HW1 6861   1.240   4.171   3.065 -2.6073 -1.9173  1.7811
 2059SOL    HW2 6862   1.216   4.278   3.170  0.7549  0.3369  0.4723
 2060SOL     OW 6863   0.352   4.803   6.430  0.2482  0.0385  0.4015
 2060SOL    HW1 6864   0.322   4.712   6.436  0.7523 -0.1924 -0.4209
 2060SOL    HW2 6865   0.310   4.838   6.352 -1.0168  0.9506  1.4500
 2061SOL     OW 6866   0.921   0.944   2.618 -0.4613 -0.2321 -0.4318
 2061SOL    HW1 6867   0.902   0.852   2.601  1.5189 -1.2356  2.2268
 2061SOL    HW2 6868   1.016   0.951   2.611 -0.4255  1.2186  1.0311
 2062SOL     OW 6869   2.916   3.397   3.046 -0.2288 -0.8312  0.0019
 2062SOL    HW1 6870   2.911   3.442   3.130 -1.8832 -0.5094 -0.2287
 2062SOL    HW2 6871   2.836   3.424   3.000  1.0417 -0.3439 -2.0107
 2063SOL     OW 6872   0.625   5.134   3.508 -0.2768  0.4037 -0.4721
 2063SOL    HW1 6873   0.571   5.213   3.512 -1.0879 -0.1787  1.2511
 2063SOL    HW2 6874   0.683   5.148   3.433 -0.8541  2.3231 -0.6195
 2064SOL     OW 6875   1.182   4.638   5.976 -0.6017  0.5510 -0.3491
 2064SOL    HW1 6876   1.208   4.726   6.004 -1.5971  0.9050 -0.4857
 2064SOL    HW2 6877   1.124   4.607   6.046 -1.3129  0.5518 -0.9240
 2065SOL     OW 6878   1.567   0.191   6.274 -0.8922 -0.0910 -0.3893
 2065SOL    HW1 6879   1.658   0.207   6.246 -1.5965  0.9298 -2.2603
 2065SOL    HW2 6880   1.575   0.160   6.364  1.2562  0.8587 -0.1917
 2066SOL     OW 6881   2.777   4.043   5.436  0.6592 -0.0760  0.2489
 2066SOL    HW1 6882   2.825   4.026   5.355  0.0382  2.5383 -0.7848
 2066SOL    HW2 6883   2.838   4.095   5.489 -0.4745  2.1862 -0.5499
 2067SOL     OW 6884   5.323   6.153   3.941  0.0508 -0.5685 -0.0136
 2067SOL    HW1 6885   5.394   6.101   3.979 -0.0384 -0.5755  0.1429
 2067SOL    HW2 6886   5.247   6.096   3.947  0.3588 -1.2176 -1.6796
 2068SOL     OW 6887   4.238   4.954   5.119  0.0830  0.1454  0.1710
 2068SOL    HW1 6888   4.241   4.966   5.024  2.4034  0.8793  0.2670
 2068SOL    HW2 6889   4.178   5.022   5.151 -0.1439  0.3684 -0.7189
 2069SOL     OW 6890   3.115   1.499   5.011  0.1058 -0.0587 -0.2380
 2069SOL    HW1 6891   3.202   1.460   5.022 -0.7723 -2.1573 -0.1521
 2069SOL    HW2 6892   3.065   1.469   5.087 -0.7305  1.0180 -0.3384
 2070SOL     OW 6893   5.426   4.006   5.012  0.0392  0.2915  0.0655
 2070SOL    HW1 6894   5.462   4.059   4.941  3.6139  0.8619  2.0396
 2070SOL    HW2 6895   5.462   3.918   4.997  2.3333  0.8062  1.9289
 2071SOL     OW 6896   0.243   2.974   5.797 -0.0302  0.5375  0.7190
 2071SOL    HW1 6897   0.191   2.895   5.803  0.1763 -0.2809 -4.2271
 2071SOL    HW2 6898   0.186   3.038   5.755  1.9822  0.3396 -2.6877
 2072SOL     OW 6899   1.709   2.011   2.080  0.1762 -0.3487  0.0577
 2072SOL    HW1 6900   1.779   1.954   2.110  0.6221 -0.9405 -1.9754
 2072SOL    HW2 6901   1.751   2.096   2.067  0.1076 -0.2447  0.4788
 2073SOL     OW 6902   4.674   3.682   0.447 -0.5106 -0.1662 -0.5332
 2073SOL    HW1 6903   4.651   3.761   0.497  1.2418 -0.2840  0.5517
 2073SOL    HW2 6904   4.593   3.631   0.443 -0.7382 -0.1730  2.3001
 2074SOL     OW 6905   4.899   4.089   4.504 -0.2949  0.1032  0.2170
 2074SOL    HW1 6906   4.890   4.021   4.571 -0.4836 -2.2205 -2.0101
 2074SOL    HW2 6907   4.994   4.093   4.487 -0.4353 -1.1999 -1.0961
 2075SOL     OW 6908   5.277   5.756   2.205  0.1795 -0.6339 -0.3385
 2075SOL    HW1 6909   5.311   5.845   2.193  0.4534 -0.7876 -0.7461
 2075SOL    HW2 6910   5.215   5.763   2.277  0.6019 -0.2158 -0.0097
 2076SOL     OW 6911   0.458   5.694   0.853  0.0921  0.1636 -0.0720
 2076SOL    HW1 6912   0.536   5.649   0.886 -0.3050 -0.3465  0.1815
 2076SOL    HW2 6913   0.448   5.770   0.910 -0.4998 -0.6232  0.9073
 2077SOL     OW 6914   3.548   0.542   4.660 -0.1471  0.2773  0.0658
 2077SOL    HW1 6915   3.485   0.518   4.592 -0.6660  3.0885 -0.5671
 2077SOL    HW2 6916   3.577   0.459   4.696 -0.0348 -1.3307 -3.3860
 2078SOL     OW 6917   2.273   0.732   2.898  0.0941  0.5525 -0.7354
 2078SOL    HW1 6918   2.206   0.710   2.834  1.0462  2.7372 -2.6399
 2078SOL    HW2 6919   2.332   0.657   2.899 -0.6276 -0.0362 -1.4755
 2079SOL     OW 6920   6.465   0.679   3.655  0.2035  0.2816 -0.0105
 2079SOL    HW1 6921   6.415   0.597   3.666  0.1564  0.3196  0.0585
 2079SOL    HW2 6922   6.491   0.678   3.563  0.4414  0.0521  0.0592
 2080SOL     OW 6923   2.809   3.570   5.415 -0.2440 -0.4327 -0.0916
 2080SOL    HW1 6924   2.862   3.649   5.426  0.8962 -1.1650 -0.0934
 2080SOL    HW2 6925   2.749   3.590   5.343  1.8436 -0.4578 -1.9361
 2081SOL     OW 6926   5.573   0.950   1.325  0.0196 -0.6813 -0.7422
 2081SOL    HW1 6927   5.636   0.977   1.392  1.3481 -2.0583 -1.3850
 2081SOL    HW2 6928   5.598   1.000   1.248 -0.8890  0.1593 -0.5201
 2082SOL     OW 6929   2.766   0.936   3.558 -0.1080  0.4357  0.2103
 2082SOL    HW1 6930   2.719   1.013   3.527 -4.0230 -2.0989 -0.8601
 2082SOL    HW2 6931   2.781   0.884   3.480  1.6400 -0.3650  1.0184
 2083SOL     OW 6932   4.472   5.031   0.181 -0.3742 -0.2360 -0.1525
 2083SOL    HW1 6933   4.485   4.990   0.266 -1.1037 -0.1532  0.0034
 2083SOL    HW2 6934   4.560   5.033   0.142  0.1796  0.7553  1.0584
 2084SOL     OW 6935   0.281   4.845   3.583 -0.0078  0.3473 -0.6296
 2084SOL    HW1 6936   0.241   4.801   3.508 -2.2957 -0.9540  1.1849
 2084SOL    HW2 6937   0.372   4.814   3.583 -0.3301 -0.7192 -2.0448
 2085SOL     OW 6938   1.347   5.450   0.612 -0.0360  0.0129 -0.0298
 2085SOL    HW1 6939   1.321   5.358   0.617 -3.0955  0.8105  1.0383
 2085SOL    HW2 6940   1.311   5.489   0.692  2.3955  1.9044  0.2378
 2086SOL     OW 6941   5.755   5.505   0.920  0.0345 -0.0182  0.2806
 2086SOL    HW1 6942   5.781   5.432   0.976 -0.1978 -0.8683 -0.6902
 2086SOL    HW2 6943   5.791   5.483   0.834 -1.9673 -0.1586 -0.5844
 2087SOL     OW 6944   4.601   0.872   3.657  0.2832  0.4873  0.0724
 2087SOL    HW1 6945   4.694   0.896   3.655  1.2347 -2.6838 -1.5763
 2087SOL    HW2 6946   4.563   0.917   3.582  0.5329  1.5172  0.5429
 2088SOL     OW 6947   3.885   0.512   4.874 -0.1152 -0.0289 -0.2611
 2088SOL    HW1 6948   3.890   0.417   4.881  2.6816  0.1545  1.7818
 2088SOL    HW2 6949   3.909   0.531   4.784  1.2842 -1.2190 -0.1674
 2089SOL     OW 6950   4.290   6.358   2.471 -0.1665  0.0663  0.4505
 2089SOL    HW1 6951   4.329   6.368   2.558 -1.4300  2.3361  0.8257
 2089SOL    HW2 6952   4.348   6.296   2.426  1.2336 -0.1985  2.4615
 2090SOL     OW 6953   2.954   3.210   2.690  0.1550 -0.4720 -0.3117
 2090SOL    HW1 6954   2.904   3.171   2.618 -2.6895 -1.7785  2.1183
 2090SOL    HW2 6955   2.974   3.136   2.748  0.1769  0.8123  1.4135
 2091SOL     OW 6956   0.954   5.561   6.449 -0.2198  0.4431  0.1996
 2091SOL    HW1 6957   0.970   5.628   6.383  0.8629  0.6991  0.6857
 2091SOL    HW2 6958   1.033   5.562   6.503 -1.7963  1.5208  2.6360
 2092SOL     OW 6959   3.646   4.958   5.468  0.0081  0.1036 -0.0831
 2092SOL    HW1 6960   3.741   4.948   5.462  0.0383  0.3039  0.0527
 2092SOL    HW2 6961   3.618   4.886   5.525  0.3521  1.3865  1.7981
 2093SOL     OW 6962   1.002   4.139   2.434 -0.1789  0.3244 -0.8881
 2093SOL    HW1 6963   1.001   4.099   2.348  0.5234 -1.5868 -0.0491
 2093SOL    HW2 6964   0.942   4.087   2.486 -1.1117  1.8556 -0.3460
 2094SOL     OW 6965   1.544   2.036   3.064 -0.0957  0.3430  0.2917
 2094SOL    HW1 6966   1.610   1.995   3.007 -0.5704 -0.0782  0.0417
 2094SOL    HW2 6967   1.559   1.996   3.150  1.5334  1.9790  0.8371
 2095SOL     OW 6968   1.975   1.849   6.396  0.4605  0.3151  0.1573
 2095SOL    HW1 6969   2.028   1.824   6.472  1.3900 -0.1504 -0.6173
 2095SOL    HW2 6970   2.033   1.836   6.321 -0.5428  0.4471 -0.6679
 2096SOL     OW 6971   3.336   1.152   3.226 -0.5599 -0.5271  0.5083
 2096SOL    HW1 6972   3.316   1.206   3.302  0.5195 -1.1398  1.2554
 2096SOL    HW2 6973   3.284   1.072   3.239 -2.1877  0.2872 -0.6159
 2097SOL     OW 6974   5.593   1.108   6.085  0.2396  0.3874  0.2157
 2097SOL    HW1 6975   5.652   1.183   6.079  1.9013 -0.8211  0.6669
 2097SOL    HW2 6976   5.539   1.125   6.162  3.0066 -0.4277  2.5033
 2098SOL     OW 6977   1.830   5.945   2.768  0.2693  0.2778  0.7690
 2098SOL    HW1 6978   1.747   5.944   2.815 -0.4137  0.4428 -0.3887
 2098SOL    HW2 6979   1.823   6.020   2.709  0.8196 -0.3130 -0.0682
 2099SOL     OW 6980   3.567   4.486   5.060 -0.2964  0.1031  0.5826
 2099SOL    HW1 6981   3.534   4.448   5.142  0.1615  0.3279  0.8745
 2099SOL    HW2 6982   3.658   4.457   5.055 -0.7284 -1.1535 -0.6054
 2100SOL     OW 6983   5.680   6.450   3.276  0.1639 -0.0061 -0.1006
 2100SOL    HW1 6984   5.705   6.380   3.335 -1.8582  0.7128  1.7568
 2100SOL    HW2 6985   5.762   6.493   3.252  1.1253 -0.8642  1.5108
 2101SOL     OW 6986   3.492   4.444   2.640  0.4426 -0.4665 -0.3592
 2101SOL    HW1 6987   3.426   4.396   2.690  0.0400  0.8431  0.4057
 2101SOL    HW2 6988   3.569   4.445   2.697  0.3968 -0.0799 -0.3007
 2102SOL     OW 6989   0.681   2.344   3.187  0.4708 -0.0426  0.0650
 2102SOL    HW1 6990   0.776   2.337   3.196  0.2432 -2.2596  1.5449
 2102SOL    HW2 6991   0.659   2.289   3.112  0.2681 -0.6391  0.5493
 2103SOL     OW 6992   4.269   1.830   5.269 -0.0830 -0.1008  0.3732
 2103SOL    HW1 6993   4.315   1.768   5.326 -0.7840 -1.1100 -0.1239
 2103SOL    HW2 6994   4.233   1.775   5.199  0.6676  1.1000 -0.9819
 2104SOL     OW 6995   1.617   1.455   1.214  0.4925 -0.3821 -0.1785
 2104SOL    HW1 6996   1.598   1.502   1.296  0.4040 -1.2040  0.2844
 2104SOL    HW2 6997   1.705   1.484   1.190 -0.1846  1.3062 -0.8274
 2105SOL     OW 6998   3.815   5.535   5.749 -0.4660 -0.2736  0.3680
 2105SOL    HW1 6999   3.889   5.475   5.742 -1.1626 -1.2153  0.7952
 2105SOL    HW2 7000   3.739   5.478   5.761 -1.8199  0.4486 -3.4580
 2106SOL     OW 7001   3.918   3.414   2.636 -0.0843 -0.3653 -0.3836
 2106SOL    HW1 7002   3.872   3.421   2.720  3.4115  2.1145  1.5972
 2106SOL    HW2 7003   3.962   3.329   2.641  0.1278 -0.2214  0.3143
 2107SOL     OW 7004   6.398   6.109   5.975  0.4214  0.1800  0.2314
 2107SOL    HW1 7005   6.367   6.193   5.941 -0.9590 -0.5218 -0.3014
 2107SOL    HW2 7006   6.474   6.088   5.920 -0.0531  0.4320 -0.5333
 2108SOL     OW 7007   1.282   4.380   4.332 -0.7261  0.1217 -0.8710
 2108SOL    HW1 7008   1.254   4.369   4.423 -3.1722  0.8787 -1.4715
 2108SOL    HW2 7009   1.264   4.472   4.312  0.6179  0.2036 -1.8880
 2109SOL     OW 7010   5.731   0.951   1.049 -0.5765  0.3021  0.8345
 2109SOL    HW1 7011   5.820   0.951   1.083  0.4634 -0.7437 -1.6181
 2109SOL    HW2 7012   5.721   0.867   1.005 -2.2462  0.9725 -0.2063
 2110SOL     OW 7013   4.538   0.216   1.418  0.2775  0.0521  0.2323
 2110SOL    HW1 7014   4.516   0.307   1.436  1.7636  0.6028 -0.4973
 2110SOL    HW2 7015   4.612   0.221   1.357 -1.8039 -1.6618 -2.6752
 2111SOL     OW 7016   1.414   0.573   3.002 -0.2286  0.0487 -0.0838
 2111SOL    HW1 7017   1.451   0.590   2.915 -1.1744 -0.7702 -0.6822
 2111SOL    HW2 7018   1.465   0.500   3.036  0.0231  0.2488 -0.0311
 2112SOL     OW 7019   3.612   4.910   1.249 -0.3410 -0.0917  0.0293
 2112SOL    HW1 7020   3.548   4.955   1.194 -0.2557  0.3198  0.2565
 2112SOL    HW2 7021   3.689   4.967   1.248 -1.0500  1.0491  2.2666
 2113SOL     OW 7022   4.593   5.632   4.504 -0.1198 -0.7695 -0.3644
 2113SOL    HW1 7023   4.560   5.551   4.466  0.3474 -2.2314  2.1067
 2113SOL    HW2 7024   4.665   5.605   4.560  2.3115  1.7864 -1.9585
 2114SOL     OW 7025   1.711   4.775   5.688  0.9100  0.0315 -0.2511
 2114SOL    HW1 7026   1.637   4.836   5.685  1.8600  1.1916 -3.2582
 2114SOL    HW2 7027   1.783   4.826   5.725  1.0157 -0.1372 -0.2214
 2115SOL     OW 7028   0.937   5.655   4.902  0.8573  0.5907 -0.3225
 2115SOL    HW1 7029   0.985   5.730   4.939 -0.1565  0.9766  0.2547
 2115SOL    HW2 7030   0.950   5.663   4.808  0.7348  1.5235 -0.2706
 2116SOL     OW 7031   6.366   2.594   0.519 -0.0410  0.6379 -0.3214
 2116SOL    HW1 7032   6.361   2.677   0.471  0.7046  0.6672 -0.3571
 2116SOL    HW2 7033   6.291   2.596   0.578 -0.8736  0.6848 -1.3533
 2117SOL     OW 7034   5.846   2.769   4.717  0.0157 -0.0061  0.1972
 2117SOL    HW1 7035   5.865   2.856   4.750  2.3357 -0.2449 -0.3218
 2117SOL    HW2 7036   5.866   2.773   4.624 -1.2240 -0.7451 -0.1335
 2118SOL     OW 7037   1.256   6.499   4.272 -0.0656  0.0556 -0.4226
 2118SOL    HW1 7038   1.348   6.523   4.285 -1.0656  4.5690 -0.2579
 2118SOL    HW2 7039   1.250   6.476   4.180  1.0695  0.7844 -0.7047
 2119SOL     OW 7040   1.613   1.276   4.359 -0.4238  0.2899 -0.3120
 2119SOL    HW1 7041   1.701   1.302   4.331 -0.0892 -0.9615 -0.4788
 2119SOL    HW2 7042   1.623   1.257   4.453 -0.2558 -0.8640 -0.5484
 2120SOL     OW 7043   6.356   4.906   4.704 -0.1101  0.5910  0.0653
 2120SOL    HW1 7044   6.361   4.984   4.759  1.2619  1.0152 -0.6080
 2120SOL    HW2 7045   6.286   4.925   4.642 -1.9413 -0.0542  1.8424
 2121SOL     OW 7046   5.944   2.261   4.759  0.0092  0.1601 -0.1486
 2121SOL    HW1 7047   5.927   2.352   4.784  0.6293  0.6966 -1.5634
 2121SOL    HW2 7048   5.861   2.216   4.774 -1.4324  1.7348 -2.6897
 2122SOL     OW 7049   4.338   4.427   2.747  0.1732 -0.4235 -0.3870
 2122SOL    HW1 7050   4.409   4.390   2.800 -0.0608  0.9893  1.0007
 2122SOL    HW2 7051   4.377   4.438   2.660  1.8823  0.7814  0.4532
 2123SOL     OW 7052   6.274   3.748   1.152 -0.3035  0.1063 -0.3476
 2123SOL    HW1 7053   6.337   3.784   1.215  0.5713  0.8350 -1.5910
 2123SOL    HW2 7054   6.324   3.740   1.071 -1.6659  0.1537 -1.2194
 2124SOL     OW 7055   2.459   3.511   2.663  0.1066 -0.1847 -0.3908
 2124SOL    HW1 7056   2.508   3.587   2.633  0.1198 -0.8253 -2.0888
 2124SOL    HW2 7057   2.369   3.542   2.672  0.7299  1.1127  3.1531
 2125SOL     OW 7058   3.997   2.883   6.302 -0.1348 -0.6571  0.6697
 2125SOL    HW1 7059   3.911   2.852   6.275  0.0800 -0.0109 -0.8832
 2125SOL    HW2 7060   4.057   2.814   6.274 -0.0225 -0.5376  0.6153
 2126SOL     OW 7061   6.424   3.649   3.617  0.2703 -0.0821  0.2268
 2126SOL    HW1 7062   6.385   3.737   3.616 -0.9070 -0.5601  1.1048
 2126SOL    HW2 7063   6.354   3.591   3.587  1.9153 -0.4857 -3.3297
 2127SOL     OW 7064   4.067   3.004   2.477  0.0959 -0.1888 -0.0685
 2127SOL    HW1 7065   4.140   2.951   2.508 -0.3966  0.2768  2.0529
 2127SOL    HW2 7066   4.026   2.952   2.408  2.2170 -0.5780 -1.1166
 2128SOL     OW 7067   4.184   5.914   5.739 -0.1058  0.0784  0.3111
 2128SOL    HW1 7068   4.141   5.845   5.790  0.2015  0.0916  0.5970
 2128SOL    HW2 7069   4.194   5.986   5.801  0.3161  0.0783  0.2502
 2129SOL     OW 7070   1.505   2.363   0.372 -0.2510  0.4262 -0.5446
 2129SOL    HW1 7071   1.421   2.396   0.340 -0.6980 -0.0689  0.1106
 2129SOL    HW2 7072   1.568   2.433   0.350 -1.0450  1.3768  0.1423
 2130SOL     OW 7073   4.898   4.073   6.486 -0.3437 -0.2526  0.5886
 2130SOL    HW1 7074   4.982   4.032   6.506  0.6282  1.1132 -0.4427
 2130SOL    HW2 7075   4.877   4.042   6.398 -0.7828 -0.3591  0.7293
 2131SOL     OW 7076   1.534   4.393   6.408 -0.0677 -0.0157 -0.2422
 2131SOL    HW1 7077   1.463   4.440   6.364 -0.9485  0.8157  1.9131
 2131SOL    HW2 7078   1.494   4.312   6.439 -0.0125  0.2807  0.6438
 2132SOL     OW 7079   4.441   3.002   0.580  0.1487  0.1315  0.2392
 2132SOL    HW1 7080   4.358   2.968   0.613 -0.7795  0.5201 -1.5469
 2132SOL    HW2 7081   4.496   2.924   0.569 -0.4037 -0.2783  0.3275
 2133SOL     OW 7082   5.488   4.288   2.946  0.3949 -0.0544  0.3485
 2133SOL    HW1 7083   5.581   4.302   2.962 -0.1076  1.8727  1.9028
 2133SOL    HW2 7084   5.468   4.206   2.991  1.0554  0.2594  1.2314
 2134SOL     OW 7085   5.053   4.432   4.232 -0.7108 -0.0351 -0.8021
 2134SOL    HW1 7086   4.973   4.380   4.246 -0.9718  0.6679  0.5224
 2134SOL    HW2 7087   5.114   4.372   4.189 -0.8964 -1.5508  0.9398
 2135SOL     OW 7088   5.706   4.091   3.123 -0.1722 -0.5104 -0.2863
 2135SOL    HW1 7089   5.639   4.160   3.129 -0.5863 -0.6504 -2.5034
 2135SOL    HW2 7090   5.758   4.102   3.203 -1.7351  0.7542  0.6381
 2136SOL     OW 7091   4.828   2.750   1.013 -0.7919 -0.2138  0.0821
 2136SOL    HW1 7092   4.840   2.764   0.919  0.0098 -0.0790  0.1975
 2136SOL    HW2 7093   4.736   2.725   1.022 -0.9294 -0.0172 -0.7125
 2137SOL     OW 7094   1.748   0.806   2.553  0.4003  0.1577  0.0354
 2137SOL    HW1 7095   1.696   0.727   2.539 -0.2785  0.2198  1.9678
 2137SOL    HW2 7096   1.687   0.878   2.538 -0.0109  0.2366  1.9339
 2138SOL     OW 7097   5.658   5.054   5.816 -0.8111 -0.4387 -0.3440
 2138SOL    HW1 7098   5.646   5.141   5.854 -1.2562 -0.7943  0.3308
 2138SOL    HW2 7099   5.613   4.994   5.875 -0.4471 -1.1469 -0.7605
 2139SOL     OW 7100   1.378   2.922   2.250 -0.4518  0.4760 -0.3627
 2139SOL    HW1 7101   1.427   2.924   2.168  0.1073  1.9874 -0.0221
 2139SOL    HW2 7102   1.348   2.831   2.258  1.1651 -0.1714 -1.2278
 2140SOL     OW 7103   5.569   5.770   4.590  0.6076  0.1551 -0.2332
 2140SOL    HW1 7104   5.601   5.704   4.652  0.6597  0.0311 -0.3912
 2140SOL    HW2 7105   5.566   5.851   4.641  2.5046  0.4843 -0.5370
 2141SOL     OW 7106   2.095   0.706   5.027  0.0885  0.1543 -0.0232
 2141SOL    HW1 7107   2.102   0.630   4.969 -0.8844 -0.7228  0.9617
 2141SOL    HW2 7108   2.145   0.682   5.105 -0.4144  0.4159  0.3918
 2142SOL     OW 7109   4.831   5.133   3.122  0.1947 -0.5231  0.0360
 2142SOL    HW1 7110   4.816   5.039   3.115 -1.4343 -0.3470  0.7841
 2142SOL    HW2 7111   4.918   5.146   3.084  1.4297 -2.6282  1.8771
 2143SOL     OW 7112   2.734   4.879   1.353 -0.2028  0.0061  0.4594
 2143SOL    HW1 7113   2.782   4.869   1.271 -0.0565 -0.3025  0.5792
 2143SOL    HW2 7114   2.763   4.963   1.388  0.7677 -0.4777  0.8604
 2144SOL     OW 7115   6.373   0.865   1.055 -0.3538 -0.4760  0.3724
 2144SOL    HW1 7116   6.360   0.952   1.017 -1.7544 -1.1237 -0.7074
 2144SOL    HW2 7117   6.394   0.882   1.147  1.6161  1.0794 -0.2851
 2145SOL     OW 7118   4.624   5.544   3.665 -0.7879  0.2279  0.0601
 2145SOL    HW1 7119   4.718   5.548   3.684 -0.8229  1.2422  0.0740
 2145SOL    HW2 7120   4.606   5.451   3.655  0.3932  0.0718 -0.8171
 2146SOL     OW 7121   4.518   4.369   5.617 -0.0808 -0.2674  0.4512
 2146SOL    HW1 7122   4.461   4.420   5.560 -1.1051 -2.3819 -0.5539
 2146SOL    HW2 7123   4.537   4.289   5.567  2.7667 -0.2144  1.2894
 2147SOL     OW 7124   3.825   3.775   5.499  1.0714 -0.4496  0.0025
 2147SOL    HW1 7125   3.850   3.866   5.512  0.8879 -0.2060 -1.2476
 2147SOL    HW2 7126   3.880   3.726   5.560  0.7328  0.5353  1.1410
 2148SOL     OW 7127   0.361   4.706   2.681  0.0162  0.1869 -0.1146
 2148SOL    HW1 7128   0.420   4.781   2.680  1.8361 -1.1957 -1.3741
 2148SOL    HW2 7129   0.382   4.660   2.763  0.5806 -0.2225 -0.4889
 2149SOL     OW 7130   0.284   1.888   1.900 -0.1292 -0.1811  0.6593
 2149SOL    HW1 7131   0.230   1.920   1.972  1.9759  1.4239  1.6264
 2149SOL    HW2 7132   0.374   1.891   1.934  0.9482  0.6651 -2.0138
 2150SOL     OW 7133   1.560   3.550   6.247 -0.7106 -0.2252  0.4154
 2150SOL    HW1 7134   1.490   3.551   6.182  1.8684  2.5206 -2.7229
 2150SOL    HW2 7135   1.547   3.630   6.298 -1.1631 -0.9635  1.4938
 2151SOL     OW 7136   5.803   3.873   3.260  0.0129  0.0577  0.6437
 2151SOL    HW1 7137   5.887   3.896   3.220 -1.2973  0.1733 -2.3168
 2151SOL    HW2 7138   5.787   3.942   3.324  0.1629  2.7477 -1.9698
 2152SOL     OW 7139   5.441   6.445   4.733 -0.0002  0.2482  0.1357
 2152SOL    HW1 7140   5.366   6.491   4.772  0.0960 -0.3328  1.0391
 2152SOL    HW2 7141   5.498   6.426   4.808 -0.9051 -3.0276  0.1503
 2153SOL     OW 7142   5.426   4.303   1.000 -0.2901  0.1476 -0.1450
 2153SOL    HW1 7143   5.497   4.291   1.063 -1.1047  0.8595  0.9303
 2153SOL    HW2 7144   5.415   4.397   0.994 -1.0769  0.0419 -0.3839
 2154SOL     OW 7145   6.109   0.178   4.551  0.0686 -0.2693 -0.2065
 2154SOL    HW1 7146   6.062   0.102   4.584 -0.7794  0.3915  0.1615
 2154SOL    HW2 7147   6.041   0.244   4.536  0.6230 -0.0216 -1.7892
 2155SOL     OW 7148   5.641   5.272   5.221 -0.2220  0.5035 -0.0784
 2155SOL    HW1 7149   5.662   5.267   5.128  2.0701  1.7022  0.2970
 2155SOL    HW2 7150   5.571   5.337   5.227  0.6837  1.5803 -0.8573
 2156SOL     OW 7151   4.702   1.763   0.877  0.1495  0.0465 -0.9362
 2156SOL    HW1 7152   4.700   1.669   0.896  0.2754  0.5764  2.1539
 2156SOL    HW2 7153   4.773   1.797   0.932 -2.2209  2.4453  0.8755
 2157SOL     OW 7154   2.746   5.354   2.562 -0.0291  0.5591 -0.4658
 2157SOL    HW1 7155   2.773   5.387   2.648  1.4418  1.0075 -1.0734
 2157SOL    HW2 7156   2.748   5.259   2.571  2.0496  0.5480 -0.5181
 2158SOL     OW 7157   3.446   4.663   4.408 -0.0252 -0.1067 -0.3780
 2158SOL    HW1 7158   3.391   4.636   4.482 -1.1607  0.9978 -0.7787
 2158SOL    HW2 7159   3.435   4.758   4.403  1.4409  0.0544 -0.8780
 2159SOL     OW 7160   2.942   5.471   2.796  0.2491 -0.0207 -0.4127
 2159SOL    HW1 7161   2.953   5.429   2.881  3.3436  3.1381  1.0263
 2159SOL    HW2 7162   3.008   5.429   2.740  0.9145  0.5064 -0.0371
 2160SOL     OW 7163   3.747   6.263   2.047  0.0890 -0.1063 -0.2790
 2160SOL    HW1 7164   3.790   6.297   1.968 -1.6569 -1.7955 -2.0946
 2160SOL    HW2 7165   3.662   6.308   2.049 -0.2771 -0.7977  0.0629
 2161SOL     OW 7166   1.517   5.044   0.606  0.5115  0.4876 -0.3114
 2161SOL    HW1 7167   1.462   4.983   0.556  1.5523 -0.3886 -0.4248
 2161SOL    HW2 7168   1.460   5.119   0.623 -0.2421  0.2748 -1.7542
 2162SOL     OW 7169   6.504   5.432   4.248  0.1189 -0.0724 -0.4128
 2162SOL    HW1 7170   6.414   5.414   4.221  0.0122 -0.8537  0.4044
 2162SOL    HW2 7171   6.541   5.484   4.176 -0.6550 -0.6450 -1.2543
 2163SOL     OW 7172   3.979   1.021   5.903 -0.1911 -0.2898  0.2640
 2163SOL    HW1 7173   3.919   1.095   5.916 -1.3026 -0.8359 -1.4508
 2163SOL    HW2 7174   4.026   1.042   5.822  2.4120  0.3816  1.8361
 2164SOL     OW 7175   3.560   4.086   0.535  0.2168  0.2062 -0.3612
 2164SOL    HW1 7176   3.605   4.122   0.611  1.3439 -2.1028  0.1686
 2164SOL    HW2 7177   3.629   4.046   0.482 -0.8993 -1.2548 -0.7930
 2165SOL     OW 7178   3.384   0.796   3.446 -0.0794 -0.0013 -0.0350
 2165SOL    HW1 7179   3.463   0.845   3.421 -0.9018  0.7016 -1.3133
 2165SOL    HW2 7180   3.332   0.792   3.367 -1.3635 -0.4279  0.8077
 2166SOL     OW 7181   3.086   0.215   1.478 -0.5203  0.0339  0.3160
 2166SOL    HW1 7182   3.007   0.268   1.468  0.1599  0.9568 -0.3745
 2166SOL    HW2 7183   3.062   0.147   1.541 -1.5483  0.9107  0.9012
 2167SOL     OW 7184   1.764   4.810   5.405  0.4578  0.7263 -0.1092
 2167SOL    HW1 7185   1.836   4.748   5.393  0.8734  1.3971 -1.1733
 2167SOL    HW2 7186   1.746   4.807   5.499 -0.3565 -1.9017 -0.2722
 2168SOL     OW 7187   6.276   4.918   0.694  0.0405 -0.5247 -0.4891
 2168SOL    HW1 7188   6.239   4.967   0.621  1.6885 -0.0752 -1.0798
 2168SOL    HW2 7189   6.270   4.977   0.769 -2.4930 -1.3244  0.0260
 2169SOL     OW 7190   2.276   3.153   0.143  0.1782 -0.3454  0.4600
 2169SOL    HW1 7191   2.370   3.167   0.126  0.2152 -0.2969  0.6894
 2169SOL    HW2 7192   2.249   3.232   0.190 -0.1382 -0.0559 -0.2104
 2170SOL     OW 7193   1.561   2.325   3.761  0.1740  0.4406 -0.1781
 2170SOL    HW1 7194   1.534   2.252   3.705 -0.6798  1.4464 -1.1171
 2170SOL    HW2 7195   1.480   2.375   3.775  0.8630  1.5458 -0.0622
 2171SOL     OW 7196   2.976   2.178   4.514  0.8038  0.0134 -0.3710
 2171SOL    HW1 7197   2.975   2.110   4.582 -0.3021 -0.1599 -0.5375
 2171SOL    HW2 7198   2.884   2.204   4.505  1.1320  1.0632 -0.7841
 2172SOL     OW 7199   3.261   3.385   3.898 -0.3970  0.0590 -0.1074
 2172SOL    HW1 7200   3.273   3.461   3.841  1.2593 -0.3933 -0.4089
 2172SOL    HW2 7201   3.310   3.406   3.977  0.5643 -0.8952 -0.4211
 2173SOL     OW 7202   3.586   5.444   1.125 -0.0939  0.1733  0.5423
 2173SOL    HW1 7203   3.531   5.369   1.101  0.8867 -0.1804 -0.7211
 2173SOL    HW2 7204   3.538   5.520   1.092 -1.3165  0.1913  2.2271
 2174SOL     OW 7205   1.496   3.887   0.507 -0.3965 -0.4150 -0.0330
 2174SOL    HW1 7206   1.558   3.892   0.434  0.1463  0.2361  0.4552
 2174SOL    HW2 7207   1.534   3.823   0.567 -0.0144  0.2149  0.4154
 2175SOL     OW 7208   2.775   6.214   6.048  0.3038 -0.0188  0.1216
 2175SOL    HW1 7209   2.855   6.264   6.065  1.3124 -0.7650 -2.0578
 2175SOL    HW2 7210   2.798   6.124   6.073 -0.4757  0.0293  1.1095
 2176SOL     OW 7211   0.005   5.444   4.527  0.5124  0.2117  0.0909
 2176SOL    HW1 7212   0.099   5.460   4.538  0.3428  1.3463  0.0425
 2176SOL    HW2 7213  -0.008   5.447   4.432  0.5755 -0.9147  0.0393
 2177SOL     OW 7214   0.029   5.737   4.400 -0.3863  0.4994  0.4439
 2177SOL    HW1 7215   0.080   5.774   4.472  1.0231  0.6638 -0.6032
 2177SOL    HW2 7216  -0.061   5.762   4.421 -0.3523 -1.2319  3.2211
 2178SOL     OW 7217   5.122   6.255   0.442  0.0946 -0.5819 -0.3306
 2178SOL    HW1 7218   5.160   6.177   0.402 -0.7872 -1.2361  0.0589
 2178SOL    HW2 7219   5.195   6.297   0.488  0.8165 -0.5660 -1.4685
 2179SOL     OW 7220   3.667   3.756   3.406 -0.4591 -0.0046  0.2090
 2179SOL    HW1 7221   3.607   3.781   3.335 -1.6117 -0.3246  1.0349
 2179SOL    HW2 7222   3.613   3.702   3.464  0.5550 -0.0197  1.1640
 2180SOL     OW 7223   1.172   2.686   0.199 -0.3276 -0.2062 -0.1756
 2180SOL    HW1 7224   1.173   2.690   0.294 -1.3549  0.6072 -0.1846
 2180SOL    HW2 7225   1.236   2.752   0.172  1.7483 -2.0504 -0.0677
 2181SOL     OW 7226   0.896   0.328   4.168 -0.1786 -0.5888 -0.6140
 2181SOL    HW1 7227   0.984   0.342   4.132  0.1233  0.1485  0.3700
 2181SOL    HW2 7228   0.899   0.242   4.209 -0.2818 -1.0776 -1.5960
 2182SOL     OW 7229   2.628   4.772   6.311  0.9879 -0.0552  0.5515
 2182SOL    HW1 7230   2.623   4.690   6.263  0.4269 -0.0625  0.6127
 2182SOL    HW2 7231   2.559   4.766   6.376 -0.4190  1.2793 -0.7248
 2183SOL     OW 7232   0.179   6.060   2.995  0.3053 -0.8607 -0.5143
 2183SOL    HW1 7233   0.179   6.150   3.027 -1.2784 -0.5169 -1.3944
 2183SOL    HW2 7234   0.087   6.038   2.984  0.7097 -1.5579 -3.0835
 2184SOL     OW 7235   4.344   0.778   0.190 -0.5724 -0.3045 -0.4988
 2184SOL    HW1 7236   4.305   0.701   0.232 -1.4486  0.1478 -0.4457
 2184SOL    HW2 7237   4.300   0.852   0.232 -1.4322  0.1671 -2.1619
 2185SOL     OW 7238   5.196   1.288   0.288 -0.0068  0.0534 -0.1585
 2185SOL    HW1 7239   5.164   1.203   0.256 -1.1148  0.0192  0.9588
 2185SOL    HW2 7240   5.119   1.345   0.284  0.6878  0.9725 -0.7264
 2186SOL     OW 7241   3.873   5.455   2.146 -0.1358  0.3629  0.2627
 2186SOL    HW1 7242   3.962   5.488   2.156  0.1003 -0.3840  0.6679
 2186SOL    HW2 7243   3.881   5.381   2.086 -0.6435  0.9244 -0.5266
 2187SOL     OW 7244   3.148   4.598   1.925  0.2519 -0.2865 -0.1774
 2187SOL    HW1 7245   3.230   4.605   1.973 -0.4449  1.9592  0.8396
 2187SOL    HW2 7246   3.174   4.579   1.835  1.8001 -0.5983  0.3047
 2188SOL     OW 7247   5.137   4.762   4.870  0.0996 -0.3059  0.0621
 2188SOL    HW1 7248   5.177   4.824   4.810 -0.4920  0.0165 -0.0127
 2188SOL    HW2 7249   5.174   4.784   4.956 -1.1378  1.0991  0.2845
 2189SOL     OW 7250   3.335   0.480   4.994 -0.7198  0.2680 -0.0217
 2189SOL    HW1 7251   3.409   0.476   5.054 -0.6292  0.3032 -0.1310
 2189SOL    HW2 7252   3.361   0.543   4.927 -0.6050 -0.1510 -0.3825
 2190SOL     OW 7253   3.079   0.525   4.599  0.6134  0.0066 -0.2237
 2190SOL    HW1 7254   3.094   0.576   4.679  1.3852  1.0668 -1.0028
 2190SOL    HW2 7255   3.031   0.584   4.541  0.8310 -0.4269 -0.8609
 2191SOL     OW 7256   0.623   4.296   5.346  0.3664  0.0567 -0.2273
 2191SOL    HW1 7257   0.698   4.294   5.405 -0.6041 -0.3695  1.0235
 2191SOL    HW2 7258   0.593   4.387   5.350  0.2682  0.0158 -0.0097
 2192SOL     OW 7259   4.826   2.868   4.386 -0.3144  0.1588 -0.0357
 2192SOL    HW1 7260   4.787   2.955   4.382  0.2609  0.4149 -0.1572
 2192SOL    HW2 7261   4.892   2.867   4.317 -1.5057 -0.9871 -1.2154
 2193SOL     OW 7262   5.454   1.634   5.101  0.0967 -0.8003 -0.1143
 2193SOL    HW1 7263   5.439   1.662   5.011 -2.4685 -0.9760  0.2054
 2193SOL    HW2 7264   5.505   1.553   5.093  3.4839  1.2275 -1.1765
 2194SOL     OW 7265   1.445   2.133   2.721  0.1729 -0.4623 -0.4243
 2194SOL    HW1 7266   1.458   2.212   2.668 -0.0674  0.0771  0.3043
 2194SOL    HW2 7267   1.475   2.158   2.808 -1.7543 -0.5255  0.3015
 2195SOL     OW 7268   4.041   3.647   2.316  0.0395 -0.8234 -0.3756
 2195SOL    HW1 7269   4.038   3.552   2.325 -0.7711 -0.7268  0.5448
 2195SOL    HW2 7270   3.950   3.672   2.301  0.2014 -0.1623 -0.2580
 2196SOL     OW 7271   5.530   2.779   3.636  0.3238 -0.2946  0.1385
 2196SOL    HW1 7272   5.549   2.837   3.563  0.9113  0.3984  0.8351
 2196SOL    HW2 7273   5.554   2.828   3.714  1.9551 -1.8774  0.7131
 2197SOL     OW 7274   3.943   1.053   1.321  0.4029  0.0241 -0.4058
 2197SOL    HW1 7275   3.976   0.993   1.388 -0.5487  0.2357  0.2809
 2197SOL    HW2 7276   4.021   1.084   1.276  0.9085 -1.9404 -0.9826
 2198SOL     OW 7277   1.180   3.810   5.132  0.0669 -0.6096  0.2875
 2198SOL    HW1 7278   1.098   3.852   5.159 -0.3736 -0.9800 -0.4299
 2198SOL    HW2 7279   1.246   3.846   5.191 -0.5228  0.0845  0.5436
 2199SOL     OW 7280   4.088   2.434   0.954  0.1969 -0.2498  0.4330
 2199SOL    HW1 7281   4.002   2.438   0.913  0.3748  1.1345  0.1585
 2199SOL    HW2 7282   4.081   2.363   1.018 -1.1225 -0.1964  0.3675
 2200SOL     OW 7283   5.641   3.366   6.213  0.5195 -0.1272  0.7737
 2200SOL    HW1 7284   5.590   3.434   6.257  1.1868 -0.7014  2.5279
 2200SOL    HW2 7285   5.575   3.309   6.173 -0.1923 -0.1391  1.9177
 2201SOL     OW 7286   3.067   2.591   0.998  0.5912  0.3508  0.0973
 2201SOL    HW1 7287   3.151   2.637   1.001  0.4726  0.6332 -0.6963
 2201SOL    HW2 7288   3.083   2.508   1.043  1.6431 -0.1439 -1.1217
 2202SOL     OW 7289   3.898   5.030   4.510 -0.0775 -0.2251  0.6113
 2202SOL    HW1 7290   3.838   5.034   4.435  1.0459  1.4178 -0.2877
 2202SOL    HW2 7291   3.867   4.957   4.563 -0.4313 -2.0085 -1.8869
 2203SOL     OW 7292   4.917   0.742   1.371  0.1069 -0.5081 -0.6509
 2203SOL    HW1 7293   4.993   0.720   1.317  0.1936 -4.4011  0.7577
 2203SOL    HW2 7294   4.842   0.736   1.311  0.5553 -0.5319 -1.2152
 2204SOL     OW 7295   2.351   5.072   3.960  0.0392 -0.0812  0.2502
 2204SOL    HW1 7296   2.345   5.019   3.881  0.8910  0.4278 -0.1715
 2204SOL    HW2 7297   2.398   5.017   4.023  0.8182  0.1097 -0.1474
 2205SOL     OW 7298   5.767   3.415   0.154 -0.3991 -0.2006 -0.0690
 2205SOL    HW1 7299   5.742   3.337   0.205  0.2809  0.3780  1.1907
 2205SOL    HW2 7300   5.804   3.380   0.074 -1.9479 -1.1403 -0.4290
 2206SOL     OW 7301   5.971   4.485   4.353 -0.2986  0.2396  0.0490
 2206SOL    HW1 7302   6.047   4.528   4.314 -0.1136  0.2260  0.3888
 2206SOL    HW2 7303   6.005   4.444   4.433 -0.9915  1.6560  1.1150
 2207SOL     OW 7304   1.134   0.951   4.436  0.0124  0.0489 -0.2062
 2207SOL    HW1 7305   1.107   0.922   4.350  0.3120  1.0916 -0.6688
 2207SOL    HW2 7306   1.198   0.886   4.464  1.0005  0.4619 -1.4038
 2208SOL     OW 7307   2.479   2.949   5.809  0.0281  0.8500 -0.4196
 2208SOL    HW1 7308   2.440   3.030   5.777  0.6954  1.2452 -0.2474
 2208SOL    HW2 7309   2.417   2.918   5.876 -0.3605  1.0731 -0.6717
 2209SOL     OW 7310   1.603   2.683   2.850 -0.3287  0.7599 -0.1824
 2209SOL    HW1 7311   1.567   2.753   2.905  0.5102  1.9150 -1.0722
 2209SOL    HW2 7312   1.528   2.652   2.798 -0.1596  3.0602 -1.9336
 2210SOL     OW 7313   1.842   0.996   1.338 -0.0028 -0.0743 -0.1312
 2210SOL    HW1 7314   1.756   0.976   1.375  0.0079 -0.7484 -0.4610
 2210SOL    HW2 7315   1.870   1.075   1.385 -0.6354 -0.0606  0.2406
 2211SOL     OW 7316   5.742   6.504   0.594  0.2852  0.1037 -0.2179
 2211SOL    HW1 7317   5.741   6.592   0.557  1.1339 -0.7630 -2.5031
 2211SOL    HW2 7318   5.830   6.471   0.575 -0.1837 -1.4181  0.0822
 2212SOL     OW 7319   4.752   2.782   4.820 -0.0875 -0.0774 -0.0270
 2212SOL    HW1 7320   4.728   2.871   4.794  1.7121  0.4098 -0.1676
 2212SOL    HW2 7321   4.751   2.732   4.739 -0.4534 -0.0190 -0.0578
 2213SOL     OW 7322   4.455   3.980   2.626  0.2457  0.2384 -0.1472
 2213SOL    HW1 7323   4.535   3.983   2.680 -1.3444 -0.8566  2.4728
 2213SOL    HW2 7324   4.455   3.892   2.589  0.6932  0.5560 -0.9209
 2214SOL     OW 7325   4.244   4.619   5.192  0.5818 -0.2160 -0.0285
 2214SOL    HW1 7326   4.338   4.609   5.206  0.6817 -1.5722 -1.3441
 2214SOL    HW2 7327   4.232   4.711   5.170  1.3436  0.3502  1.8186
 2215SOL     OW 7328   0.760   1.569   0.367  0.3614 -1.2913 -0.2577
 2215SOL    HW1 7329   0.741   1.495   0.425 -0.7002 -1.4373 -0.7736
 2215SOL    HW2 7330   0.728   1.541   0.281 -0.4934 -0.0714 -0.3611
 2216SOL     OW 7331   5.158   3.728   3.468  0.2429  0.1895 -0.7926
 2216SOL    HW1 7332   5.121   3.779   3.540 -0.0646 -0.7073 -0.2954
 2216SOL    HW2 7333   5.082   3.706   3.413  0.0278 -1.3706  0.0517
 2217SOL     OW 7334   5.235   5.644   5.456  0.2508 -0.6184 -0.0010
 2217SOL    HW1 7335   5.277   5.634   5.541  0.1291  0.6278  0.2195
 2217SOL    HW2 7336   5.214   5.554   5.429 -0.0113 -1.0011  1.4237
 2218SOL     OW 7337   4.845   2.440   1.671 -0.0241  0.1599 -0.4315
 2218SOL    HW1 7338   4.907   2.425   1.600  1.4367  1.9513  0.3587
 2218SOL    HW2 7339   4.895   2.492   1.735 -2.0084  0.6694  0.7822
 2219SOL     OW 7340   2.196   1.790   2.968 -0.4300  0.0795 -0.1896
 2219SOL    HW1 7341   2.213   1.698   2.948  0.6024  0.3753 -0.7722
 2219SOL    HW2 7342   2.160   1.827   2.887 -1.6261  0.0145  0.2971
 2220SOL     OW 7343   3.259   3.351   5.984  0.1899 -0.0083 -0.4231
 2220SOL    HW1 7344   3.349   3.329   5.958  0.4900  1.0320 -0.2834
 2220SOL    HW2 7345   3.205   3.288   5.936  1.0358 -1.2680  0.2149
 2221SOL     OW 7346   3.495   0.184   2.630 -0.3658 -0.1526 -0.4462
 2221SOL    HW1 7347   3.431   0.249   2.601 -1.3360 -1.7068 -1.9530
 2221SOL    HW2 7348   3.506   0.126   2.555  0.6194 -1.6174  0.7685
 2222SOL     OW 7349   4.927   6.081   5.440 -0.4284  0.1419  0.0568
 2222SOL    HW1 7350   4.978   6.023   5.497 -0.2258  1.0075  0.7777
 2222SOL    HW2 7351   4.992   6.135   5.396 -0.6313  0.0190 -0.4000
 2223SOL     OW 7352   2.441   1.826   3.122 -0.2795 -0.3442  0.4250
 2223SOL    HW1 7353   2.402   1.794   3.204 -2.1139  0.1651 -0.2101
 2223SOL    HW2 7354   2.377   1.804   3.055  0.5262  0.5629 -0.6712
 2224SOL     OW 7355   2.547   0.363   4.798  0.5934 -0.0424 -0.1402
 2224SOL    HW1 7356   2.511   0.393   4.714  0.2708 -1.1800 -0.4255
 2224SOL    HW2 7357   2.519   0.430   4.861  0.0509  0.3465 -0.7733
 2225SOL     OW 7358   0.520   6.344   0.644  0.7509 -0.1902  0.0228
 2225SOL    HW1 7359   0.547   6.436   0.650  1.4739 -0.3263 -0.9651
 2225SOL    HW2 7360   0.537   6.308   0.731 -0.3137  0.8009  0.6729
 2226SOL     OW 7361   0.305   1.264   3.594 -0.1281 -0.0413 -0.5773
 2226SOL    HW1 7362   0.333   1.236   3.681  0.7905 -0.6016 -1.0313
 2226SOL    HW2 7363   0.217   1.227   3.583  0.5230 -1.6738 -0.6360
 2227SOL     OW 7364   2.371   4.583   1.692  0.3608 -0.1624 -0.2914
 2227SOL    HW1 7365   2.402   4.504   1.737  0.3589  0.4041  0.7339
 2227SOL    HW2 7366   2.380   4.563   1.599 -0.0528 -1.5463 -0.0621
 2228SOL     OW 7367   4.822   2.062   3.383 -0.2868 -0.1266 -0.1862
 2228SOL    HW1 7368   4.849   2.093   3.470  1.2367 -0.1814 -0.6160
 2228SOL    HW2 7369   4.749   2.120   3.359  0.4969  1.1266  0.3440
 2229SOL     OW 7370   6.493   0.384   1.768  0.1468  0.0271  0.9073
 2229SOL    HW1 7371   6.520   0.468   1.805 -1.4400  0.2126  1.7739
 2229SOL    HW2 7372   6.507   0.394   1.674  1.4535  0.6694  1.1432
 2230SOL     OW 7373   5.538   4.105   6.200  0.2290  0.2377  0.1778
 2230SOL    HW1 7374   5.571   4.110   6.110 -0.1007  0.0777  0.0456
 2230SOL    HW2 7375   5.614   4.122   6.255 -0.1671  3.9286 -0.1398
 2231SOL     OW 7376   5.678   0.880   0.098 -0.2652 -0.7807  0.5399
 2231SOL    HW1 7377   5.653   0.848   0.185 -0.0402 -0.2200  0.8139
 2231SOL    HW2 7378   5.772   0.897   0.105 -0.6401  1.3781  0.8638
 2232SOL     OW 7379   5.054   5.469   2.560 -0.4132  0.7703 -0.0607
 2232SOL    HW1 7380   4.977   5.517   2.531 -0.7181 -0.0097 -0.5771
 2232SOL    HW2 7381   5.020   5.382   2.584  0.0734  0.8932  1.1542
 2233SOL     OW 7382   3.552   1.223   4.696 -1.0858  0.2213  0.1760
 2233SOL    HW1 7383   3.551   1.142   4.746  1.8200 -0.4656 -0.6680
 2233SOL    HW2 7384   3.645   1.247   4.691 -1.6020  2.1255 -1.8897
 2234SOL     OW 7385   5.011   0.870   3.956 -0.1645  0.6930 -0.6284
 2234SOL    HW1 7386   4.996   0.812   3.881  0.8965 -2.1816  1.2178
 2234SOL    HW2 7387   4.927   0.871   4.002  0.4525 -1.6850  0.7267
 2235SOL     OW 7388   1.699   0.951   2.835 -0.3613 -0.0203 -0.1243
 2235SOL    HW1 7389   1.647   0.903   2.899  1.1933 -0.2755  1.0259
 2235SOL    HW2 7390   1.673   1.042   2.846 -1.7988 -0.3197 -0.8233
 2236SOL     OW 7391   2.277   1.069   3.721 -0.1694 -0.5899  0.6646
 2236SOL    HW1 7392   2.236   1.089   3.805 -0.4377 -3.5753  1.3671
 2236SOL    HW2 7393   2.320   0.984   3.735 -0.0063 -1.0661 -2.1447
 2237SOL     OW 7394   2.175   1.667   0.513 -0.1668 -0.1048 -0.4139
 2237SOL    HW1 7395   2.148   1.640   0.425 -2.4719  1.3987 -0.2581
 2237SOL    HW2 7396   2.153   1.760   0.517  1.5403  0.2896  1.2016
 2238SOL     OW 7397   3.285   3.755   3.950  0.1604  0.4203 -0.0034
 2238SOL    HW1 7398   3.377   3.738   3.930  0.1612  0.2692  0.1246
 2238SOL    HW2 7399   3.285   3.778   4.043 -0.0095 -0.2079  0.1562
 2239SOL     OW 7400   3.625   4.654   1.248 -0.3894  0.0453  0.2185
 2239SOL    HW1 7401   3.627   4.749   1.240  1.3016  0.1081  0.9762
 2239SOL    HW2 7402   3.716   4.630   1.266 -1.0503 -1.5686  1.5863
 2240SOL     OW 7403   0.555   4.320   1.888 -0.4432 -0.0006  0.1569
 2240SOL    HW1 7404   0.577   4.413   1.897 -1.0634  0.1333  0.3138
 2240SOL    HW2 7405   0.495   4.303   1.960  0.7070 -0.8583  0.9440
 2241SOL     OW 7406   4.583   1.879   0.681 -0.1680  0.0026 -0.4846
 2241SOL    HW1 7407   4.569   1.970   0.708  0.4089  0.1577 -0.7052
 2241SOL    HW2 7408   4.605   1.833   0.762  4.0702  0.9474 -0.9073
 2242SOL     OW 7409   1.248   0.169   5.859 -0.2988  0.5997 -0.2528
 2242SOL    HW1 7410   1.171   0.218   5.889 -0.0787  0.4276  0.6345
 2242SOL    HW2 7411   1.308   0.170   5.934  0.1524 -0.1032 -0.5889
 2243SOL     OW 7412   6.292   2.020   6.341  0.3470 -0.8290 -0.5142
 2243SOL    HW1 7413   6.288   2.036   6.435  0.1880 -1.1250 -0.4662
 2243SOL    HW2 7414   6.217   1.963   6.324 -0.4246  0.2976 -1.0410
 2244SOL     OW 7415   3.835   4.747   2.213 -0.1222  0.0721 -0.6837
 2244SOL    HW1 7416   3.853   4.815   2.277  1.8943  1.3143 -2.4294
 2244SOL    HW2 7417   3.900   4.679   2.232 -0.7110 -0.3891 -0.2970
 2245SOL     OW 7418   6.128   6.104   4.819 -0.2313  0.8836 -0.3455
 2245SOL    HW1 7419   6.139   6.151   4.901 -1.2919  1.8502 -0.7307
 2245SOL    HW2 7420   6.114   6.013   4.845  1.1223  0.8861  0.4433
 2246SOL     OW 7421   1.942   0.767   0.645  0.4398 -0.5144 -0.6801
 2246SOL    HW1 7422   1.901   0.827   0.583  1.1363  1.4657  0.6891
 2246SOL    HW2 7423   1.926   0.807   0.730  0.4593 -2.5991  0.3547
 2247SOL     OW 7424   2.129   1.180   5.435  0.5689  0.1386 -0.2769
 2247SOL    HW1 7425   2.174   1.186   5.351  0.2000 -1.9294 -0.6662
 2247SOL    HW2 7426   2.183   1.121   5.487 -1.4608 -2.2697 -0.6909
 2248SOL     OW 7427   3.733   1.533   0.954  0.9167 -0.0178 -0.1223
 2248SOL    HW1 7428   3.777   1.609   0.915  0.9051 -0.3898 -0.8854
 2248SOL    HW2 7429   3.640   1.549   0.939  0.9529 -0.5678 -1.0526
 2249SOL     OW 7430   4.823   3.170   2.472 -0.3715 -0.4068  0.6084
 2249SOL    HW1 7431   4.755   3.127   2.523 -1.2577 -0.3275 -0.4679
 2249SOL    HW2 7432   4.776   3.221   2.407  0.7071 -1.3070 -0.9621
 2250SOL     OW 7433   0.165   3.807   2.036  0.2156 -0.5379  0.1415
 2250SOL    HW1 7434   0.109   3.766   1.971  2.9993  0.4892 -3.1809
 2250SOL    HW2 7435   0.133   3.897   2.043 -0.3082 -0.7492  0.5040
 2251SOL     OW 7436   3.281   2.371   4.704  0.7047  0.4906 -0.5571
 2251SOL    HW1 7437   3.262   2.281   4.677  1.5143  0.8320 -2.4703
 2251SOL    HW2 7438   3.319   2.363   4.791  0.6655 -1.0209 -0.6575
 2252SOL     OW 7439   6.057   3.390   5.050 -0.5462  0.3572 -0.2384
 2252SOL    HW1 7440   5.969   3.425   5.042 -0.1540  1.1319 -1.5465
 2252SOL    HW2 7441   6.101   3.416   4.969  0.5182 -1.0753 -0.1773
 2253SOL     OW 7442   5.332   2.642   1.357 -0.0248  0.0693 -0.2817
 2253SOL    HW1 7443   5.388   2.719   1.355  0.7285 -0.4741 -0.7673
 2253SOL    HW2 7444   5.251   2.672   1.399  0.0921  1.2245 -0.8273
 2254SOL     OW 7445   1.836   1.055   2.025 -0.3412  0.1105 -0.8461
 2254SOL    HW1 7446   1.774   1.026   1.959  0.7268 -0.5111 -1.6071
 2254SOL    HW2 7447   1.920   1.020   1.996  0.3046  0.5939  0.3641
 2255SOL     OW 7448   1.756   5.935   3.755  0.3081  0.1525 -0.8808
 2255SOL    HW1 7449   1.806   5.937   3.837  1.3802 -1.1368 -1.4586
 2255SOL    HW2 7450   1.688   5.870   3.770  0.6632 -0.2731 -1.0803
 2256SOL     OW 7451   4.684   5.924   6.378  0.3092 -0.2035  0.0071
 2256SOL    HW1 7452   4.750   5.961   6.437  0.6858 -0.6235 -0.1511
 2256SOL    HW2 7453   4.704   5.831   6.374  1.0615 -0.0135 -1.7479
 2257SOL     OW 7454   0.122   4.320   1.166  0.2318  0.5096 -0.1411
 2257SOL    HW1 7455   0.136   4.247   1.106  0.8364  0.7572 -0.3165
 2257SOL    HW2 7456   0.027   4.331   1.170  0.1702  1.9188 -2.8649
 2258SOL     OW 7457   1.889   2.219   2.201  0.1361 -0.4861  0.7768
 2258SOL    HW1 7458   1.845   2.226   2.285 -0.6455  0.9053  0.2917
 2258SOL    HW2 7459   1.885   2.308   2.164 -0.6747 -1.3020 -1.2631
 2259SOL     OW 7460   4.487   3.383   4.597 -0.3081 -0.0916  0.0989
 2259SOL    HW1 7461   4.504   3.309   4.656  0.6047 -0.2662 -0.3723
 2259SOL    HW2 7462   4.569   3.395   4.549 -0.7848  0.5698 -0.5651
 2260SOL     OW 7463   4.809   0.574   0.211 -0.6404 -0.6717 -0.5356
 2260SOL    HW1 7464   4.839   0.590   0.301  1.1832 -1.4252 -0.9776
 2260SOL    HW2 7465   4.728   0.524   0.222  0.8886 -3.0362  0.7099
 2261SOL     OW 7466   4.037   5.413   6.479  0.0770  0.0832 -0.1506
 2261SOL    HW1 7467   4.114   5.374   6.438  0.2054 -0.7217  0.8106
 2261SOL    HW2 7468   3.971   5.415   6.410  0.5672 -0.3881 -0.6416
 2262SOL     OW 7469   6.120   5.208   5.866 -0.0659 -0.4336  0.1445
 2262SOL    HW1 7470   6.059   5.234   5.797 -0.1261  1.2588  0.7692
 2262SOL    HW2 7471   6.065   5.165   5.932 -0.2856 -0.5471 -0.1126
 2263SOL     OW 7472   0.740   5.972   6.360  0.0385  0.2715  0.2569
 2263SOL    HW1 7473   0.783   6.007   6.438 -0.1354 -1.3462  1.1218
 2263SOL    HW2 7474   0.672   5.913   6.394 -1.6921  1.3835 -1.0877
 2264SOL     OW 7475   0.925   0.885   1.170  0.1396 -0.1369  0.2893
 2264SOL    HW1 7476   0.926   0.980   1.179  0.0716 -0.0987 -0.0986
 2264SOL    HW2 7477   0.880   0.869   1.087 -0.4302 -0.5334  0.6653
 2265SOL     OW 7478   3.717   6.140   1.022 -0.1127  0.3347  0.3515
 2265SOL    HW1 7479   3.676   6.225   1.040 -1.7072 -0.3656  0.1574
 2265SOL    HW2 7480   3.661   6.100   0.956  0.6166 -0.8889  0.4485
 2266SOL     OW 7481   4.564   5.922   6.112 -0.1865 -0.0335  0.3519
 2266SOL    HW1 7482   4.595   5.968   6.034 -0.3000  1.4511  1.1594
 2266SOL    HW2 7483   4.633   5.933   6.177  0.6605 -2.6541  0.0278
 2267SOL     OW 7484   6.058   6.463   1.920  0.0964  0.3245 -0.2529
 2267SOL    HW1 7485   6.090   6.522   1.851  0.4811 -1.4011 -1.6267
 2267SOL    HW2 7486   6.002   6.401   1.874 -1.5042  0.4620  1.3896
 2268SOL     OW 7487   0.878   0.657   5.203 -0.3386 -0.4589  0.4686
 2268SOL    HW1 7488   0.967   0.643   5.170 -0.3579 -0.4150  0.3977
 2268SOL    HW2 7489   0.825   0.673   5.125 -0.5644 -1.2981  0.4419
 2269SOL     OW 7490   1.712   5.346   2.699  0.1188  0.5867  0.1126
 2269SOL    HW1 7491   1.743   5.255   2.699 -2.3300 -0.3361  0.1066
 2269SOL    HW2 7492   1.699   5.367   2.607 -1.9022 -0.0768  0.2086
 2270SOL     OW 7493   2.333   3.868   0.188 -0.1905 -0.1241  0.2417
 2270SOL    HW1 7494   2.301   3.932   0.125  0.1081 -0.6846 -0.4984
 2270SOL    HW2 7495   2.259   3.850   0.245 -0.1455  1.2044  0.7363
 2271SOL     OW 7496   3.360   1.765   2.472 -0.5695  0.1875  0.7822
 2271SOL    HW1 7497   3.307   1.821   2.414 -0.7096 -1.2598 -0.5517
 2271SOL    HW2 7498   3.390   1.824   2.540 -0.8622  1.8634 -0.4663
 2272SOL     OW 7499   1.086   2.439   1.564  0.6035 -0.3196 -0.1781
 2272SOL    HW1 7500   1.031   2.494   1.508  0.2078 -0.7526 -0.2158
 2272SOL    HW2 7501   1.094   2.356   1.517  0.9069 -0.4223  0.0473
 2273SOL     OW 7502   2.657   5.442   2.153 -0.4607 -0.5638  0.3083
 2273SOL    HW1 7503   2.746   5.460   2.122 -0.2081  0.6983  1.6216
 2273SOL    HW2 7504   2.663   5.355   2.193  0.4103 -0.1663  1.0934
 2274SOL     OW 7505   1.234   5.229   5.927 -0.2925  0.2162  0.1008
 2274SOL    HW1 7506   1.241   5.240   5.832 -0.4147  1.3378  0.2017
 2274SOL    HW2 7507   1.309   5.173   5.951 -0.1790  0.0480 -0.6354
 2275SOL     OW 7508   0.644   0.116   2.494  0.4872  0.0612  0.3710
 2275SOL    HW1 7509   0.674   0.185   2.435 -1.3574 -1.2405 -2.3230
 2275SOL    HW2 7510   0.551   0.135   2.506  0.4532 -0.7319  1.4139
 2276SOL     OW 7511   3.369   0.091   3.276  0.4432  0.0551  0.3210
 2276SOL    HW1 7512   3.339   0.030   3.344  0.1674  0.7794  0.8558
 2276SOL    HW2 7513   3.371   0.038   3.197 -0.1908 -0.5547  0.6962
 2277SOL     OW 7514   2.433   5.623   2.059  0.1919  0.5523  0.4891
 2277SOL    HW1 7515   2.516   5.592   2.097 -0.0308  0.7508  1.1540
 2277SOL    HW2 7516   2.435   5.591   1.969  1.9167  2.2485 -0.1452
 2278SOL     OW 7517   5.272   4.484   2.926 -0.4880 -0.0114  0.2180
 2278SOL    HW1 7518   5.339   4.416   2.922  1.8728  2.2216 -1.3638
 2278SOL    HW2 7519   5.219   4.471   2.847 -1.6381 -1.4041  1.1617
 2279SOL     OW 7520   4.025   4.034   2.937  0.6313  0.1098 -0.0920
 2279SOL    HW1 7521   3.989   4.112   2.895 -0.1657 -0.9425 -1.4317
 2279SOL    HW2 7522   4.033   4.058   3.030 -2.6197  0.7699  0.1350
 2280SOL     OW 7523   5.577   4.718   0.989 -0.5709 -0.6308 -0.4763
 2280SOL    HW1 7524   5.601   4.789   1.048  0.8639 -2.5133  1.3453
 2280SOL    HW2 7525   5.574   4.759   0.902  2.2024  1.3046  0.1961
 2281SOL     OW 7526   0.796   2.387   0.652 -0.5349 -0.4222 -0.2376
 2281SOL    HW1 7527   0.781   2.440   0.573 -2.7448 -0.3302  0.1911
 2281SOL    HW2 7528   0.891   2.375   0.655 -0.1367  1.8830 -1.4159
 2282SOL     OW 7529   3.172   1.523   2.480  0.7217  0.3578  0.0495
 2282SOL    HW1 7530   3.197   1.499   2.391  0.4454  1.0221 -0.2151
 2282SOL    HW2 7531   3.231   1.594   2.503  0.3289  0.6673  0.1211
 2283SOL     OW 7532   4.045   2.466   2.337 -0.2648 -0.1756 -0.2266
 2283SOL    HW1 7533   4.082   2.397   2.283 -0.5153 -0.7116  0.2667
 2283SOL    HW2 7534   4.005   2.420   2.411 -0.6359  0.4807 -0.0014
 2284SOL     OW 7535   2.379   1.073   4.888  0.0829  0.5329  0.0559
 2284SOL    HW1 7536   2.468   1.102   4.868 -0.0504  1.2855  0.5303
 2284SOL    HW2 7537   2.323   1.146   4.862 -0.6672 -0.8383 -2.5751
 2285SOL     OW 7538   3.609   6.467   2.835 -0.2678 -0.2093 -1.0285
 2285SOL    HW1 7539   3.575   6.394   2.783  1.3046 -2.6061  1.0812
 2285SOL    HW2 7540   3.692   6.490   2.793 -0.3211 -0.2828 -1.1744
 2286SOL     OW 7541   2.478   1.615   5.547 -0.1215 -0.7255 -0.2154
 2286SOL    HW1 7542   2.475   1.525   5.580  0.7233 -0.3573  0.9343
 2286SOL    HW2 7543   2.572   1.636   5.545 -0.3014  0.0689 -0.6626
 2287SOL     OW 7544   0.319   6.012   3.937  0.0651  0.1482 -0.2261
 2287SOL    HW1 7545   0.400   5.961   3.935 -0.1728 -0.2660  0.2335
 2287SOL    HW2 7546   0.268   5.979   3.863  0.8297  1.3094 -1.3020
 2288SOL     OW 7547   3.978   0.549   1.488  0.1685  0.2850 -0.3307
 2288SOL    HW1 7548   3.979   0.498   1.408  0.0126 -1.5119  0.7533
 2288SOL    HW2 7549   3.907   0.512   1.540  1.4231  0.1173  1.3944
 2289SOL     OW 7550   0.809   2.794   4.417 -0.2299 -0.1198 -0.1004
 2289SOL    HW1 7551   0.748   2.794   4.490  1.7104 -2.8273  1.6771
 2289SOL    HW2 7552   0.878   2.856   4.443 -0.1900 -0.0983 -0.2548
 2290SOL     OW 7553   4.682   4.660   4.544  0.3690  0.5656  0.1704
 2290SOL    HW1 7554   4.731   4.580   4.563 -0.7223  0.0359  0.8657
 2290SOL    HW2 7555   4.717   4.691   4.461  0.0159 -1.2846 -0.6991
 2291SOL     OW 7556   5.652   1.384   2.109  0.5526 -0.1904 -0.1377
 2291SOL    HW1 7557   5.709   1.314   2.075 -0.0862 -1.6819  1.7073
 2291SOL    HW2 7558   5.577   1.384   2.049  1.1260 -0.2106 -0.8838
 2292SOL     OW 7559   5.287   3.992   0.534 -0.1813  0.0380  0.4078
 2292SOL    HW1 7560   5.207   4.001   0.585  0.2714  3.2729  0.7560
 2292SOL    HW2 7561   5.339   3.927   0.581 -1.1463  0.5129  2.1977
 2293SOL     OW 7562   2.949   1.466   5.928 -0.0843 -0.3688  0.4169
 2293SOL    HW1 7563   2.862   1.437   5.901 -0.5505  1.6233 -0.4291
 2293SOL    HW2 7564   2.933   1.543   5.983  1.0995 -1.0444  1.7860
 2294SOL     OW 7565   5.185   4.901   0.633 -0.0176  0.5682 -0.2690
 2294SOL    HW1 7566   5.209   4.994   0.630 -0.7015  0.7569 -0.1442
 2294SOL    HW2 7567   5.090   4.901   0.648 -0.2062 -0.1457 -1.3671
 2295SOL     OW 7568   6.378   1.994   1.870  0.0449 -0.6346  0.1140
 2295SOL    HW1 7569   6.457   2.030   1.830 -1.1593 -0.5425 -2.3839
 2295SOL    HW2 7570   6.309   2.056   1.846 -1.3013 -2.2763 -0.4754
 2296SOL     OW 7571   5.889   6.443   1.131 -0.2142  0.5174  0.1487
 2296SOL    HW1 7572   5.928   6.490   1.205  0.2728 -1.2224  1.0681
 2296SOL    HW2 7573   5.910   6.496   1.054  0.1337  1.8654  1.1407
 2297SOL     OW 7574   5.101   0.843   4.247  0.4726 -0.1604  0.3067
 2297SOL    HW1 7575   5.165   0.773   4.236 -1.6628 -2.1753 -0.1946
 2297SOL    HW2 7576   5.051   0.843   4.165 -1.4591 -0.0784  1.4201
 2298SOL     OW 7577   5.161   3.343   1.673  0.4295 -0.1921  0.2724
 2298SOL    HW1 7578   5.238   3.286   1.681 -0.4983 -1.5907 -0.4010
 2298SOL    HW2 7579   5.106   3.301   1.608 -0.8972  0.8179  0.6800
 2299SOL     OW 7580   5.350   6.453   6.101  0.3726 -0.2509 -0.0119
 2299SOL    HW1 7581   5.402   6.510   6.045 -0.5065 -0.8285 -1.4700
 2299SOL    HW2 7582   5.285   6.414   6.042  0.4094 -2.1039  1.0981
 2300SOL     OW 7583   3.826   3.889   1.095 -0.1795  0.2392 -0.2054
 2300SOL    HW1 7584   3.825   3.904   1.190 -0.9781 -0.4787 -0.0852
 2300SOL    HW2 7585   3.918   3.884   1.072  0.0283  0.7673  0.4782
 2301SOL     OW 7586   2.362   0.188   3.322  0.0943  0.1591  0.7424
 2301SOL    HW1 7587   2.437   0.143   3.283 -1.1339 -1.7658  0.4804
 2301SOL    HW2 7588   2.346   0.143   3.405 -2.0296 -0.9233 -0.1682
 2302SOL     OW 7589   6.346   3.853   2.456 -0.4630  0.3196 -0.2827
 2302SOL    HW1 7590   6.400   3.801   2.396 -1.6499  0.1271 -1.2268
 2302SOL    HW2 7591   6.291   3.788   2.501 -0.5854  0.5871 -0.0450
 2303SOL     OW 7592   3.328   2.481   0.054 -0.6307 -0.3804  0.1988
 2303SOL    HW1 7593   3.300   2.498   0.144  0.5945  1.8928  0.2366
 2303SOL    HW2 7594   3.406   2.426   0.064 -0.5092 -0.1528  0.5381
 2304SOL     OW 7595   3.585   6.334   4.025  0.2970 -0.0036 -0.0881
 2304SOL    HW1 7596   3.597   6.428   4.034 -0.5802  0.0944  0.1072
 2304SOL    HW2 7597   3.588   6.300   4.114 -2.1440  0.1984  0.1213
 2305SOL     OW 7598   0.037   4.895   4.984 -0.4906  0.0440 -0.2131
 2305SOL    HW1 7599   0.039   4.841   4.905  0.0453 -0.4548  0.1292
 2305SOL    HW2 7600  -0.044   4.870   5.029 -0.0105 -0.8517  0.1877
 2306SOL     OW 7601   1.560   4.599   0.639 -0.3805  0.3924 -0.0738
 2306SOL    HW1 7602   1.548   4.539   0.712 -1.4199  0.0695 -0.4986
 2306SOL    HW2 7603   1.507   4.675   0.661  1.3824  1.4593  0.7414
 2307SOL     OW 7604   3.289   4.982   6.461 -0.3988 -0.1396 -0.2040
 2307SOL    HW1 7605   3.252   5.010   6.545 -2.4257  2.7688 -1.8780
 2307SOL    HW2 7606   3.384   4.988   6.474 -0.6090 -0.6962  2.0964
 2308SOL     OW 7607   2.555   0.225   1.383 -0.0424 -0.2423  0.0305
 2308SOL    HW1 7608   2.515   0.216   1.297  1.6691  2.9941 -1.2792
 2308SOL    HW2 7609   2.624   0.159   1.385 -2.4459 -2.9034  0.5778
 2309SOL     OW 7610   4.805   5.731   4.996  0.3490 -0.2326 -0.5899
 2309SOL    HW1 7611   4.826   5.801   5.058 -1.0379 -0.5741  0.3093
 2309SOL    HW2 7612   4.867   5.661   5.017 -0.4287 -0.5437  0.7865
 2310SOL     OW 7613   0.546   2.342   0.285 -0.0814  0.1786  0.3635
 2310SOL    HW1 7614   0.529   2.261   0.237 -0.0526 -0.8206  1.9589
 2310SOL    HW2 7615   0.468   2.355   0.338 -0.1496  1.2986  0.0118
 2311SOL     OW 7616   5.506   3.760   4.942  0.7629  0.2561 -0.1570
 2311SOL    HW1 7617   5.524   3.733   4.852  0.5869 -0.1059 -0.0857
 2311SOL    HW2 7618   5.473   3.681   4.985 -0.1074  0.6697 -0.0403
 2312SOL     OW 7619   5.109   1.648   5.049 -0.0470 -0.1096 -0.5610
 2312SOL    HW1 7620   5.084   1.562   5.082 -0.8904  1.1793  2.5931
 2312SOL    HW2 7621   5.121   1.636   4.955  0.5313 -3.7746 -0.1685
 2313SOL     OW 7622   3.457   0.667   0.760  0.1462 -0.0403  0.2917
 2313SOL    HW1 7623   3.520   0.719   0.710  0.1224  0.5550  0.8740
 2313SOL    HW2 7624   3.511   0.617   0.822 -0.0271  1.5278  1.7620
 2314SOL     OW 7625   0.376   0.738   5.771  0.2698 -0.3950  0.2673
 2314SOL    HW1 7626   0.306   0.802   5.757  0.1641 -0.1328  1.8004
 2314SOL    HW2 7627   0.414   0.725   5.685 -0.0969  1.2800 -0.1914
 2315SOL     OW 7628   0.014   1.445   2.004 -0.4169  0.0957  0.0884
 2315SOL    HW1 7629  -0.052   1.375   2.005  0.4670 -0.8017  2.2351
 2315SOL    HW2 7630   0.072   1.422   1.931  0.6728 -2.2989  1.5836
 2316SOL     OW 7631   0.609   6.355   6.075  0.1857  0.2273  0.2264
 2316SOL    HW1 7632   0.637   6.287   6.014 -0.7302 -0.7031  0.8150
 2316SOL    HW2 7633   0.576   6.307   6.151 -0.3444  1.3356  0.7125
 2317SOL     OW 7634   5.595   6.102   0.261  0.1667  0.0326  0.2516
 2317SOL    HW1 7635   5.638   6.022   0.291 -0.6929  0.0706  1.7051
 2317SOL    HW2 7636   5.640   6.125   0.180  0.7484 -1.6558  0.0522
 2318SOL     OW 7637   5.310   5.326   5.767 -0.3958 -0.0784  0.1837
 2318SOL    HW1 7638   5.394   5.370   5.778 -0.7349  0.6613 -0.1178
 2318SOL    HW2 7639   5.249   5.395   5.743 -1.1472 -0.5717  0.6161
 2319SOL     OW 7640   3.756   5.742   0.346 -0.5191  1.1133  0.0369
 2319SOL    HW1 7641   3.661   5.738   0.335 -0.7569  1.4455  1.7223
 2319SOL    HW2 7642   3.789   5.670   0.292 -1.7373  0.8892 -0.4380
 2320SOL     OW 7643   4.189   1.301   4.523 -0.0269  0.2078  0.3451
 2320SOL    HW1 7644   4.121   1.233   4.523 -0.1201  0.2227 -1.9942
 2320SOL    HW2 7645   4.271   1.253   4.533 -0.0293 -0.3980 -2.0623
 2321SOL     OW 7646   5.225   2.136   5.778  0.0567  0.1929  0.6669
 2321SOL    HW1 7647   5.301   2.130   5.720 -0.9680 -0.6609 -0.6432
 2321SOL    HW2 7648   5.238   2.067   5.843  1.3584  1.3437  1.6921
 2322SOL     OW 7649   2.301   0.031   6.376  0.3314 -0.0717 -0.4548
 2322SOL    HW1 7650   2.383  -0.005   6.343 -0.2579  0.3611 -2.5194
 2322SOL    HW2 7651   2.268   0.085   6.305 -1.2685  0.5652  0.7052
 2323SOL     OW 7652   2.220   3.082   2.120  0.1523 -0.1737 -0.5167
 2323SOL    HW1 7653   2.249   3.152   2.061 -0.9784  1.0751  0.3134
 2323SOL    HW2 7654   2.279   3.088   2.195 -0.6614  0.7198  0.0788
 2324SOL     OW 7655   6.381   1.690   2.849 -0.1523  0.6308  0.1941
 2324SOL    HW1 7656   6.302   1.656   2.889 -0.8706  0.0482 -1.6185
 2324SOL    HW2 7657   6.377   1.785   2.864 -1.5845  0.6985 -0.5180
 2325SOL     OW 7658   0.467   5.887   4.344 -0.6851 -0.5457  0.1573
 2325SOL    HW1 7659   0.427   5.829   4.408 -1.3259  0.0292  0.2900
 2325SOL    HW2 7660   0.527   5.831   4.295  1.7751 -0.5059  2.8670
 2326SOL     OW 7661   2.763   1.799   2.702  0.2016 -0.5077  0.0837
 2326SOL    HW1 7662   2.826   1.730   2.725  0.7179  0.0369  0.3323
 2326SOL    HW2 7663   2.794   1.833   2.618  0.1366 -0.3459  0.1257
 2327SOL     OW 7664   1.363   1.884   5.568  0.8921  0.1085  0.2121
 2327SOL    HW1 7665   1.330   1.845   5.487  0.7480  0.2414  0.2052
 2327SOL    HW2 7666   1.299   1.859   5.634  0.4731  0.8251  0.0950
 2328SOL     OW 7667   0.295   5.377   0.731 -0.2723  0.2315  0.0970
 2328SOL    HW1 7668   0.204   5.389   0.758 -0.6513 -0.1947 -0.9451
 2328SOL    HW2 7669   0.346   5.422   0.799 -1.1766 -0.6233  1.3888
 2329SOL     OW 7670   0.246   3.482   3.040 -0.0355 -0.4953  0.2442
 2329SOL    HW1 7671   0.253   3.388   3.053  1.1725 -0.1917  2.0430
 2329SOL    HW2 7672   0.319   3.504   2.982  1.0785 -0.3967  1.6218
 2330SOL     OW 7673   4.863   6.219   5.054  0.3398  0.1249  0.0720
 2330SOL    HW1 7674   4.841   6.134   5.092 -0.8939  0.7374  0.7836
 2330SOL    HW2 7675   4.884   6.274   5.129  0.1147  0.7321 -0.3083
 2331SOL     OW 7676   5.157   5.087   6.105 -0.3153 -0.1242  0.0954
 2331SOL    HW1 7677   5.141   5.050   6.018  0.3721 -0.3979  0.0821
 2331SOL    HW2 7678   5.072   5.080   6.149 -0.6849  0.0658 -0.5675
 2332SOL     OW 7679   0.530   0.421   3.510  0.2603 -0.2201 -0.1428
 2332SOL    HW1 7680   0.552   0.513   3.499  0.7261 -0.2635  0.3479
 2332SOL    HW2 7681   0.608   0.374   3.479 -0.6019 -0.5257 -2.0030
 2333SOL     OW 7682   4.301   0.678   2.398  0.2765  0.0310  0.6462
 2333SOL    HW1 7683   4.239   0.682   2.471 -0.7211 -0.5475 -0.1422
 2333SOL    HW2 7684   4.384   0.650   2.437 -0.5835 -1.6195  1.3611
 2334SOL     OW 7685   6.429   3.382   0.725 -0.0365 -0.2900  0.1122
 2334SOL    HW1 7686   6.497   3.319   0.699 -1.7644 -1.4977 -1.8056
 2334SOL    HW2 7687   6.473   3.441   0.786  4.0206  1.5674 -3.9784
 2335SOL     OW 7688   3.871   3.626   1.499 -0.1795  0.3095 -0.1567
 2335SOL    HW1 7689   3.837   3.686   1.566  1.4559  1.1934 -0.0528
 2335SOL    HW2 7690   3.966   3.630   1.510  0.0198 -1.4671 -0.9062
 2336SOL     OW 7691   4.930   6.454   2.401 -0.1022  0.3515  0.0665
 2336SOL    HW1 7692   4.925   6.458   2.496  0.4524  0.9301  0.0779
 2336SOL    HW2 7693   4.954   6.364   2.382 -1.9126 -0.2476  0.3776
 2337SOL     OW 7694   4.167   4.958   2.676  0.0643 -0.2221  0.3263
 2337SOL    HW1 7695   4.169   5.027   2.609 -0.9144  1.3923  1.8825
 2337SOL    HW2 7696   4.258   4.953   2.707  0.3120 -0.2362 -0.3706
 2338SOL     OW 7697   2.767   2.001   6.393  0.5117 -0.6746 -0.1073
 2338SOL    HW1 7698   2.695   2.064   6.389  1.0329 -0.0138  0.6601
 2338SOL    HW2 7699   2.800   1.997   6.304  1.5187  1.4045  0.1166
 2339SOL     OW 7700   1.178   0.084   0.669  0.4652  0.0946 -0.2499
 2339SOL    HW1 7701   1.265   0.103   0.704  0.9396 -1.2531 -0.6658
 2339SOL    HW2 7702   1.188   0.002   0.621 -1.1867 -0.4195  0.2391
 2340SOL     OW 7703   1.385   4.524   2.570 -0.0285  0.4695  0.0919
 2340SOL    HW1 7704   1.423   4.484   2.648  0.2679 -0.4219 -0.4920
 2340SOL    HW2 7705   1.306   4.568   2.601  0.9470  1.5528  1.1744
 2341SOL     OW 7706   3.262   2.816   2.990 -0.5728  0.2706 -0.2387
 2341SOL    HW1 7707   3.345   2.804   3.035 -1.2361 -0.3191  0.8470
 2341SOL    HW2 7708   3.262   2.748   2.922 -0.7677 -0.6384  0.6561
 2342SOL     OW 7709   3.105   5.882   5.807 -0.3930  0.5907  0.1452
 2342SOL    HW1 7710   3.087   5.970   5.774 -2.8660  0.8686  1.8724
 2342SOL    HW2 7711   3.181   5.892   5.864 -0.1228  1.4275 -0.3528
 2343SOL     OW 7712   0.299   4.881   1.536  0.2699 -0.2427  0.0494
 2343SOL    HW1 7713   0.257   4.960   1.571 -0.5443 -0.5395 -0.2199
 2343SOL    HW2 7714   0.261   4.871   1.449 -0.3176 -1.4081  0.4140
 2344SOL     OW 7715   0.601   3.514   0.428 -0.6580 -0.3225 -0.3070
 2344SOL    HW1 7716   0.512   3.488   0.454 -1.4671  1.2821 -1.3416
 2344SOL    HW2 7717   0.588   3.586   0.366  1.4000  0.6307  0.2902
 2345SOL     OW 7718   4.578   1.390   0.501 -0.1790 -0.5130  0.4745
 2345SOL    HW1 7719   4.585   1.295   0.490  1.7537 -0.5278  1.4071
 2345SOL    HW2 7720   4.583   1.425   0.412  0.9212 -1.2256  0.2332
 2346SOL     OW 7721   0.675   0.048   2.876 -0.1962  0.5121 -0.0502
 2346SOL    HW1 7722   0.720   0.016   2.798 -0.8654 -0.1476 -0.1805
 2346SOL    HW2 7723   0.664  -0.030   2.931  1.5894  1.1899  1.4189
 2347SOL     OW 7724   2.319   3.749   5.792 -0.2886  0.1121  0.7282
 2347SOL    HW1 7725   2.375   3.690   5.741  0.0122  0.4410  0.6697
 2347SOL    HW2 7726   2.259   3.788   5.728  0.8377  1.3988  0.3960
 2348SOL     OW 7727   3.753   2.041   6.405  0.7222  0.0895 -0.6489
 2348SOL    HW1 7728   3.718   2.111   6.351 -2.1237 -1.1485 -0.6228
 2348SOL    HW2 7729   3.769   1.969   6.344  0.0597 -0.4272 -0.2306
 2349SOL     OW 7730   4.229   4.219   5.407  0.1287 -0.0826 -0.1094
 2349SOL    HW1 7731   4.273   4.137   5.430  1.4822  0.6931  0.2200
 2349SOL    HW2 7732   4.193   4.251   5.489  0.7036  0.2639  0.0151
 2350SOL     OW 7733   6.243   2.686   1.960  0.1832 -0.2060  0.0877
 2350SOL    HW1 7734   6.252   2.687   1.865  1.0619  3.2449  0.0964
 2350SOL    HW2 7735   6.152   2.709   1.976  0.2201 -0.0630  0.0898
 2351SOL     OW 7736   2.295   0.565   3.452 -0.4600  0.2652 -0.2617
 2351SOL    HW1 7737   2.289   0.492   3.389 -0.7135  1.6380 -1.8976
 2351SOL    HW2 7738   2.387   0.569   3.475 -0.4955 -0.7847  0.1147
 2352SOL     OW 7739   2.809   2.037   5.794 -0.4177  0.2958 -0.4167
 2352SOL    HW1 7740   2.799   2.010   5.703 -1.6863 -1.6991  0.2409
 2352SOL    HW2 7741   2.825   1.956   5.842  0.5072  1.3337  1.1273
 2353SOL     OW 7742   1.004   3.046   2.070 -0.2469 -0.0505  0.2651
 2353SOL    HW1 7743   0.926   3.039   2.124  0.7211  0.8967  1.8634
 2353SOL    HW2 7744   1.050   3.123   2.103  0.8949 -0.0112 -1.2727
 2354SOL     OW 7745   0.507   5.536   1.718 -0.0232  0.4501 -0.0201
 2354SOL    HW1 7746   0.565   5.479   1.768  0.4503  0.8974 -0.0464
 2354SOL    HW2 7747   0.533   5.625   1.743 -0.3635  0.6664 -0.4123
 2355SOL     OW 7748   5.016   3.007   4.231 -0.4790 -0.7588  0.2428
 2355SOL    HW1 7749   5.024   3.089   4.280 -0.5387  0.4334 -1.6289
 2355SOL    HW2 7750   4.950   3.026   4.164  0.1315 -2.0505 -0.7611
 2356SOL     OW 7751   6.290   4.142   3.876 -0.1169 -0.0326  0.2842
 2356SOL    HW1 7752   6.306   4.236   3.880 -0.1859 -0.0058 -0.0140
 2356SOL    HW2 7753   6.216   4.133   3.816 -1.0635 -0.1763  1.4384
 2357SOL     OW 7754   5.544   5.378   0.713 -0.5619 -0.0927 -0.0658
 2357SOL    HW1 7755   5.634   5.410   0.711 -0.2979 -0.6274  1.6005
 2357SOL    HW2 7756   5.492   5.456   0.732 -0.4333  0.1819 -0.8272
 2358SOL     OW 7757   6.094   3.707   3.753 -0.0714 -0.3837  0.0718
 2358SOL    HW1 7758   6.010   3.667   3.777  0.8199 -1.7353  1.0954
 2358SOL    HW2 7759   6.144   3.635   3.715  0.9170  0.2228  0.2009
 2359SOL     OW 7760   1.284   1.407   5.086  0.7580  0.0665  0.0383
 2359SOL    HW1 7761   1.249   1.490   5.054  0.3504 -0.2580 -0.3641
 2359SOL    HW2 7762   1.240   1.393   5.170  0.2575 -0.1145 -0.2502
 2360SOL     OW 7763   4.479   2.447   1.629  0.4880 -0.1986  0.1678
 2360SOL    HW1 7764   4.514   2.360   1.650  0.1343 -0.4406 -0.2476
 2360SOL    HW2 7765   4.492   2.497   1.710 -0.9955 -1.1715  1.0660
 2361SOL     OW 7766   4.493   2.969   1.404 -0.6794 -0.0712 -0.8825
 2361SOL    HW1 7767   4.559   2.933   1.345  0.6670  0.0653  0.4724
 2361SOL    HW2 7768   4.443   2.893   1.433  1.7401 -0.9407  1.4694
 2362SOL     OW 7769   0.826   3.815   2.754 -0.1463 -0.1348 -0.0771
 2362SOL    HW1 7770   0.840   3.867   2.833 -0.3082  2.3014 -1.5249
 2362SOL    HW2 7771   0.784   3.735   2.784  0.1744  0.5389  2.3211
 2363SOL     OW 7772   5.618   3.802   4.662 -0.5358  0.4761  0.2324
 2363SOL    HW1 7773   5.611   3.735   4.594  0.7330  0.7946 -0.2401
 2363SOL    HW2 7774   5.635   3.883   4.614 -2.4612  1.2729  0.7537
 2364SOL     OW 7775   3.794   3.364   5.872  0.4500 -0.1957  0.1157
 2364SOL    HW1 7776   3.776   3.453   5.901  0.4789  0.3115 -1.3436
 2364SOL    HW2 7777   3.708   3.324   5.858  0.4191  0.2732 -1.1362
 2365SOL     OW 7778   3.294   1.742   3.620 -0.6769 -0.0677  0.1237
 2365SOL    HW1 7779   3.238   1.665   3.627 -1.4177  0.2996 -1.3648
 2365SOL    HW2 7780   3.267   1.799   3.692 -1.3954 -0.4032  0.1233
 2366SOL     OW 7781   6.491   3.695   2.250  0.1075  0.5108  0.1954
 2366SOL    HW1 7782   6.538   3.640   2.313 -1.3378 -0.2274  0.6566
 2366SOL    HW2 7783   6.560   3.729   2.193  1.3722  0.6631  1.7536
 2367SOL     OW 7784   1.826   3.300   4.189 -0.1197  0.1120 -0.0734
 2367SOL    HW1 7785   1.846   3.392   4.203 -0.3964  0.0884  0.4866
 2367SOL    HW2 7786   1.741   3.300   4.144  0.4150  0.1613 -1.1129
 2368SOL     OW 7787   1.785   2.734   4.756  0.2835 -0.3798 -0.2208
 2368SOL    HW1 7788   1.802   2.810   4.812  0.5748  0.0422 -0.8710
 2368SOL    HW2 7789   1.718   2.684   4.803 -0.4482  0.6601 -0.1424
 2369SOL     OW 7790   5.869   1.227   1.291 -0.3624 -0.2506  0.2663
 2369SOL    HW1 7791   5.847   1.258   1.203 -0.0377  0.0222  0.2777
 2369SOL    HW2 7792   5.941   1.166   1.277 -0.1150  0.0176  0.3710
 2370SOL     OW 7793   3.894   4.133   0.871  0.3814 -0.0315  0.8109
 2370SOL    HW1 7794   3.811   4.095   0.901 -1.0454  1.3786 -1.1181
 2370SOL    HW2 7795   3.925   4.185   0.945 -1.8805  1.5827  0.7259
 2371SOL     OW 7796   4.828   4.424   4.610  0.3247 -0.0435  0.3053
 2371SOL    HW1 7797   4.895   4.363   4.640 -0.3616 -0.0314  1.9722
 2371SOL    HW2 7798   4.746   4.376   4.618  0.0871 -0.0248 -1.6219
 2372SOL     OW 7799   2.332   2.190   5.045 -0.1579 -0.4268 -0.0900
 2372SOL    HW1 7800   2.391   2.135   4.993 -1.3852 -0.3352 -1.6754
 2372SOL    HW2 7801   2.248   2.186   4.998 -0.4220  2.4202 -0.0446
 2373SOL     OW 7802   2.461   5.951   2.519  0.2766  0.2620  0.1989
 2373SOL    HW1 7803   2.403   5.879   2.495 -1.6645  1.3345  1.4207
 2373SOL    HW2 7804   2.542   5.909   2.547  0.0828 -1.3032 -1.4128
 2374SOL     OW 7805   4.057   2.601   5.207 -0.3095  0.6770 -0.2069
 2374SOL    HW1 7806   4.054   2.681   5.154  2.0621 -1.5987 -4.2236
 2374SOL    HW2 7807   4.146   2.600   5.242 -0.3515 -0.2160 -0.1211
 2375SOL     OW 7808   4.062   4.419   1.162 -0.3520 -0.2836  0.2092
 2375SOL    HW1 7809   4.003   4.372   1.103 -0.1140  1.0821 -1.1690
 2375SOL    HW2 7810   4.146   4.375   1.152 -0.1344  0.3866 -1.0539
 2376SOL     OW 7811   5.789   0.359   3.112  0.0502 -0.7173  0.6671
 2376SOL    HW1 7812   5.848   0.310   3.055 -1.3180  0.6425 -2.1237
 2376SOL    HW2 7813   5.812   0.451   3.098 -1.3931 -0.2724  0.9987
 2377SOL     OW 7814   2.284   2.095   6.469 -0.3356 -0.2300 -0.5246
 2377SOL    HW1 7815   2.242   2.010   6.459 -0.2474 -0.2866 -0.4073
 2377SOL    HW2 7816   2.286   2.111   6.563  0.7560 -0.6527 -0.4573
 2378SOL     OW 7817   2.764   0.041   1.402 -0.1568 -0.1425 -0.0783
 2378SOL    HW1 7818   2.796   0.015   1.489 -0.6505  0.2507  0.2266
 2378SOL    HW2 7819   2.689  -0.016   1.386 -0.8030  0.5908  0.2823
 2379SOL     OW 7820   1.978   4.504   1.390  0.5579  0.5303  0.1199
 2379SOL    HW1 7821   1.996   4.532   1.300  1.7979 -1.4086 -0.2949
 2379SOL    HW2 7822   2.046   4.546   1.442  2.6383 -1.8082 -0.5478
 2380SOL     OW 7823   1.102   0.327   5.438  0.0978  0.5912  0.5188
 2380SOL    HW1 7824   1.027   0.322   5.380  0.1673 -0.0798  0.4788
 2380SOL    HW2 7825   1.071   0.377   5.514 -0.0281  1.3574 -0.0273
 2381SOL     OW 7826   4.496   0.966   2.876 -0.0099 -0.3892  0.2880
 2381SOL    HW1 7827   4.438   1.042   2.886  2.2308  1.0335  4.3174
 2381SOL    HW2 7828   4.450   0.896   2.922  0.1401 -0.0677  0.9389
 2382SOL     OW 7829   3.859   1.302   4.177  0.6689 -0.6760  0.0368
 2382SOL    HW1 7830   3.811   1.385   4.178 -0.4047 -1.2831  0.2549
 2382SOL    HW2 7831   3.886   1.291   4.086 -1.2915 -1.2431 -0.5252
 2383SOL     OW 7832   5.981   6.284   3.577  0.5669  0.2488  0.2027
 2383SOL    HW1 7833   6.036   6.264   3.501  1.6155 -2.4779  1.5313
 2383SOL    HW2 7834   6.034   6.345   3.629  1.4153 -0.6263  0.3997
 2384SOL     OW 7835   4.404   0.155   6.059 -0.2272  0.2237 -1.0611
 2384SOL    HW1 7836   4.346   0.214   6.107  0.5713  0.6045 -0.5569
 2384SOL    HW2 7837   4.351   0.126   5.984 -2.1491 -1.7873  0.8994
 2385SOL     OW 7838   2.786   5.582   5.947 -0.2559  0.0459  0.1942
 2385SOL    HW1 7839   2.800   5.643   5.875 -0.0420  0.4531  0.5774
 2385SOL    HW2 7840   2.793   5.636   6.026 -2.6033  0.0526  0.4856
 2386SOL     OW 7841   5.438   2.949   5.602  0.0444  0.2139  0.8020
 2386SOL    HW1 7842   5.520   2.960   5.554 -1.5014  0.5717 -2.0190
 2386SOL    HW2 7843   5.405   3.039   5.613 -0.3700  0.0190  1.1744
 2387SOL     OW 7844   0.400   3.445   2.336 -0.0920  0.1453  0.0265
 2387SOL    HW1 7845   0.449   3.432   2.417  0.2417 -0.6533 -0.2938
 2387SOL    HW2 7846   0.462   3.489   2.277 -0.8051  2.0916  0.6772
 2388SOL     OW 7847   2.402   6.224   3.644 -0.3959  0.4197 -0.2846
 2388SOL    HW1 7848   2.409   6.128   3.640  2.4790  0.5679 -1.1414
 2388SOL    HW2 7849   2.345   6.240   3.718  0.0709 -1.9674  0.7056
 2389SOL     OW 7850   2.339   3.174   2.966  0.3193  1.2185  0.0203
 2389SOL    HW1 7851   2.331   3.195   2.873  0.9210 -0.4332 -0.4476
 2389SOL    HW2 7852   2.432   3.153   2.978  0.0221  0.2101  0.6946
 2390SOL     OW 7853   2.998   5.342   3.018 -0.0865 -0.7894 -1.2000
 2390SOL    HW1 7854   3.034   5.260   2.986 -0.7377 -0.5736 -2.6123
 2390SOL    HW2 7855   2.963   5.322   3.105 -0.9289 -2.2208 -1.8302
 2391SOL     OW 7856   6.146   0.589   0.433  0.4581  0.1407  0.3869
 2391SOL    HW1 7857   6.229   0.631   0.411 -0.5633  1.3584 -1.3378
 2391SOL    HW2 7858   6.128   0.617   0.523  0.3850  2.5250 -0.3227
 2392SOL     OW 7859   0.381   3.593   2.816 -0.0416  0.1671  0.2698
 2392SOL    HW1 7860   0.328   3.635   2.749 -1.7884  1.4798  2.3435
 2392SOL    HW2 7861   0.440   3.662   2.848  0.7678 -0.4359  0.1203
 2393SOL     OW 7862   1.911   1.518   1.789 -0.2615  0.1841  0.3604
 2393SOL    HW1 7863   1.990   1.567   1.766 -0.6432  1.6853  1.9798
 2393SOL    HW2 7864   1.930   1.428   1.763  1.5945  0.6824 -0.1790
 2394SOL     OW 7865   4.404   2.864   3.811  0.6534 -0.0833  0.3754
 2394SOL    HW1 7866   4.403   2.779   3.766  3.3068 -0.3033  0.5500
 2394SOL    HW2 7867   4.428   2.843   3.901  1.2183  0.8232  0.4525
 2395SOL     OW 7868   6.265   6.306   2.899  0.1448  0.2382 -0.1372
 2395SOL    HW1 7869   6.283   6.248   2.825 -3.0327 -2.0864  0.7204
 2395SOL    HW2 7870   6.352   6.328   2.932  1.6010 -1.1191 -2.6661
 2396SOL     OW 7871   4.407   4.745   3.296 -0.5407  0.0750 -0.5089
 2396SOL    HW1 7872   4.457   4.763   3.217 -0.7304  0.5615 -0.5236
 2396SOL    HW2 7873   4.315   4.753   3.268 -0.6036  0.5014 -0.1861
 2397SOL     OW 7874   1.646   3.306   2.309 -0.4720  0.2123  0.2889
 2397SOL    HW1 7875   1.626   3.247   2.236  0.2181  1.3365 -0.8392
 2397SOL    HW2 7876   1.651   3.248   2.385 -2.4096 -0.8460 -0.3019
 2398SOL     OW 7877   4.301   1.686   3.577 -0.0229 -0.3105 -0.2681
 2398SOL    HW1 7878   4.385   1.695   3.532 -0.7370 -0.6971 -1.7371
 2398SOL    HW2 7879   4.239   1.734   3.522 -1.0498 -1.3560 -0.0641
 2399SOL     OW 7880   6.263   1.640   4.111 -0.2804 -0.4538  0.1867
 2399SOL    HW1 7881   6.178   1.679   4.090  0.1786  0.7589  0.5580
 2399SOL    HW2 7882   6.275   1.573   4.043 -1.7395 -0.9820  0.4038
 2400SOL     OW 7883   1.701   1.859   1.359 -0.2399 -0.1200 -0.0670
 2400SOL    HW1 7884   1.758   1.800   1.408  1.9643  1.3432 -0.7100
 2400SOL    HW2 7885   1.627   1.877   1.418  0.6336 -1.0331  1.3443
 2401SOL     OW 7886   2.548   6.333   4.991  0.2074  0.5912 -0.2124
 2401SOL    HW1 7887   2.495   6.389   5.047 -1.8835 -0.3650 -1.1565
 2401SOL    HW2 7888   2.547   6.376   4.906 -2.2260 -1.2348 -1.2070
 2402SOL     OW 7889   5.859   4.614   6.194  0.4257  0.0054 -0.0837
 2402SOL    HW1 7890   5.795   4.613   6.265 -0.0379  0.3961 -0.4970
 2402SOL    HW2 7891   5.817   4.662   6.123  0.9082 -0.3260 -0.6079
 2403SOL     OW 7892   5.238   4.647   4.258  0.1297 -0.1641  0.2059
 2403SOL    HW1 7893   5.173   4.582   4.229  0.2404  0.2844 -1.0904
 2403SOL    HW2 7894   5.276   4.681   4.177  2.8953 -1.2870  0.9239
 2404SOL     OW 7895   1.203   4.315   2.393 -0.2883 -0.1111  0.0175
 2404SOL    HW1 7896   1.144   4.259   2.444  2.3438 -1.6629  1.6300
 2404SOL    HW2 7897   1.196   4.401   2.434 -0.2939 -0.6561  1.2185
 2405SOL     OW 7898   3.912   3.624   3.026  0.4487  0.2608 -0.1588
 2405SOL    HW1 7899   3.888   3.610   3.117 -0.8831 -1.9267 -0.7818
 2405SOL    HW2 7900   3.894   3.540   2.983  0.0242  1.5255 -2.6362
 2406SOL     OW 7901   5.264   0.236   4.984 -0.4307  0.1441  0.1017
 2406SOL    HW1 7902   5.321   0.313   4.982  0.8954 -0.8224 -1.4053
 2406SOL    HW2 7903   5.302   0.181   5.053 -0.4595  0.1763  0.1427
 2407SOL     OW 7904   1.505   0.436   3.963 -0.5584  0.3281  0.4723
 2407SOL    HW1 7905   1.501   0.473   3.875  1.0208  1.0256  0.6635
 2407SOL    HW2 7906   1.505   0.341   3.949 -0.4246  0.4312 -0.2792
 2408SOL     OW 7907   4.175   5.374   5.367 -0.4850  0.1388 -0.2657
 2408SOL    HW1 7908   4.087   5.407   5.386 -0.2499  1.1802 -0.8945
 2408SOL    HW2 7909   4.211   5.350   5.453 -1.3366 -0.1937  0.0059
 2409SOL     OW 7910   5.810   1.269   1.014  0.0647  0.1627  0.2692
 2409SOL    HW1 7911   5.799   1.320   0.933  0.4011  0.9497  0.7034
 2409SOL    HW2 7912   5.875   1.202   0.992  1.3771  1.3715  0.3187
 2410SOL     OW 7913   0.149   2.253   1.237  0.3443  0.2406  0.2971
 2410SOL    HW1 7914   0.217   2.314   1.265  0.8314  0.2967 -0.9307
 2410SOL    HW2 7915   0.068   2.302   1.246  0.3893  0.0634  2.1049
 2411SOL     OW 7916   2.937   1.124   5.991 -0.1623 -0.2981  0.0536
 2411SOL    HW1 7917   2.947   1.197   6.052 -2.3461  1.3410 -1.4010
 2411SOL    HW2 7918   3.026   1.089   5.981  0.5367  0.4701  2.7448
 2412SOL     OW 7919   3.254   3.905   4.490 -0.0395 -0.0402  0.3498
 2412SOL    HW1 7920   3.300   3.987   4.505 -0.8494  0.3720  0.6531
 2412SOL    HW2 7921   3.213   3.884   4.574  0.3558 -0.8813  0.3400
 2413SOL     OW 7922   4.817   0.295   3.301 -0.6179  0.3948 -0.4969
 2413SOL    HW1 7923   4.813   0.296   3.205 -1.5950 -0.0034 -0.4691
 2413SOL    HW2 7924   4.829   0.202   3.323 -1.0915  0.4020 -0.2120
 2414SOL     OW 7925   0.613   6.108   4.428 -0.4619  0.1632  0.1318
 2414SOL    HW1 7926   0.555   6.034   4.411  0.6428 -0.6281 -0.2756
 2414SOL    HW2 7927   0.564   6.184   4.397 -0.3338 -0.7447 -2.5101
 2415SOL     OW 7928   5.460   1.146   0.796  0.2583  0.1510  0.4342
 2415SOL    HW1 7929   5.543   1.141   0.749 -0.0787  0.4600 -0.2207
 2415SOL    HW2 7930   5.398   1.178   0.730 -0.1037  1.2200  1.2606
 2416SOL     OW 7931   3.806   5.930   1.475  0.0699  0.1218  0.8117
 2416SOL    HW1 7932   3.775   5.983   1.402 -0.8238 -0.6079  0.6378
 2416SOL    HW2 7933   3.869   5.986   1.521 -0.7547  1.2812  0.5726
 2417SOL     OW 7934   4.447   1.225   0.799  0.6409 -0.1768 -0.3425
 2417SOL    HW1 7935   4.453   1.318   0.819 -1.8745 -0.2321  1.2088
 2417SOL    HW2 7936   4.404   1.222   0.714  1.9339  0.0495 -1.0218
 2418SOL     OW 7937   2.794   1.129   2.747  0.0209  0.0812 -0.3917
 2418SOL    HW1 7938   2.755   1.198   2.801 -0.7637  0.0543 -0.9130
 2418SOL    HW2 7939   2.802   1.169   2.660  1.7613  0.3043 -0.1639
 2419SOL     OW 7940   6.210   4.776   3.966  0.3175  0.3180  0.3213
 2419SOL    HW1 7941   6.211   4.788   3.871 -0.1547 -0.4510  0.2135
 2419SOL    HW2 7942   6.302   4.760   3.989  0.4197  0.4129 -0.0144
 2420SOL     OW 7943   4.566   1.351   1.654 -0.2698 -0.1924 -0.6265
 2420SOL    HW1 7944   4.662   1.358   1.657 -0.2924 -0.0660  0.1084
 2420SOL    HW2 7945   4.538   1.420   1.595  0.1223 -0.5200 -1.2003
 2421SOL     OW 7946   4.829   1.062   3.548  0.5256  0.4166 -0.3229
 2421SOL    HW1 7947   4.751   1.109   3.580  0.4509  0.0095  0.0998
 2421SOL    HW2 7948   4.898   1.128   3.548 -0.0898  1.1300 -1.9074
 2422SOL     OW 7949   3.257   5.413   4.288  0.0806  0.2290  1.1282
 2422SOL    HW1 7950   3.342   5.451   4.312 -0.7144  1.8438  1.4790
 2422SOL    HW2 7951   3.256   5.417   4.192  1.3851 -2.0821  0.9513
 2423SOL     OW 7952   4.638   3.030   5.856 -0.1394 -0.6949 -0.3427
 2423SOL    HW1 7953   4.686   3.012   5.775 -0.0997 -2.7582  0.1023
 2423SOL    HW2 7954   4.692   3.095   5.902 -1.0255  1.8932 -2.6849
 2424SOL     OW 7955   2.551   3.037   0.399  0.1998 -0.0601 -0.0985
 2424SOL    HW1 7956   2.510   3.116   0.434 -0.5068 -0.8974  1.0557
 2424SOL    HW2 7957   2.495   3.011   0.325  0.3883  0.4616 -0.4278
 2425SOL     OW 7958   1.313   4.135   4.713 -0.7919 -0.6526 -0.3318
 2425SOL    HW1 7959   1.281   4.211   4.664  1.0435  0.3271 -0.0918
 2425SOL    HW2 7960   1.263   4.136   4.794 -1.8458 -0.6043 -0.9652
 2426SOL     OW 7961   2.701   5.301   5.875  0.3419 -0.0776 -0.6771
 2426SOL    HW1 7962   2.693   5.395   5.890 -1.3833 -0.1753 -0.8347
 2426SOL    HW2 7963   2.793   5.289   5.851  0.5310  1.5944 -0.9338
 2427SOL     OW 7964   5.639   4.998   1.778 -0.5692  0.0161 -0.2994
 2427SOL    HW1 7965   5.700   4.928   1.756  0.8329  1.1425 -0.1586
 2427SOL    HW2 7966   5.674   5.036   1.859 -1.6666  0.4699 -0.0136
 2428SOL     OW 7967   1.477   3.625   5.040  0.2289 -0.4384 -0.2468
 2428SOL    HW1 7968   1.573   3.631   5.036  0.1886 -0.0455 -0.8165
 2428SOL    HW2 7969   1.456   3.642   5.131  0.6485  0.4879 -0.3020
 2429SOL     OW 7970   4.110   5.143   4.609  0.1395 -0.4581 -0.2684
 2429SOL    HW1 7971   4.104   5.236   4.629 -0.7080 -0.4655 -0.4633
 2429SOL    HW2 7972   4.023   5.120   4.576 -0.1227 -1.6690  1.2112
 2430SOL     OW 7973   4.379   1.492   5.018 -0.3057  0.0910 -0.2927
 2430SOL    HW1 7974   4.455   1.550   5.007  2.4746 -2.9735  0.9348
 2430SOL    HW2 7975   4.334   1.495   4.933  1.3874  1.7664 -1.2091
 2431SOL     OW 7976   0.547   0.956   4.448  0.1447 -0.3082 -0.1910
 2431SOL    HW1 7977   0.468   1.008   4.457  1.7854  2.3823 -0.2867
 2431SOL    HW2 7978   0.575   0.939   4.538  0.6829  0.7829 -0.1412
 2432SOL     OW 7979   1.270   4.582   3.826 -0.4159 -0.9086  0.3375
 2432SOL    HW1 7980   1.358   4.559   3.799 -0.0115 -1.0619  1.7029
 2432SOL    HW2 7981   1.240   4.646   3.761  0.8099 -0.6235  0.0393
 2433SOL     OW 7982   5.806   5.614   2.017 -0.0749 -0.0354  0.7942
 2433SOL    HW1 7983   5.769   5.671   2.085 -0.4867  0.4458  0.1792
 2433SOL    HW2 7984   5.806   5.668   1.938 -0.2585 -0.8193  0.2493
 2434SOL     OW 7985   2.005   5.364   6.513 -0.1705 -0.3710 -0.0511
 2434SOL    HW1 7986   2.024   5.387   6.422 -1.8297 -2.0390 -0.8824
 2434SOL    HW2 7987   2.054   5.428   6.564  2.3839 -0.5561 -2.0493
 2435SOL     OW 7988   4.004   1.658   5.723  0.5502 -0.7212 -0.4684
 2435SOL    HW1 7989   4.011   1.733   5.783 -0.8534  0.1904 -1.3716
 2435SOL    HW2 7990   4.087   1.613   5.731  1.1373  0.4906  0.7056
 2436SOL     OW 7991   5.430   5.851   4.936 -0.0373  0.9636 -0.1953
 2436SOL    HW1 7992   5.401   5.942   4.928  0.9852  1.3677  0.4887
 2436SOL    HW2 7993   5.512   5.847   4.887  0.3374  0.6203  0.4451
 2437SOL     OW 7994   2.873   6.017   3.133  0.1931 -0.3076 -0.2987
 2437SOL    HW1 7995   2.904   6.084   3.194  0.2328 -1.5964  1.1709
 2437SOL    HW2 7996   2.783   6.042   3.113  1.1664  1.9077 -2.3459
 2438SOL     OW 7997   3.187   4.158   5.326  0.3151 -1.1816 -0.3644
 2438SOL    HW1 7998   3.180   4.214   5.249 -0.4841 -1.0577 -0.2127
 2438SOL    HW2 7999   3.193   4.219   5.400 -3.8607 -1.1221  0.1388
 2439SOL     OW 8000   2.837   0.947   3.878  0.0959  0.0738  0.0249
 2439SOL    HW1 8001   2.923   0.971   3.912 -0.5703  0.5304  1.4501
 2439SOL    HW2 8002   2.817   1.016   3.815 -0.1720  1.2454  1.3465
 2440SOL     OW 8003   1.835   2.361   2.502 -0.2601 -0.0687  0.1625
 2440SOL    HW1 8004   1.850   2.431   2.566 -0.0332 -0.1860  0.2389
 2440SOL    HW2 8005   1.745   2.333   2.517  0.1079 -0.7984  1.1327
 2441SOL     OW 8006   5.468   3.075   1.705 -0.2163  0.8858  0.6764
 2441SOL    HW1 8007   5.397   3.114   1.757  1.1107  1.0318  2.4444
 2441SOL    HW2 8008   5.528   3.147   1.688 -0.4613  0.7662 -0.8394
 2442SOL     OW 8009   1.528   1.719   0.112 -0.1730  0.0811 -0.2233
 2442SOL    HW1 8010   1.609   1.712   0.062  0.6009  0.3444  0.9619
 2442SOL    HW2 8011   1.499   1.629   0.125  0.1414 -0.0337 -0.3150
 2443SOL     OW 8012   3.065   1.579   0.908  0.3902  0.3012 -0.2422
 2443SOL    HW1 8013   3.064   1.556   1.002  0.3788  0.6108 -0.1672
 2443SOL    HW2 8014   2.984   1.543   0.874  0.5546 -0.1131 -0.2036
 2444SOL     OW 8015   4.176   2.594   3.996 -0.4407 -0.2430  0.2662
 2444SOL    HW1 8016   4.271   2.598   3.989 -0.5335 -0.0814 -1.1987
 2444SOL    HW2 8017   4.160   2.574   4.088  1.0051 -0.3153  0.5313
 2445SOL     OW 8018   1.831   0.206   4.247  0.1071  0.4582  0.3090
 2445SOL    HW1 8019   1.810   0.191   4.340 -1.7751  2.1776  0.2414
 2445SOL    HW2 8020   1.850   0.299   4.241 -1.2759  0.7011 -1.2296
 2446SOL     OW 8021   6.243   2.735   5.440  0.3467  0.6985 -0.5421
 2446SOL    HW1 8022   6.231   2.656   5.387 -0.6859 -0.0814  0.8151
 2446SOL    HW2 8023   6.279   2.799   5.378 -0.3301 -0.3266 -2.0630
 2447SOL     OW 8024   1.465   3.123   0.329 -0.3243 -0.0559  0.1046
 2447SOL    HW1 8025   1.556   3.108   0.302 -1.0133 -1.9895 -1.3252
 2447SOL    HW2 8026   1.452   3.217   0.316  1.5792  0.3656  0.8160
 2448SOL     OW 8027   0.618   3.502   2.028 -0.1727  0.0164 -0.1816
 2448SOL    HW1 8028   0.526   3.532   2.026 -0.1120  0.1642 -1.5856
 2448SOL    HW2 8029   0.628   3.450   1.948  0.3801 -1.8863  1.0593
 2449SOL     OW 8030   6.213   1.361   5.973  0.2474 -0.1849 -0.3051
 2449SOL    HW1 8031   6.252   1.415   6.042 -0.5313  0.0077 -0.0103
 2449SOL    HW2 8032   6.174   1.424   5.912 -1.2723 -0.4038  0.3947
 2450SOL     OW 8033   3.654   0.230   3.327  0.2560  0.0334 -0.3145
 2450SOL    HW1 8034   3.692   0.289   3.262  1.2559  0.3857  0.5646
 2450SOL    HW2 8035   3.571   0.203   3.289 -0.9092  3.0590 -0.2160
 2451SOL     OW 8036   4.890   0.276   2.727  0.2654 -0.4138  0.1503
 2451SOL    HW1 8037   4.891   0.362   2.769  0.6529 -1.5240  2.5577
 2451SOL    HW2 8038   4.807   0.273   2.680  0.3732  1.3659 -0.2282
 2452SOL     OW 8039   1.433   1.669   3.711  0.6179 -0.3637 -0.0763
 2452SOL    HW1 8040   1.383   1.670   3.793 -0.7681  2.5513 -0.7907
 2452SOL    HW2 8041   1.523   1.653   3.738  0.0175 -0.7675  1.8641
 2453SOL     OW 8042   2.118   0.922   1.301 -0.0907 -1.0243 -0.4225
 2453SOL    HW1 8043   2.138   0.828   1.296 -0.3723 -1.0195 -2.6634
 2453SOL    HW2 8044   2.024   0.926   1.315 -0.0758 -1.0759 -0.3073
 2454SOL     OW 8045   5.727   4.247   1.973 -0.4728  0.1347 -0.3686
 2454SOL    HW1 8046   5.796   4.310   1.951 -1.8831  1.6631 -0.5654
 2454SOL    HW2 8047   5.714   4.258   2.067 -0.3014 -0.3177 -0.2895
 2455SOL     OW 8048   4.540   1.849   5.886  0.4172 -0.4686 -0.0957
 2455SOL    HW1 8049   4.597   1.827   5.813 -1.0246 -0.5739 -1.2388
 2455SOL    HW2 8050   4.528   1.944   5.879  2.1913 -0.0676  1.4974
 2456SOL     OW 8051   1.979   0.457   5.172  0.0160 -0.2368 -0.3825
 2456SOL    HW1 8052   1.999   0.363   5.172 -0.3717 -0.3280 -0.7616
 2456SOL    HW2 8053   2.034   0.494   5.240  1.7994 -0.3915 -1.6707
 2457SOL     OW 8054   5.266   6.381   4.285 -0.3046 -0.1499  0.4285
 2457SOL    HW1 8055   5.320   6.303   4.298  0.4727  0.7374  3.3017
 2457SOL    HW2 8056   5.325   6.444   4.243 -0.4094 -0.5025 -0.2707
 2458SOL     OW 8057   1.576   1.963   3.891  0.2938 -1.0298  0.2114
 2458SOL    HW1 8058   1.557   1.988   3.982 -0.3269 -1.4885  0.2186
 2458SOL    HW2 8059   1.627   1.882   3.899 -1.6606 -2.3500  0.1617
 2459SOL     OW 8060   2.927   1.600   6.405 -0.0909 -0.1381 -0.0428
 2459SOL    HW1 8061   2.905   1.517   6.447  0.6439 -0.6208 -0.5904
 2459SOL    HW2 8062   2.945   1.659   6.478 -1.4829 -0.1961  0.3756
 2460SOL     OW 8063   0.441   5.652   6.401 -0.4542  0.2446 -0.1675
 2460SOL    HW1 8064   0.472   5.713   6.469 -0.6022 -1.4638  1.5336
 2460SOL    HW2 8065   0.503   5.663   6.329  0.7942  0.8641  0.9550
 2461SOL     OW 8066   1.510   1.394   3.138  0.4202 -0.5397  0.1511
 2461SOL    HW1 8067   1.423   1.398   3.099  0.7000 -0.1874 -0.4532
 2461SOL    HW2 8068   1.509   1.461   3.206  0.3309 -0.3054 -0.0813
 2462SOL     OW 8069   3.570   1.858   3.213  0.4128  0.8020  0.1260
 2462SOL    HW1 8070   3.534   1.941   3.181 -1.9956 -1.1925 -2.9241
 2462SOL    HW2 8071   3.497   1.817   3.260  1.4112  0.1813  1.1858
 2463SOL     OW 8072   6.414   0.181   0.452  0.1743 -0.1882 -0.0513
 2463SOL    HW1 8073   6.319   0.181   0.450  0.0098 -3.2746  1.5604
 2463SOL    HW2 8074   6.437   0.128   0.528  3.1719 -0.4175 -0.9717
 2464SOL     OW 8075   4.082   5.478   4.795 -0.3841  0.0552  0.0295
 2464SOL    HW1 8076   4.068   5.409   4.859 -0.1353 -0.5218 -0.5202
 2464SOL    HW2 8077   4.114   5.552   4.846  0.8314 -0.7239  0.4547
 2465SOL     OW 8078   1.705   3.048   5.731  0.3932  0.2221  0.7902
 2465SOL    HW1 8079   1.787   3.080   5.768  0.2467  0.0066  1.3089
 2465SOL    HW2 8080   1.638   3.108   5.766  0.2548  0.0206  0.8746
 2466SOL     OW 8081   6.404   3.306   2.728 -0.1423 -0.1999 -0.1792
 2466SOL    HW1 8082   6.459   3.228   2.717 -0.2701 -0.2280 -0.6482
 2466SOL    HW2 8083   6.438   3.348   2.807  0.8466  0.0180 -0.7015
 2467SOL     OW 8084   3.029   3.126   1.992 -0.7154  0.4242 -1.0354
 2467SOL    HW1 8085   2.957   3.150   2.050 -0.0507  0.9758 -0.4196
 2467SOL    HW2 8086   3.051   3.036   2.017 -1.4989  0.0788 -1.5592
 2468SOL     OW 8087   5.699   1.808   5.349  0.1069  0.3209  0.0894
 2468SOL    HW1 8088   5.625   1.832   5.293 -1.7143 -1.2872  1.5984
 2468SOL    HW2 8089   5.735   1.729   5.309 -0.7461 -0.4219  0.7272
 2469SOL     OW 8090   3.429   6.429   3.036  0.1874  0.2772 -0.4745
 2469SOL    HW1 8091   3.369   6.439   2.961 -0.7145 -0.0409  0.1886
 2469SOL    HW2 8092   3.516   6.446   2.999 -0.0705 -1.2103 -1.9105
 2470SOL     OW 8093   3.339   3.635   2.611  0.2262 -0.2294 -0.0416
 2470SOL    HW1 8094   3.293   3.553   2.627 -0.3450  0.2890  1.1311
 2470SOL    HW2 8095   3.364   3.666   2.698  1.1619  0.4343 -0.5248
 2471SOL     OW 8096   2.085   5.351   3.655 -0.0517 -0.3486 -0.0155
 2471SOL    HW1 8097   2.026   5.413   3.614  0.9986  1.0893  0.5543
 2471SOL    HW2 8098   2.156   5.339   3.592  0.1455 -0.3583  0.2074
 2472SOL     OW 8099   5.198   2.124   1.047 -0.4487 -0.1237 -0.1922
 2472SOL    HW1 8100   5.274   2.126   1.105 -0.4035  1.9256 -0.2354
 2472SOL    HW2 8101   5.186   2.032   1.025  2.3705 -0.4666 -0.6292
 2473SOL     OW 8102   5.494   2.618   1.619 -0.2899  0.1452  0.3947
 2473SOL    HW1 8103   5.444   2.586   1.543  1.9954 -0.2436 -1.0228
 2473SOL    HW2 8104   5.543   2.542   1.648 -0.5824  0.4931  1.8531
 2474SOL     OW 8105   6.346   2.699   5.081  0.3586 -0.6157  0.3699
 2474SOL    HW1 8106   6.365   2.639   5.154 -1.9037 -0.8899  0.7986
 2474SOL    HW2 8107   6.331   2.784   5.122  0.7047 -0.3828  0.0310
 2475SOL     OW 8108   4.466   4.918   4.365  0.1879 -0.3471 -0.3032
 2475SOL    HW1 8109   4.373   4.934   4.378  0.1130 -1.2420  0.3207
 2475SOL    HW2 8110   4.508   4.950   4.445  0.7475  2.4997 -1.6082
 2476SOL     OW 8111   3.811   5.760   2.784 -0.1909  0.2911 -0.0033
 2476SOL    HW1 8112   3.841   5.672   2.809 -2.2854 -0.7078 -0.8180
 2476SOL    HW2 8113   3.864   5.818   2.838  1.0535 -1.4677  0.7913
 2477SOL     OW 8114   0.065   4.464   0.882 -0.7401  0.1891  0.4520
 2477SOL    HW1 8115   0.109   4.379   0.875  3.2409  1.9228  1.4134
 2477SOL    HW2 8116   0.035   4.483   0.793 -1.1625 -1.8873  0.0887
 2478SOL     OW 8117   3.484   0.252   0.262 -0.4612  0.0144  0.0785
 2478SOL    HW1 8118   3.554   0.314   0.281 -1.3423  0.8903  0.5671
 2478SOL    HW2 8119   3.492   0.233   0.169  2.3906 -2.4091  0.6546
 2479SOL     OW 8120   6.516   3.551   6.411  0.0711 -0.3242 -0.3473
 2479SOL    HW1 8121   6.485   3.638   6.385 -0.6360 -0.6258 -0.5453
 2479SOL    HW2 8122   6.536   3.559   6.504  1.2464  0.3871 -0.6428
 2480SOL     OW 8123   6.177   4.167   3.406 -0.3621 -0.7323 -0.2229
 2480SOL    HW1 8124   6.270   4.181   3.424 -0.6930  1.3466  0.1017
 2480SOL    HW2 8125   6.136   4.251   3.424 -2.0365 -1.0353 -2.2700
 2481SOL     OW 8126   0.813   0.839   1.592 -0.2478  0.2963  0.4081
 2481SOL    HW1 8127   0.819   0.935   1.596 -1.3950  0.5835 -2.2473
 2481SOL    HW2 8128   0.895   0.808   1.630 -0.3724  2.2553  2.4760
 2482SOL     OW 8129   4.471   3.889   5.465 -0.0987 -0.5520 -0.7881
 2482SOL    HW1 8130   4.473   3.795   5.484 -0.0345 -0.4362 -0.2093
 2482SOL    HW2 8131   4.383   3.904   5.430 -0.6988 -0.5550  0.6249
 2483SOL     OW 8132   0.593   5.667   4.293 -0.7157  1.0400  0.8917
 2483SOL    HW1 8133   0.673   5.698   4.250 -1.9045  0.1971 -2.1297
 2483SOL    HW2 8134   0.625   5.611   4.364  1.3644  1.3666  0.2832
 2484SOL     OW 8135   4.259   3.736   4.171 -0.0994  0.5352 -0.7038
 2484SOL    HW1 8136   4.271   3.645   4.145  1.3417 -0.1851  2.0653
 2484SOL    HW2 8137   4.164   3.748   4.176 -0.3389 -1.5231  0.8844
 2485SOL     OW 8138   4.514   6.318   0.961 -0.2380  0.3877 -0.0544
 2485SOL    HW1 8139   4.551   6.241   0.917 -2.0400 -0.8915  0.5512
 2485SOL    HW2 8140   4.527   6.390   0.899  2.9477  0.0188  0.0173
 2486SOL     OW 8141   1.366   0.373   5.411  0.0604 -0.1639 -0.0292
 2486SOL    HW1 8142   1.271   0.373   5.418 -0.0591  0.3266 -1.4025
 2486SOL    HW2 8143   1.384   0.421   5.330  1.5619  1.5441  1.2362
 2487SOL     OW 8144   2.929   3.841   2.982 -0.2362  0.3091  0.2084
 2487SOL    HW1 8145   2.961   3.926   2.950  2.2106 -1.0755 -1.3641
 2487SOL    HW2 8146   2.860   3.817   2.920  0.7820  0.0752 -0.8695
 2488SOL     OW 8147   4.032   0.408   0.610  0.2632  0.4353  0.6292
 2488SOL    HW1 8148   3.941   0.437   0.602  0.3217  0.7126  0.9594
 2488SOL    HW2 8149   4.082   0.488   0.623  0.3441  0.1526  2.2965
 2489SOL     OW 8150   4.143   0.932   5.152 -0.2168  0.0313  0.8931
 2489SOL    HW1 8151   4.176   1.013   5.114  0.4135 -1.2842 -1.5760
 2489SOL    HW2 8152   4.219   0.890   5.192  0.2358 -0.8931 -0.8496
 2490SOL     OW 8153   6.356   3.261   1.692  0.0423 -0.3007  0.3357
 2490SOL    HW1 8154   6.410   3.339   1.681 -0.3859  0.0745  0.8324
 2490SOL    HW2 8155   6.396   3.214   1.765 -1.0338  0.6406  1.5794
 2491SOL     OW 8156   0.609   3.733   0.891 -0.3818 -0.0969 -0.1873
 2491SOL    HW1 8157   0.584   3.740   0.983 -1.5623 -1.6680 -0.3444
 2491SOL    HW2 8158   0.543   3.675   0.853  0.1695  0.4143 -1.9997
 2492SOL     OW 8159   1.610   5.559   0.575 -0.0401  0.3154  0.4910
 2492SOL    HW1 8160   1.666   5.501   0.627  0.1178 -2.0746 -2.0770
 2492SOL    HW2 8161   1.529   5.509   0.564 -1.0910  1.9278  0.6629
 2493SOL     OW 8162   6.406   5.765   0.382 -0.0802  0.1845  0.3292
 2493SOL    HW1 8163   6.381   5.857   0.371  2.0129  0.6814 -0.6974
 2493SOL    HW2 8164   6.491   5.769   0.427 -0.6150 -1.3315  1.5581
 2494SOL     OW 8165   1.644   5.488   3.098  0.1317  0.0590 -0.1345
 2494SOL    HW1 8166   1.610   5.467   3.011 -0.0036  0.1722 -0.1084
 2494SOL    HW2 8167   1.571   5.473   3.157  0.1576  0.2047 -0.0668
 2495SOL     OW 8168   2.087   2.964   2.327  0.2027  0.2741  0.4377
 2495SOL    HW1 8169   2.113   3.012   2.248  0.9317 -1.3043 -0.3432
 2495SOL    HW2 8170   2.165   2.914   2.350 -0.8532 -1.4221  0.5068
 2496SOL     OW 8171   1.754   3.067   0.497  0.6117 -0.4933 -0.2371
 2496SOL    HW1 8172   1.801   3.110   0.568  0.8722 -1.1416 -0.0049
 2496SOL    HW2 8173   1.782   3.113   0.418  0.3000  0.2500  0.0800
 2497SOL     OW 8174   2.001   0.035   3.799  0.0485 -0.0018 -0.0681
 2497SOL    HW1 8175   1.958   0.085   3.868  0.7573 -0.3648  0.6505
 2497SOL    HW2 8176   1.948  -0.044   3.790 -0.9407  0.7437 -1.0447
 2498SOL     OW 8177   1.260   3.621   3.865 -0.7821 -0.4073 -0.5860
 2498SOL    HW1 8178   1.313   3.585   3.793  1.3360  1.6175 -0.1539
 2498SOL    HW2 8179   1.287   3.713   3.870 -2.7699  0.1363  1.1627
 2499SOL     OW 8180   0.971   4.014   4.554  0.0079 -0.2167  1.0068
 2499SOL    HW1 8181   1.043   3.993   4.495 -0.8672 -2.0944  0.5530
 2499SOL    HW2 8182   0.934   4.095   4.518  0.2793 -0.6477 -0.2945
 2500SOL     OW 8183   0.829   1.501   6.084 -0.0010  0.8106 -0.1136
 2500SOL    HW1 8184   0.825   1.516   5.989 -0.4615  0.0714 -0.2273
 2500SOL    HW2 8185   0.883   1.422   6.093  0.7574  1.3669  0.3096
 2501SOL     OW 8186   1.390   6.336   3.239  0.4905 -0.1876  0.4860
 2501SOL    HW1 8187   1.299   6.355   3.260  0.9132  1.0185  1.3619
 2501SOL    HW2 8188   1.387   6.258   3.184 -1.1293  0.3614 -0.2603
 2502SOL     OW 8189   6.375   3.802   5.825  0.1251  0.3511 -0.3247
 2502SOL    HW1 8190   6.411   3.829   5.909  1.3069 -1.0177 -0.3506
 2502SOL    HW2 8191   6.283   3.831   5.827  0.4489  1.3480  0.9444
 2503SOL     OW 8192   5.393   2.555   3.636 -0.8057 -0.2165  0.3111
 2503SOL    HW1 8193   5.447   2.633   3.623 -1.3690  0.0746 -0.3355
 2503SOL    HW2 8194   5.387   2.545   3.731 -0.9577  0.6908  0.4046
 2504SOL     OW 8195   3.638   1.124   2.376  0.3431 -0.2405 -0.2998
 2504SOL    HW1 8196   3.644   1.110   2.281  2.6384  2.2843 -0.6864
 2504SOL    HW2 8197   3.546   1.113   2.397 -0.0428 -2.0799 -2.5852
 2505SOL     OW 8198   1.730   3.635   0.868  0.6034  0.6798  0.1011
 2505SOL    HW1 8199   1.820   3.639   0.898  0.6333  2.1206 -0.0967
 2505SOL    HW2 8200   1.678   3.623   0.948  0.8800  1.5018  0.4198
 2506SOL     OW 8201   0.233   4.943   3.171 -0.2025  0.2867 -0.0029
 2506SOL    HW1 8202   0.260   4.852   3.173  1.2320  0.6362  3.2164
 2506SOL    HW2 8203   0.148   4.944   3.216 -1.0454  0.3954 -1.5269
 2507SOL     OW 8204   5.095   3.727   0.196 -0.2766 -0.4364  0.0574
 2507SOL    HW1 8205   5.141   3.652   0.159  0.6499  0.2695 -0.2396
 2507SOL    HW2 8206   5.115   3.800   0.138  0.6279  0.5368  1.5195
 2508SOL     OW 8207   0.916   0.032   6.055 -0.6332  0.0913 -0.1532
 2508SOL    HW1 8208   0.946  -0.056   6.080 -1.9619 -0.9346 -1.9541
 2508SOL    HW2 8209   0.886   0.071   6.137 -0.6811 -1.4135  0.5866
 2509SOL     OW 8210   1.617   0.507   5.453 -0.3421 -0.1540  0.2374
 2509SOL    HW1 8211   1.544   0.568   5.459  0.2160  0.4467  1.1140
 2509SOL    HW2 8212   1.679   0.549   5.393 -0.9505 -0.9380 -0.9868
 2510SOL     OW 8213   2.606   5.475   6.289  0.5951  0.2335  0.0844
 2510SOL    HW1 8214   2.554   5.442   6.362  0.1018 -0.2006 -0.4490
 2510SOL    HW2 8215   2.589   5.412   6.218  1.5645  0.2885 -0.2041
 2511SOL     OW 8216   2.128   4.990   2.061  0.3414 -0.6174  0.6194
 2511SOL    HW1 8217   2.112   5.081   2.087 -0.3127 -1.1333  2.1182
 2511SOL    HW2 8218   2.043   4.948   2.067  0.9624 -1.7606  1.7450
 2512SOL     OW 8219   1.780   2.316   0.076  0.3765  0.2879 -0.3998
 2512SOL    HW1 8220   1.865   2.337   0.037  0.5703 -0.0694 -0.1787
 2512SOL    HW2 8221   1.802   2.281   0.162  0.0583 -0.6153 -0.6698
 2513SOL     OW 8222   3.458   6.471   0.623  0.0769  0.0838 -0.0999
 2513SOL    HW1 8223   3.410   6.411   0.678 -0.4876  0.6503  0.0335
 2513SOL    HW2 8224   3.453   6.433   0.535  0.7063 -0.6507  0.1694
 2514SOL     OW 8225   5.834   4.601   2.147  0.6817  0.6104  0.0830
 2514SOL    HW1 8226   5.804   4.615   2.057  1.7178  2.1887 -0.0576
 2514SOL    HW2 8227   5.914   4.654   2.154  0.6116  0.5301  1.9458
 2515SOL     OW 8228   3.536   2.445   3.438 -0.5543 -0.5242 -0.5526
 2515SOL    HW1 8229   3.606   2.509   3.433 -1.7314  0.9051  0.4858
 2515SOL    HW2 8230   3.500   2.455   3.526 -0.9159 -2.4825 -0.4213
 2516SOL     OW 8231   5.383   1.347   2.942 -0.5369 -0.4854 -0.1871
 2516SOL    HW1 8232   5.385   1.439   2.969 -1.5223 -0.7612  0.9054
 2516SOL    HW2 8233   5.297   1.316   2.970  0.5303 -2.2820  1.3731
 2517SOL     OW 8234   2.253   3.475   1.539 -0.5621  0.3433  0.6408
 2517SOL    HW1 8235   2.224   3.542   1.478 -0.7518 -0.0808  0.2648
 2517SOL    HW2 8236   2.201   3.398   1.518 -0.6185  0.1837  1.3264
 2518SOL     OW 8237   4.428   2.508   0.229 -0.0874  0.2786 -0.0036
 2518SOL    HW1 8238   4.415   2.578   0.292 -1.3740  0.7393 -0.7386
 2518SOL    HW2 8239   4.373   2.532   0.154  0.7132 -0.6854 -0.9512
 2519SOL     OW 8240   6.415   6.075   5.287 -0.0294 -0.1340 -0.2030
 2519SOL    HW1 8241   6.431   6.167   5.267 -0.8935  0.4164  1.4733
 2519SOL    HW2 8242   6.385   6.074   5.377 -0.6725 -2.0074 -0.3757
 2520SOL     OW 8243   0.825   2.048   1.618 -0.0164  0.3719 -0.2001
 2520SOL    HW1 8244   0.840   2.055   1.524  1.4513 -0.9686 -0.1221
 2520SOL    HW2 8245   0.828   2.138   1.650  0.2424  0.7792 -1.3327
 2521SOL     OW 8246   1.270   0.841   6.051  0.5060  0.7207 -0.2188
 2521SOL    HW1 8247   1.218   0.838   5.971 -0.5945  2.4868  0.3487
 2521SOL    HW2 8248   1.267   0.752   6.086 -0.5859  0.3597 -1.1753
 2522SOL     OW 8249   1.934   2.256   6.262 -0.1019 -0.0756  0.0757
 2522SOL    HW1 8250   1.923   2.250   6.167  1.1651  1.3177 -0.2036
 2522SOL    HW2 8251   1.871   2.194   6.298 -1.2365  0.0280 -1.6423
 2523SOL     OW 8252   1.290   1.290   4.807  0.0258 -0.1565  0.4871
 2523SOL    HW1 8253   1.281   1.303   4.901  0.4851  0.4822  0.4552
 2523SOL    HW2 8254   1.321   1.200   4.797  2.5414  0.5646  1.1357
 2524SOL     OW 8255   2.610   2.656   0.866  0.1940 -0.1996  0.5429
 2524SOL    HW1 8256   2.684   2.683   0.920  0.2375  1.8015 -0.4285
 2524SOL    HW2 8257   2.533   2.676   0.919  0.2327  1.8342 -0.0820
 2525SOL     OW 8258   3.621   0.210   6.122  0.3314 -0.0781 -0.2438
 2525SOL    HW1 8259   3.559   0.234   6.192 -0.5990 -0.1232 -1.0229
 2525SOL    HW2 8260   3.611   0.280   6.057  0.4977 -0.5133 -0.7484
 2526SOL     OW 8261   3.928   1.488   1.218  0.2354  0.0971  0.2999
 2526SOL    HW1 8262   3.853   1.437   1.187 -0.4155  0.4590  1.2257
 2526SOL    HW2 8263   3.971   1.518   1.138 -1.1072  0.6045 -0.2673
 2527SOL     OW 8264   5.889   3.345   6.418  0.2882 -0.1479  0.2524
 2527SOL    HW1 8265   5.806   3.367   6.376  1.5621  0.7235 -2.0023
 2527SOL    HW2 8266   5.910   3.258   6.385  1.2959  0.5416 -1.0234
 2528SOL     OW 8267   5.909   1.112   1.816 -0.3480 -0.0753 -0.0455
 2528SOL    HW1 8268   6.004   1.120   1.810 -0.1958 -2.0610 -0.7398
 2528SOL    HW2 8269   5.893   1.021   1.838 -2.0908  0.4195  0.9946
 2529SOL     OW 8270   0.708   3.968   5.443 -0.1435  0.1590  0.0736
 2529SOL    HW1 8271   0.638   3.939   5.383  0.0164 -2.1818  0.9275
 2529SOL    HW2 8272   0.702   3.908   5.517  3.2295 -0.6337 -0.1527
 2530SOL     OW 8273   1.202   4.714   0.920 -0.4181  0.2722 -0.0780
 2530SOL    HW1 8274   1.217   4.632   0.966 -2.0882 -0.4083 -0.6644
 2530SOL    HW2 8275   1.108   4.714   0.901 -0.8040  3.0440  1.2882
 2531SOL     OW 8276   0.886   4.702   1.678 -0.1370 -0.2974 -0.0452
 2531SOL    HW1 8277   0.901   4.720   1.771  0.2509  0.0512 -0.1744
 2531SOL    HW2 8278   0.814   4.759   1.653  0.8209  0.8086 -0.3533
 2532SOL     OW 8279   3.113   5.017   0.724  0.3915 -0.8167 -0.3865
 2532SOL    HW1 8280   3.017   5.019   0.729  0.3161 -2.1595 -0.8810
 2532SOL    HW2 8281   3.136   5.098   0.678 -0.6501 -1.3490 -1.9375
 2533SOL     OW 8282   2.604   5.389   0.297  0.0437  0.3614  0.4721
 2533SOL    HW1 8283   2.647   5.350   0.374 -0.2099  2.1416  1.5782
 2533SOL    HW2 8284   2.666   5.453   0.264  1.3323 -2.1874 -2.5859
 2534SOL     OW 8285   3.684   4.589   0.948  0.4022 -0.4140  0.8213
 2534SOL    HW1 8286   3.658   4.604   1.040 -0.7965 -0.2118  0.4686
 2534SOL    HW2 8287   3.720   4.673   0.921  0.5929 -0.4183  1.0554
 2535SOL     OW 8288   5.723   4.749   5.252  0.5971 -0.8014  0.0877
 2535SOL    HW1 8289   5.819   4.747   5.253  0.6074 -0.8305 -0.4261
 2535SOL    HW2 8290   5.701   4.806   5.177  0.2155  0.7555  1.3267
 2536SOL     OW 8291   1.146   4.595   2.440  0.4614  0.2048 -0.0260
 2536SOL    HW1 8292   1.205   4.658   2.399  0.7333  0.0930  0.1897
 2536SOL    HW2 8293   1.060   4.612   2.400  0.2851  1.4794  0.8478
 2537SOL     OW 8294   5.232   2.238   0.090  0.1541 -0.7884 -0.0637
 2537SOL    HW1 8295   5.143   2.218   0.119 -0.6171 -0.7414 -2.1593
 2537SOL    HW2 8296   5.269   2.291   0.160 -1.2594 -1.3218  1.1332
 2538SOL     OW 8297   2.743   4.944   2.383  0.2226 -0.3268  0.2374
 2538SOL    HW1 8298   2.696   5.023   2.357 -1.4164 -0.9117  1.2705
 2538SOL    HW2 8299   2.736   4.886   2.308 -0.3558 -0.2559  0.2359
 2539SOL     OW 8300   0.351   3.760   5.587 -0.3828  0.1100  0.1644
 2539SOL    HW1 8301   0.444   3.772   5.605 -0.2778 -0.3807 -0.0308
 2539SOL    HW2 8302   0.328   3.680   5.634 -0.5529 -0.1293 -0.3174
 2540SOL     OW 8303   6.107   5.731   1.856  0.1813 -0.0833 -0.6477
 2540SOL    HW1 8304   6.158   5.734   1.776  0.7048  0.1104 -0.3141
 2540SOL    HW2 8305   6.016   5.745   1.827  0.5291  1.6418 -1.0647
 2541SOL     OW 8306   6.455   4.209   0.143 -0.2298 -0.1638  0.0147
 2541SOL    HW1 8307   6.390   4.267   0.183 -0.1715 -0.9341  1.2771
 2541SOL    HW2 8308   6.403   4.146   0.093 -0.4519 -0.4487  0.5833
 2542SOL     OW 8309   6.088   0.009   4.817  0.4276 -1.0209 -0.1422
 2542SOL    HW1 8310   6.034   0.088   4.820  0.7409 -0.8370  1.2615
 2542SOL    HW2 8311   6.149   0.019   4.890  2.7579 -0.9676 -1.9978
 2543SOL     OW 8312   2.103   4.616   1.585  0.8768  0.0767  0.1888
 2543SOL    HW1 8313   2.191   4.596   1.615  0.7396 -0.3716  0.2964
 2543SOL    HW2 8314   2.046   4.590   1.658  0.5666 -0.7235 -0.3286
 2544SOL     OW 8315   0.703   5.650   3.315 -0.0828  0.2218  0.1176
 2544SOL    HW1 8316   0.650   5.656   3.394 -0.6829 -2.1452 -0.0258
 2544SOL    HW2 8317   0.779   5.598   3.342 -0.3883 -0.7774 -0.8671
 2545SOL     OW 8318   2.469   5.510   1.797 -0.3742  0.8347  0.4437
 2545SOL    HW1 8319   2.498   5.565   1.724 -0.3055  0.9556  0.5617
 2545SOL    HW2 8320   2.532   5.438   1.799 -0.8217  0.4262 -0.0959
 2546SOL     OW 8321   0.774   1.806   2.358  0.6530 -0.3007 -0.5566
 2546SOL    HW1 8322   0.785   1.868   2.286 -0.2574  0.2192 -0.2688
 2546SOL    HW2 8323   0.836   1.834   2.425  0.9553 -0.3178 -0.8259
 2547SOL     OW 8324   1.038   3.851   1.399 -0.4658  0.3330 -0.0037
 2547SOL    HW1 8325   1.000   3.785   1.457 -2.7783  0.9869 -0.6751
 2547SOL    HW2 8326   1.025   3.816   1.311  0.6107  0.5595 -0.2725
 2548SOL     OW 8327   2.573   3.266   3.687  0.4313 -0.3561  0.0706
 2548SOL    HW1 8328   2.626   3.293   3.612  0.1294 -0.1082 -0.0533
 2548SOL    HW2 8329   2.637   3.256   3.759  0.6712 -0.2527 -0.1263
 2549SOL     OW 8330   5.611   0.426   5.964 -0.0734 -0.5639  0.8157
 2549SOL    HW1 8331   5.618   0.423   6.060  1.2267 -0.1033  0.7548
 2549SOL    HW2 8332   5.611   0.335   5.937 -1.4309 -0.7218  1.3057
 2550SOL     OW 8333   2.364   1.636   3.915 -0.4136 -0.1281  0.0547
 2550SOL    HW1 8334   2.279   1.615   3.876 -0.5663 -1.2771  0.9362
 2550SOL    HW2 8335   2.394   1.714   3.868 -2.0643  0.4554 -0.0983
 2551SOL     OW 8336   1.641   3.184   0.817 -0.2021  0.7475 -0.1875
 2551SOL    HW1 8337   1.582   3.153   0.748  0.2280 -0.6713  0.0350
 2551SOL    HW2 8338   1.592   3.252   0.862 -0.7305  1.2677 -1.4991
 2552SOL     OW 8339   3.735   2.816   5.020  0.5020  0.3695  0.5267
 2552SOL    HW1 8340   3.826   2.789   5.030  0.9105  1.0875 -1.0275
 2552SOL    HW2 8341   3.735   2.875   4.945 -1.1079  1.0934  1.0459
 2553SOL     OW 8342   5.068   2.176   6.360 -0.3160 -0.8294  0.1778
 2553SOL    HW1 8343   5.046   2.239   6.292 -0.1896 -1.2306 -0.2368
 2553SOL    HW2 8344   5.052   2.223   6.442  1.0540  0.2185 -0.1119
 2554SOL     OW 8345   2.068   6.440   0.865  0.3361  0.1899 -0.3408
 2554SOL    HW1 8346   2.031   6.370   0.920  0.4161  0.8424  0.5626
 2554SOL    HW2 8347   2.012   6.440   0.788 -1.8038  1.3170  1.1016
 2555SOL     OW 8348   6.081   3.729   3.411  0.1404 -0.0335 -0.0454
 2555SOL    HW1 8349   6.116   3.758   3.326  0.7443 -1.0002 -0.1409
 2555SOL    HW2 8350   6.069   3.810   3.460  0.3927  0.4920 -0.8232
 2556SOL     OW 8351   4.480   2.132   4.580  0.2723 -0.4899  0.4549
 2556SOL    HW1 8352   4.506   2.061   4.522 -2.7899  0.1296 -1.9352
 2556SOL    HW2 8353   4.434   2.089   4.653  1.9079 -1.1179  1.1555
 2557SOL     OW 8354   0.983   1.375   0.528  0.1847  0.0073  0.4471
 2557SOL    HW1 8355   0.938   1.409   0.605  0.5120  3.8575 -0.8625
 2557SOL    HW2 8356   1.073   1.404   0.538  0.6001 -0.8040 -0.6938
 2558SOL     OW 8357   5.844   2.087   5.705  0.6355 -0.1837  0.2500
 2558SOL    HW1 8358   5.887   2.130   5.779 -0.2674  0.9034  0.1569
 2558SOL    HW2 8359   5.816   2.002   5.741 -0.2758  0.5437  1.3256
 2559SOL     OW 8360   3.082   0.183   1.014 -0.0815 -0.1522 -0.2028
 2559SOL    HW1 8361   2.998   0.228   1.026  0.0054 -0.4372  1.8976
 2559SOL    HW2 8362   3.067   0.125   0.939 -1.9266 -0.4660  0.3334
 2560SOL     OW 8363   2.355   3.238   5.745  0.6029  0.0183 -0.5905
 2560SOL    HW1 8364   2.292   3.199   5.805  0.1020  1.0969 -0.3971
 2560SOL    HW2 8365   2.328   3.209   5.658  3.0253 -3.9988 -0.2219
 2561SOL     OW 8366   1.192   6.088   2.897  0.7163  0.5192 -0.2998
 2561SOL    HW1 8367   1.253   6.081   2.971  0.8435 -0.3554 -0.4794
 2561SOL    HW2 8368   1.214   6.172   2.856  0.0833  1.4227  1.1358
 2562SOL     OW 8369   1.067   4.285   1.754 -0.1925 -0.0061 -0.0228
 2562SOL    HW1 8370   0.974   4.308   1.754  0.0129  0.9070  0.9412
 2562SOL    HW2 8371   1.112   4.366   1.729  0.2941 -0.7854 -1.7805
 2563SOL     OW 8372   4.480   4.008   3.563 -0.1750 -0.1853  0.2296
 2563SOL    HW1 8373   4.408   4.017   3.501  0.4415 -0.3237 -0.5134
 2563SOL    HW2 8374   4.442   4.033   3.648 -0.5252  1.9740 -0.4874
 2564SOL     OW 8375   3.258   5.828   0.607  0.2413 -0.1854 -0.1913
 2564SOL    HW1 8376   3.232   5.817   0.698  1.8666 -0.9896  0.2025
 2564SOL    HW2 8377   3.343   5.872   0.611  0.5778 -0.6912 -1.2862
 2565SOL     OW 8378   3.498   4.377   5.525  0.0456  0.3574 -0.0641
 2565SOL    HW1 8379   3.529   4.341   5.443 -0.7937  0.1019 -0.2733
 2565SOL    HW2 8380   3.570   4.361   5.587 -0.3299 -1.7587 -0.1162
 2566SOL     OW 8381   1.231   5.995   6.404 -0.3199 -0.6784 -0.3399
 2566SOL    HW1 8382   1.227   5.972   6.497  0.1258 -0.7066 -0.3222
 2566SOL    HW2 8383   1.169   6.067   6.394 -1.1727 -1.3855 -0.2430
 2567SOL     OW 8384   5.021   4.705   1.298 -0.2334  0.5345 -0.5154
 2567SOL    HW1 8385   5.009   4.639   1.366  0.2250  0.9377 -0.0381
 2567SOL    HW2 8386   5.029   4.787   1.346 -0.6424  0.9215 -1.0969
 2568SOL     OW 8387   1.772   0.589   0.405 -0.3305 -0.5369  0.0916
 2568SOL    HW1 8388   1.837   0.524   0.380 -0.2665 -1.1879  1.7994
 2568SOL    HW2 8389   1.767   0.649   0.330  3.1718  0.2894  0.3256
 2569SOL     OW 8390   4.944   1.683   0.153 -0.5657  0.0168 -0.3102
 2569SOL    HW1 8391   4.956   1.678   0.058 -1.5408  1.5952 -0.5614
 2569SOL    HW2 8392   4.850   1.670   0.165 -0.3610 -0.8190  0.5265
 2570SOL     OW 8393   5.712   0.512   5.216  0.1911 -0.1687  0.0971
 2570SOL    HW1 8394   5.709   0.504   5.121  0.9044  0.0421  0.0519
 2570SOL    HW2 8395   5.629   0.554   5.240 -1.3418 -2.8286 -0.1473
 2571SOL     OW 8396   6.069   1.722   2.280 -0.3003 -0.1149 -0.4429
 2571SOL    HW1 8397   6.104   1.642   2.320 -1.0376 -0.7118 -0.9592
 2571SOL    HW2 8398   5.974   1.709   2.279 -0.9313  2.5631  3.3297
 2572SOL     OW 8399   0.292   5.818   2.555 -0.4434  0.2185  0.1965
 2572SOL    HW1 8400   0.222   5.826   2.490 -1.2011  1.2053  1.0947
 2572SOL    HW2 8401   0.295   5.904   2.597  1.2282  0.1493  0.2760
 2573SOL     OW 8402   2.570   2.099   4.432 -0.5791 -0.2658  0.0823
 2573SOL    HW1 8403   2.496   2.047   4.401  1.2426 -1.8027 -2.1113
 2573SOL    HW2 8404   2.626   2.035   4.477  0.2548  0.4275  0.0631
 2574SOL     OW 8405   0.426   3.220   4.464 -0.0761 -0.0001  0.8290
 2574SOL    HW1 8406   0.516   3.251   4.475 -0.0854  0.4791 -0.3662
 2574SOL    HW2 8407   0.408   3.173   4.545  1.2336 -0.0641  1.1148
 2575SOL     OW 8408   1.697   0.340   5.691 -0.0449 -0.4249 -0.2341
 2575SOL    HW1 8409   1.770   0.286   5.660  0.5721 -0.2223  0.7832
 2575SOL    HW2 8410   1.733   0.429   5.696 -0.4558 -0.2648 -0.0375
 2576SOL     OW 8411   3.679   0.719   5.402 -0.4026  0.1157 -0.2548
 2576SOL    HW1 8412   3.739   0.739   5.330  1.0450 -0.6317  0.6873
 2576SOL    HW2 8413   3.708   0.776   5.474 -1.9489  0.9958 -0.2916
 2577SOL     OW 8414   6.144   5.928   0.893  0.2380  0.6104 -0.6648
 2577SOL    HW1 8415   6.123   5.892   0.980 -1.7527  0.8679 -0.9962
 2577SOL    HW2 8416   6.195   6.007   0.912  0.8890  0.0029  0.2084
 2578SOL     OW 8417   5.087   3.742   5.077  0.4782  0.2470  0.8777
 2578SOL    HW1 8418   5.053   3.818   5.124 -0.4534  0.7375 -0.5280
 2578SOL    HW2 8419   5.180   3.763   5.062 -0.0390  1.6899 -0.5386
 2579SOL     OW 8420   2.859   2.088   0.569 -0.3618  0.0950 -0.3102
 2579SOL    HW1 8421   2.810   2.062   0.491 -0.5720 -0.7311  0.0886
 2579SOL    HW2 8422   2.862   2.010   0.624 -0.2720  0.6793  0.5501
 2580SOL     OW 8423   6.315   1.494   2.570  0.3920 -0.1699 -0.3916
 2580SOL    HW1 8424   6.356   1.418   2.613  0.3392 -0.7032 -1.2547
 2580SOL    HW2 8425   6.373   1.567   2.592  0.2501 -0.3795  0.7528
 2581SOL     OW 8426   1.477   0.564   1.788  0.4818  0.1988 -0.1754
 2581SOL    HW1 8427   1.451   0.478   1.756  0.0122  0.7013 -1.1728
 2581SOL    HW2 8428   1.563   0.550   1.828  0.9617 -0.5034 -1.4275
 2582SOL     OW 8429   1.945   1.722   3.578  0.3907  0.3434  0.3190
 2582SOL    HW1 8430   1.954   1.788   3.509 -1.7257 -1.0500 -1.4149
 2582SOL    HW2 8431   1.946   1.638   3.531 -0.7254 -0.6779  2.0238
 2583SOL     OW 8432   1.079   0.504   2.527 -0.1047 -0.0280 -0.0816
 2583SOL    HW1 8433   1.054   0.525   2.437 -2.3305  1.8536  0.8595
 2583SOL    HW2 8434   1.082   0.408   2.529  0.3741 -0.1172 -2.2121
 2584SOL     OW 8435   4.807   1.655   4.774 -0.2518 -0.1643  0.2922
 2584SOL    HW1 8436   4.842   1.741   4.752 -0.8718 -0.0397 -0.2231
 2584SOL    HW2 8437   4.879   1.594   4.753 -0.7246 -0.0395 -1.9235
 2585SOL     OW 8438   5.563   3.983   0.269 -0.2310 -0.1612  0.1625
 2585SOL    HW1 8439   5.591   4.044   0.202  0.5687 -0.0695  0.5735
 2585SOL    HW2 8440   5.544   4.037   0.345  0.0469 -0.3839  0.3909
 2586SOL     OW 8441   4.969   2.117   3.959 -0.1693 -0.0051  0.2245
 2586SOL    HW1 8442   5.032   2.162   3.903 -1.6640  1.4159 -0.4178
 2586SOL    HW2 8443   4.931   2.049   3.903 -0.0497 -0.0849  0.2399
 2587SOL     OW 8444   3.873   5.383   1.160  0.4187  0.9215 -0.8819
 2587SOL    HW1 8445   3.811   5.386   1.088  0.7501  2.2080 -1.1434
 2587SOL    HW2 8446   3.875   5.473   1.193 -0.0564  0.2860  1.0237
 2588SOL     OW 8447   4.781   4.655   1.543  0.0085  0.0165  0.3904
 2588SOL    HW1 8448   4.745   4.737   1.509 -0.2311  0.1032  0.8409
 2588SOL    HW2 8449   4.759   4.590   1.477  0.5508  0.3854 -0.1642
 2589SOL     OW 8450   4.715   6.366   4.374  0.8909  0.1637 -0.2416
 2589SOL    HW1 8451   4.779   6.436   4.385  2.6339 -1.5404  1.0894
 2589SOL    HW2 8452   4.730   6.308   4.448 -1.0518 -1.2250 -0.8592
 2590SOL     OW 8453   2.283   0.326   5.746  0.7142 -0.1134  0.2737
 2590SOL    HW1 8454   2.276   0.281   5.830  1.3788  0.3231  0.5671
 2590SOL    HW2 8455   2.229   0.404   5.755 -1.6617 -1.5197 -0.7354
 2591SOL     OW 8456   5.561   3.933   3.477  0.1506  0.0218 -0.6580
 2591SOL    HW1 8457   5.499   3.888   3.534 -0.0999  0.4909 -0.5584
 2591SOL    HW2 8458   5.644   3.886   3.491 -0.0399 -0.2257 -0.3404
 2592SOL     OW 8459   2.650   1.901   5.374 -0.1385  0.0168 -0.0672
 2592SOL    HW1 8460   2.719   1.959   5.342  0.4709 -0.2243  0.7614
 2592SOL    HW2 8461   2.654   1.910   5.469  0.8639 -2.3333  0.1791
 2593SOL     OW 8462   0.203   5.079   4.750 -0.4723  0.5080 -0.4005
 2593SOL    HW1 8463   0.290   5.113   4.728  0.2569 -0.1004  1.3687
 2593SOL    HW2 8464   0.220   4.993   4.787 -1.7968  0.5560  0.3644
 2594SOL     OW 8465   1.677   5.817   4.444  0.3600 -0.9972  0.0887
 2594SOL    HW1 8466   1.743   5.754   4.470  1.3991  0.1691  0.3742
 2594SOL    HW2 8467   1.727   5.894   4.415 -0.8572  0.0716  0.7072
 2595SOL     OW 8468   0.421   0.955   3.948 -0.2775  0.4756  0.0922
 2595SOL    HW1 8469   0.398   0.963   4.041 -4.6205 -0.4460 -0.7248
 2595SOL    HW2 8470   0.383   1.033   3.907  1.0658  0.5684 -1.0720
 2596SOL     OW 8471   6.019   2.514   5.091  0.2665  0.8659  0.0076
 2596SOL    HW1 8472   6.057   2.428   5.073  0.7337  1.0532  0.0963
 2596SOL    HW2 8473   5.980   2.540   5.007 -1.8061 -0.3734  0.5186
 2597SOL     OW 8474   1.855   3.404   3.145  0.3572  0.1439  0.5987
 2597SOL    HW1 8475   1.919   3.344   3.106  2.7421  2.0071  1.4230
 2597SOL    HW2 8476   1.802   3.433   3.071  0.0046 -1.8795 -0.0243
 2598SOL     OW 8477   0.651   0.326   1.098 -0.9839  0.0428  0.2606
 2598SOL    HW1 8478   0.673   0.367   1.182  0.9726  0.9874 -0.6464
 2598SOL    HW2 8479   0.676   0.391   1.032 -1.3174 -1.1567 -1.1093
 2599SOL     OW 8480   4.898   0.429   0.599 -0.3020  0.3269  0.3179
 2599SOL    HW1 8481   4.879   0.342   0.631  0.9121  0.0997  0.4941
 2599SOL    HW2 8482   4.827   0.484   0.632 -0.8564 -0.5128  0.5453
 2600SOL     OW 8483   1.157   2.139   4.460 -0.6280 -0.3012 -0.6945
 2600SOL    HW1 8484   1.119   2.134   4.548 -0.6204 -1.6600 -0.7465
 2600SOL    HW2 8485   1.086   2.173   4.405 -0.1415  2.1817  0.0646
 2601SOL     OW 8486   2.258   6.319   5.819 -0.1304 -0.0474  0.3229
 2601SOL    HW1 8487   2.233   6.290   5.731  0.0417 -0.2314  0.3354
 2601SOL    HW2 8488   2.175   6.349   5.858 -0.1261  0.4882 -0.0700
 2602SOL     OW 8489   4.906   2.782   2.852 -0.0198  0.6025 -0.0514
 2602SOL    HW1 8490   4.854   2.768   2.773 -0.2047  1.7883 -0.1558
 2602SOL    HW2 8491   4.876   2.715   2.913 -1.0579  0.7189 -0.4149
 2603SOL     OW 8492   3.515   6.146   0.286  0.0131  0.1278  0.3699
 2603SOL    HW1 8493   3.424   6.146   0.314 -0.0053 -0.9635  0.3440
 2603SOL    HW2 8494   3.551   6.228   0.321 -0.7963  0.2473  0.9437
 2604SOL     OW 8495   5.877   4.804   1.860  0.3827 -0.2827 -0.0713
 2604SOL    HW1 8496   5.855   4.888   1.902 -0.1836  0.2102 -1.3084
 2604SOL    HW2 8497   5.956   4.822   1.810  0.5526 -0.6358  0.0645
 2605SOL     OW 8498   1.528   1.945   1.542  0.2241 -0.1452  0.3058
 2605SOL    HW1 8499   1.554   2.037   1.541 -3.2621  0.9888  0.0620
 2605SOL    HW2 8500   1.443   1.944   1.586  0.2246 -3.3190  0.5272
 2606SOL     OW 8501   4.440   6.375   5.444  0.0042 -0.3464 -0.4221
 2606SOL    HW1 8502   4.516   6.379   5.502 -0.1347  0.6439 -0.2861
 2606SOL    HW2 8503   4.432   6.283   5.420  0.2986 -0.7055  0.8207
 2607SOL     OW 8504   2.928   3.602   2.301  0.0120 -0.2037  0.1982
 2607SOL    HW1 8505   2.948   3.620   2.393  0.2875  3.3308 -0.4197
 2607SOL    HW2 8506   2.834   3.581   2.301 -0.3876  1.3564  1.1758
 2608SOL     OW 8507   4.588   0.413   0.266  0.3447  0.0771  0.2894
 2608SOL    HW1 8508   4.498   0.384   0.251  0.7053 -1.4234  0.8657
 2608SOL    HW2 8509   4.587   0.453   0.353  0.2425  0.0027  0.3223
 2609SOL     OW 8510   3.814   2.935   5.427  0.7120 -0.2723  0.4838
 2609SOL    HW1 8511   3.898   2.982   5.431  0.3073  0.6028 -0.7381
 2609SOL    HW2 8512   3.752   2.999   5.392 -0.0595 -1.4500 -0.3972
 2610SOL     OW 8513   2.727   3.376   3.463 -0.3867 -0.1360 -0.4077
 2610SOL    HW1 8514   2.670   3.337   3.396 -0.0692  0.7694 -1.2345
 2610SOL    HW2 8515   2.696   3.466   3.471 -2.2474 -0.8901  2.7371
 2611SOL     OW 8516   0.227   1.477   6.084  0.1399  0.4099  0.1408
 2611SOL    HW1 8517   0.249   1.430   6.164 -0.4917 -0.6421 -0.2725
 2611SOL    HW2 8518   0.146   1.436   6.054  0.9919 -0.0436 -1.6759
 2612SOL     OW 8519   0.216   3.750   1.108 -0.4615  0.0187  0.3193
 2612SOL    HW1 8520   0.281   3.690   1.144  1.7530  0.6647 -2.2348
 2612SOL    HW2 8521   0.135   3.700   1.106  0.7174 -2.0054  0.6204
 2613SOL     OW 8522   0.240   2.747   5.203  0.9784 -0.7713 -0.5370
 2613SOL    HW1 8523   0.329   2.734   5.168  0.9878 -1.2271 -0.3536
 2613SOL    HW2 8524   0.252   2.752   5.298  1.1485  2.0902 -0.6341
 2614SOL     OW 8525   6.137   6.127   4.319  0.1483 -0.2218  0.1107
 2614SOL    HW1 8526   6.190   6.110   4.242  0.3532  1.5083 -0.1708
 2614SOL    HW2 8527   6.139   6.222   4.329  0.9484 -0.4396  2.8297
 2615SOL     OW 8528   4.619   4.289   4.687 -0.3037 -0.5255  0.1288
 2615SOL    HW1 8529   4.596   4.252   4.772 -0.7001 -1.2655 -0.2856
 2615SOL    HW2 8530   4.572   4.234   4.624  0.4493 -0.3597 -0.5965
 2616SOL     OW 8531   3.484   1.660   1.729  0.5896  0.5081 -0.4252
 2616SOL    HW1 8532   3.549   1.653   1.659 -0.3932  1.7021 -1.5023
 2616SOL    HW2 8533   3.442   1.745   1.715 -0.3995  0.2887  0.9547
 2617SOL     OW 8534   4.448   3.523   6.454  0.4929 -0.0835 -0.1326
 2617SOL    HW1 8535   4.432   3.494   6.544  1.0591  1.2496  0.4339
 2617SOL    HW2 8536   4.369   3.573   6.431  0.1624 -0.7863 -0.5461
 2618SOL     OW 8537   6.490   5.022   3.261 -0.3650  0.4116  0.0872
 2618SOL    HW1 8538   6.472   5.009   3.168 -1.3935  2.2546 -0.0252
 2618SOL    HW2 8539   6.458   5.110   3.279  0.6641  0.4449  1.9884
 2619SOL     OW 8540   0.550   4.490   1.312 -0.6421 -0.1249  0.5167
 2619SOL    HW1 8541   0.484   4.506   1.244  1.2796  1.4613 -1.0756
 2619SOL    HW2 8542   0.552   4.571   1.363  0.3962  0.0274  0.2457
 2620SOL     OW 8543   3.745   3.498   2.845  0.0752 -0.2366 -0.2361
 2620SOL    HW1 8544   3.701   3.513   2.929 -1.6115  0.0986 -1.1293
 2620SOL    HW2 8545   3.748   3.585   2.804 -1.8421 -0.8238 -1.7581
 2621SOL     OW 8546   5.546   6.515   1.153 -0.1350  0.3659 -0.5665
 2621SOL    HW1 8547   5.635   6.486   1.170 -1.4003 -3.0404  1.1948
 2621SOL    HW2 8548   5.501   6.438   1.119 -2.5967  1.7562 -0.7279
 2622SOL     OW 8549   5.556   6.355   6.249 -0.3947  0.2062 -0.2722
 2622SOL    HW1 8550   5.519   6.322   6.331  0.4417 -0.3690 -0.1180
 2622SOL    HW2 8551   5.484   6.405   6.210 -0.0877  2.6144  1.9826
 2623SOL     OW 8552   4.865   1.499   4.288  0.2872 -0.4127 -0.1577
 2623SOL    HW1 8553   4.947   1.451   4.303 -0.0812 -0.9168  0.2622
 2623SOL    HW2 8554   4.892   1.591   4.280  0.9359 -0.6196 -0.4278
 2624SOL     OW 8555   0.868   3.918   1.088  0.0670 -0.3038  0.0694
 2624SOL    HW1 8556   0.849   4.008   1.060  0.7419 -0.6374 -1.5386
 2624SOL    HW2 8557   0.954   3.898   1.051  0.2054 -1.4244  0.9210
 2625SOL     OW 8558   3.802   2.008   0.951 -0.3783 -0.2685  0.1638
 2625SOL    HW1 8559   3.894   2.033   0.960 -0.7353  1.0656  0.3271
 2625SOL    HW2 8560   3.770   2.062   0.879 -0.7678 -1.5600 -0.6646
 2626SOL     OW 8561   0.096   5.063   5.339  0.2631  0.0210  0.2782
 2626SOL    HW1 8562   0.122   5.072   5.248  1.6779  0.4458  0.7032
 2626SOL    HW2 8563   0.001   5.076   5.338  0.1872 -0.4716 -1.1835
 2627SOL     OW 8564   2.843   1.955   2.478 -0.0363 -0.4724  0.8097
 2627SOL    HW1 8565   2.863   2.046   2.502  0.7046 -0.6168  0.7589
 2627SOL    HW2 8566   2.904   1.935   2.407 -1.2423 -0.5158 -0.2686
 2628SOL     OW 8567   2.623   0.880   0.569  0.0603  0.0772 -0.0908
 2628SOL    HW1 8568   2.603   0.965   0.607 -1.7298 -0.6101  0.6144
 2628SOL    HW2 8569   2.561   0.820   0.611 -1.3310 -0.9361 -3.3305
 2629SOL     OW 8570   4.917   4.410   6.186  0.5677  0.4925  0.7647
 2629SOL    HW1 8571   4.998   4.396   6.136  0.0422 -2.7428  0.5789
 2629SOL    HW2 8572   4.945   4.409   6.277  0.8411 -0.0472  0.6841
 2630SOL     OW 8573   5.620   1.999   2.225 -0.3610 -0.3702  0.0885
 2630SOL    HW1 8574   5.663   2.014   2.141 -0.6345 -1.6255 -0.2974
 2630SOL    HW2 8575   5.526   2.005   2.205 -0.4486  1.9996  0.8526
 2631SOL     OW 8576   2.804   4.475   2.183 -0.7531 -0.3205 -0.0450
 2631SOL    HW1 8577   2.845   4.561   2.187 -0.7132 -0.3311 -0.2505
 2631SOL    HW2 8578   2.721   4.486   2.229 -0.9681 -0.0505 -0.4979
 2632SOL     OW 8579   2.805   2.585   3.111 -0.4937 -0.0853  0.1442
 2632SOL    HW1 8580   2.850   2.668   3.093 -0.2260 -0.1186  0.6571
 2632SOL    HW2 8581   2.714   2.610   3.124 -0.4698  0.0910 -0.0167
 2633SOL     OW 8582   5.243   2.685   6.037  0.0317  0.7838 -0.0593
 2633SOL    HW1 8583   5.333   2.706   6.061  0.3546 -0.3840 -0.1725
 2633SOL    HW2 8584   5.199   2.667   6.120  0.3997 -0.4518 -0.1154
 2634SOL     OW 8585   2.575   2.929   3.881  0.0009 -0.5902  0.1113
 2634SOL    HW1 8586   2.627   3.009   3.891 -1.2757  0.3260 -0.4156
 2634SOL    HW2 8587   2.639   2.864   3.852  1.2398 -0.0253  1.4139
 2635SOL     OW 8588   6.352   5.166   1.854 -0.2436  0.0415 -0.1073
 2635SOL    HW1 8589   6.287   5.209   1.909  0.5709 -0.4316  1.2970
 2635SOL    HW2 8590   6.308   5.089   1.819 -0.5412 -0.0800  0.5371
 2636SOL     OW 8591   0.273   6.398   4.333  0.1560 -0.2634 -0.8688
 2636SOL    HW1 8592   0.245   6.309   4.353 -0.4885  0.0249 -0.4790
 2636SOL    HW2 8593   0.215   6.454   4.384  1.9675  0.3269  0.6393
 2637SOL     OW 8594   0.779   3.270   4.221 -0.7140 -0.0919  0.0996
 2637SOL    HW1 8595   0.745   3.310   4.301  1.2988  0.2902  0.8020
 2637SOL    HW2 8596   0.733   3.186   4.215 -1.2715  0.1039  1.3688
 2638SOL     OW 8597   1.710   4.481   5.160  0.2900  0.1242 -0.2710
 2638SOL    HW1 8598   1.675   4.452   5.244 -1.1616 -0.8149 -1.1381
 2638SOL    HW2 8599   1.803   4.495   5.176 -0.1535  1.1192  1.7549
 2639SOL     OW 8600   0.914   2.056   0.338 -0.3684 -0.4893 -0.1439
 2639SOL    HW1 8601   0.965   2.005   0.401 -0.9308 -2.4597 -1.1844
 2639SOL    HW2 8602   0.823   2.034   0.359 -0.6411  0.2844 -0.4898
 2640SOL     OW 8603   6.159   1.470   0.013  0.2834 -0.1123 -0.1733
 2640SOL    HW1 8604   6.095   1.536   0.037  0.2002 -0.6360  1.0749
 2640SOL    HW2 8605   6.108   1.403  -0.033  0.1658  0.0880 -0.3402
 2641SOL     OW 8606   5.003   1.654   3.129  0.1988 -0.5689  0.3340
 2641SOL    HW1 8607   4.972   1.709   3.200  0.2418  0.4329 -0.4094
 2641SOL    HW2 8608   5.098   1.659   3.134  0.2047  0.3755 -0.4369
 2642SOL     OW 8609   4.058   1.624   6.102  0.1434  0.4678 -0.5986
 2642SOL    HW1 8610   4.073   1.585   6.188 -2.5871 -1.8501 -1.0483
 2642SOL    HW2 8611   4.143   1.616   6.057  0.9531 -0.5351  1.0005
 2643SOL     OW 8612   2.161   5.573   5.848 -0.5952  0.2982 -0.1076
 2643SOL    HW1 8613   2.214   5.553   5.925 -2.6689  2.5501  2.1265
 2643SOL    HW2 8614   2.139   5.488   5.811  3.8327 -0.7697 -0.7982
 2644SOL     OW 8615   3.258   5.124   4.017 -0.2517  0.1071  0.1141
 2644SOL    HW1 8616   3.248   5.196   3.954  0.7630 -0.1170 -0.3156
 2644SOL    HW2 8617   3.345   5.136   4.054 -0.3708 -0.4655  0.5935
 2645SOL     OW 8618   1.586   6.085   6.385  0.5804 -0.2981 -0.2023
 2645SOL    HW1 8619   1.577   6.143   6.461 -0.8797 -0.2107 -0.4060
 2645SOL    HW2 8620   1.617   6.002   6.421  1.7352  0.2890  0.2228
 2646SOL     OW 8621   0.418   0.147   4.286 -0.1355  0.3251  0.3762
 2646SOL    HW1 8622   0.355   0.209   4.250 -0.3201 -0.5292 -0.8387
 2646SOL    HW2 8623   0.364   0.081   4.329  0.0105  0.4292  0.7216
 2647SOL     OW 8624   3.572   3.672   2.495 -0.6209 -0.2181 -0.2399
 2647SOL    HW1 8625   3.598   3.584   2.466 -1.7945 -1.2780  1.6986
 2647SOL    HW2 8626   3.479   3.664   2.516 -0.6863  1.4209  0.2671
 2648SOL     OW 8627   0.146   3.859   4.954  0.1291 -0.1373  0.5815
 2648SOL    HW1 8628   0.196   3.779   4.939  1.3076  0.1105  2.7941
 2648SOL    HW2 8629   0.108   3.848   5.041 -0.0525  1.5281  0.7498
 2649SOL     OW 8630   6.210   4.707   2.639  0.3032  0.4880  0.0438
 2649SOL    HW1 8631   6.153   4.687   2.712  0.1457  2.0312  0.3830
 2649SOL    HW2 8632   6.189   4.641   2.573 -1.3128  0.5430  0.4601
 2650SOL     OW 8633   2.199   1.651   6.237  0.6305 -0.1091 -0.5721
 2650SOL    HW1 8634   2.187   1.558   6.217 -0.6188 -0.4078  1.2403
 2650SOL    HW2 8635   2.149   1.697   6.169 -0.8309 -0.9161 -0.1030
 2651SOL     OW 8636   5.421   0.905   3.757 -0.0610  0.1269  0.1081
 2651SOL    HW1 8637   5.501   0.926   3.709 -0.2268 -0.5015 -0.4663
 2651SOL    HW2 8638   5.350   0.923   3.696 -0.5191  2.4682  1.2253
 2652SOL     OW 8639   5.405   2.409   5.539 -0.2402  0.6759 -0.0017
 2652SOL    HW1 8640   5.402   2.331   5.595  0.5396 -0.8220 -1.9255
 2652SOL    HW2 8641   5.491   2.447   5.556  0.0439  0.1564 -0.2581
 2653SOL     OW 8642   4.241   3.847   3.315  0.1166  0.3735 -0.1065
 2653SOL    HW1 8643   4.149   3.820   3.319 -0.4338  1.8012 -1.9803
 2653SOL    HW2 8644   4.285   3.775   3.270 -0.0683 -0.2651  0.6973
 2654SOL     OW 8645   6.011   6.446   0.105  0.0386  0.5827  0.8433
 2654SOL    HW1 8646   6.029   6.539   0.087  0.1840  0.4830  0.4647
 2654SOL    HW2 8647   6.013   6.440   0.201 -0.9066  1.1504  0.9060
 2655SOL     OW 8648   5.592   6.415   0.040 -0.6440 -0.8564  0.2221
 2655SOL    HW1 8649   5.522   6.390   0.101 -0.3204 -2.0122  0.1484
 2655SOL    HW2 8650   5.649   6.473   0.091 -1.7260  0.2376  0.2329
 2656SOL     OW 8651   6.450   1.529   5.900  0.3085 -0.4691  0.9654
 2656SOL    HW1 8652   6.510   1.603   5.892 -0.5330  0.1292 -0.3105
 2656SOL    HW2 8653   6.384   1.545   5.832 -0.0173 -2.2763  0.8020
 2657SOL     OW 8654   5.304   3.622   0.798 -0.1464 -0.4453  0.3269
 2657SOL    HW1 8655   5.225   3.618   0.743 -1.0633 -1.3039  1.6677
 2657SOL    HW2 8656   5.283   3.688   0.864  0.5353 -0.1816  0.2800
 2658SOL     OW 8657   4.891   2.662   6.177  0.2144 -0.0839  0.2167
 2658SOL    HW1 8658   4.882   2.752   6.207  2.0935  0.3294 -0.3282
 2658SOL    HW2 8659   4.978   2.635   6.208 -0.2563 -1.6589  0.2469
 2659SOL     OW 8660   1.162   0.697   3.753  0.4599  0.3404 -0.8327
 2659SOL    HW1 8661   1.068   0.686   3.744  0.7141 -1.1919 -2.0696
 2659SOL    HW2 8662   1.199   0.612   3.729  2.1193  0.5810  0.6144
 2660SOL     OW 8663   2.481   4.425   3.014  0.1784 -0.4992  0.7663
 2660SOL    HW1 8664   2.456   4.517   3.023 -1.6190 -0.8964  0.3192
 2660SOL    HW2 8665   2.531   4.421   2.932 -2.8920 -0.4081 -1.3004
 2661SOL     OW 8666   0.969   2.722   1.448 -0.0360  0.4997  0.5093
 2661SOL    HW1 8667   0.980   2.702   1.355 -0.1388 -3.1983  1.1392
 2661SOL    HW2 8668   1.048   2.771   1.471  1.1932 -0.6265 -1.0550
 2662SOL     OW 8669   2.168   4.264   1.753  0.1299 -0.1509  0.6753
 2662SOL    HW1 8670   2.227   4.245   1.681 -0.0610  2.3282 -0.2345
 2662SOL    HW2 8671   2.208   4.338   1.799 -1.5198  0.6975  0.8610
 2663SOL     OW 8672   6.091   4.930   1.015 -0.2285  0.3737 -0.0992
 2663SOL    HW1 8673   6.183   4.910   1.001 -0.1643  1.3944 -1.2782
 2663SOL    HW2 8674   6.089   5.023   1.035 -0.8346 -0.0341  1.9677
 2664SOL     OW 8675   2.820   3.900   3.301  0.0311  0.2249 -0.4582
 2664SOL    HW1 8676   2.868   3.898   3.384  0.5120 -0.8099 -0.7536
 2664SOL    HW2 8677   2.777   3.815   3.295 -1.7782  1.0561 -0.2746
 2665SOL     OW 8678   5.810   3.943   1.253  0.0601  0.4509  0.0441
 2665SOL    HW1 8679   5.832   3.927   1.345  0.3606  1.1628  0.1071
 2665SOL    HW2 8680   5.895   3.952   1.210 -0.0788 -0.1308 -0.3516
 2666SOL     OW 8681   2.547   0.021   0.181 -0.9195  0.7820 -0.5505
 2666SOL    HW1 8682   2.597   0.012   0.100 -0.4826  2.3395 -0.4948
 2666SOL    HW2 8683   2.612   0.014   0.251 -1.3854 -1.2492 -0.2567
 2667SOL     OW 8684   1.684   6.179   4.045 -0.1014  0.1036  0.0840
 2667SOL    HW1 8685   1.686   6.218   4.132  1.0003 -0.6591  0.4278
 2667SOL    HW2 8686   1.668   6.253   3.985  3.2758  1.4050  0.5706
 2668SOL     OW 8687   6.151   0.801   1.383 -0.3856  0.2197  0.1334
 2668SOL    HW1 8688   6.076   0.798   1.442 -0.6245 -0.7845 -0.2044
 2668SOL    HW2 8689   6.201   0.721   1.402  0.6876  0.9472  0.4605
 2669SOL     OW 8690   2.735   4.346   0.922  0.1713 -0.3562 -0.2216
 2669SOL    HW1 8691   2.781   4.313   0.999  0.3585 -2.3280 -1.1166
 2669SOL    HW2 8692   2.801   4.347   0.853 -0.6644 -1.5777 -1.0943
 2670SOL     OW 8693   3.384   2.812   2.338  0.5399  0.1698 -0.8288
 2670SOL    HW1 8694   3.466   2.763   2.342  0.4893 -0.1816 -3.1134
 2670SOL    HW2 8695   3.358   2.809   2.246 -2.0353  0.3162 -0.1787
 2671SOL     OW 8696   3.150   3.990   5.642  0.0749  0.0956 -0.5072
 2671SOL    HW1 8697   3.173   4.066   5.589 -2.4540  1.0718 -0.3355
 2671SOL    HW2 8698   3.153   4.021   5.732  0.2636 -0.3749 -0.3483
 2672SOL     OW 8699   2.285   2.954   1.589  0.0545  0.2312  0.0270
 2672SOL    HW1 8700   2.284   2.881   1.650  0.8482 -0.1068 -0.3454
 2672SOL    HW2 8701   2.207   3.006   1.611 -0.0799 -0.2936  0.8098
 2673SOL     OW 8702   3.267   2.942   2.083  0.0240  0.3269 -0.1067
 2673SOL    HW1 8703   3.216   2.877   2.131  1.5643  0.0188  1.2278
 2673SOL    HW2 8704   3.261   3.021   2.136  0.8041  0.3143  0.0197
 2674SOL     OW 8705   1.915   4.945   3.524  0.3581 -0.1897  0.1879
 2674SOL    HW1 8706   1.862   5.015   3.562  0.5746  0.9470 -1.4964
 2674SOL    HW2 8707   1.851   4.887   3.482  0.2735 -0.2448  0.3926
 2675SOL     OW 8708   1.851   2.962   4.910 -0.2619 -0.0758  0.3514
 2675SOL    HW1 8709   1.906   2.959   4.988  1.6185  1.1871 -0.8564
 2675SOL    HW2 8710   1.830   3.055   4.900 -1.6560 -0.3949  0.1069
 2676SOL     OW 8711   1.651   2.716   5.236 -0.1643 -0.4778  0.1154
 2676SOL    HW1 8712   1.586   2.653   5.267 -0.7362  0.1448  0.2061
 2676SOL    HW2 8713   1.705   2.735   5.313  0.1474 -1.0077  0.0354
 2677SOL     OW 8714   0.453   3.430   5.503  0.1043 -0.0556 -0.0811
 2677SOL    HW1 8715   0.397   3.460   5.575 -0.7669  2.9393 -1.8702
 2677SOL    HW2 8716   0.391   3.404   5.434  0.9147 -0.2140 -0.7651
 2678SOL     OW 8717   4.310   4.951   4.021 -0.0430  0.6914 -0.1880
 2678SOL    HW1 8718   4.246   4.967   3.952 -0.6994  1.9674  0.6824
 2678SOL    HW2 8719   4.328   4.857   4.016 -0.9261  0.5704 -1.3536
 2679SOL     OW 8720   4.382   3.936   1.529 -0.3419 -0.2311 -0.0560
 2679SOL    HW1 8721   4.440   3.860   1.528  1.3244  0.9817  0.4238
 2679SOL    HW2 8722   4.333   3.929   1.447  1.4638 -0.6016 -1.1713
 2680SOL     OW 8723   1.486   6.437   1.678  0.4830  0.0410  0.1243
 2680SOL    HW1 8724   1.555   6.494   1.713  0.6001 -0.3698  0.5754
 2680SOL    HW2 8725   1.406   6.472   1.717  0.9028 -2.3846  3.5991
 2681SOL     OW 8726   2.893   3.420   0.948  0.1773  0.2813 -0.0283
 2681SOL    HW1 8727   2.929   3.503   0.915  1.8855 -0.8371 -1.1248
 2681SOL    HW2 8728   2.969   3.364   0.960 -0.7382 -0.5082  2.6993
 2682SOL     OW 8729   3.889   4.968   4.112  0.6798  0.5643 -0.6453
 2682SOL    HW1 8730   3.860   4.925   4.192  0.6702  1.3773 -0.2047
 2682SOL    HW2 8731   3.816   4.957   4.051  0.3909  0.5800 -0.3054
 2683SOL     OW 8732   3.767   1.870   5.679 -0.2007 -0.1656 -0.1399
 2683SOL    HW1 8733   3.843   1.820   5.648 -0.1028  1.0213 -1.9875
 2683SOL    HW2 8734   3.755   1.842   5.770  0.4898 -2.7236 -0.7582
 2684SOL     OW 8735   0.269   0.747   5.104  0.0103  0.1817 -0.1014
 2684SOL    HW1 8736   0.180   0.722   5.129  0.0115 -0.6030 -0.8112
 2684SOL    HW2 8737   0.264   0.760   5.009  0.5014  0.7970 -0.0452
 2685SOL     OW 8738   4.283   4.509   0.638  0.8132  0.6628 -0.0458
 2685SOL    HW1 8739   4.364   4.518   0.687 -0.1563  0.0136  1.7788
 2685SOL    HW2 8740   4.220   4.563   0.685 -0.1937 -0.0791 -0.4990
 2686SOL     OW 8741   5.658   0.248   5.305 -0.2609 -0.1589 -0.7604
 2686SOL    HW1 8742   5.688   0.222   5.392  3.4933 -2.4509 -2.4845
 2686SOL    HW2 8743   5.693   0.336   5.292 -0.3386 -0.0399 -0.1976
 2687SOL     OW 8744   0.520   6.071   3.201  0.3961  0.0892 -0.4371
 2687SOL    HW1 8745   0.605   6.038   3.231  0.6202  1.4299  0.4658
 2687SOL    HW2 8746   0.499   6.143   3.260 -0.8897  0.4645 -1.2962
 2688SOL     OW 8747   0.553   5.700   6.172  0.2719  0.1592 -0.5817
 2688SOL    HW1 8748   0.469   5.735   6.142  0.1449  2.0237  1.6521
 2688SOL    HW2 8749   0.619   5.747   6.122  0.0107  0.3856 -0.7116
 2689SOL     OW 8750   2.516   0.997   1.649  0.2371  0.5013 -0.0492
 2689SOL    HW1 8751   2.517   0.901   1.647  0.9760  0.4994  0.3387
 2689SOL    HW2 8752   2.529   1.019   1.741 -0.2612  0.9804 -0.0880
 2690SOL     OW 8753   1.316   0.630   4.634  0.2044 -0.6383  0.6210
 2690SOL    HW1 8754   1.406   0.657   4.651 -0.1598  0.6687  0.6433
 2690SOL    HW2 8755   1.322   0.569   4.560  1.2488 -1.9055  1.7041
 2691SOL     OW 8756   2.130   2.979   2.664  0.0189 -0.0453 -0.1253
 2691SOL    HW1 8757   2.094   2.903   2.710 -1.5993  0.2787 -0.8167
 2691SOL    HW2 8758   2.172   2.942   2.586  0.5789 -0.3586  0.3166
 2692SOL     OW 8759   5.731   2.795   0.440  0.4393 -0.1627  0.1717
 2692SOL    HW1 8760   5.817   2.754   0.432  0.1856 -0.4357 -1.6214
 2692SOL    HW2 8761   5.669   2.723   0.432  0.0170  0.3343 -1.2726
 2693SOL     OW 8762   2.521   5.838   1.201 -0.2634 -0.0464 -0.6457
 2693SOL    HW1 8763   2.467   5.893   1.258 -0.0099  1.9892 -2.2451
 2693SOL    HW2 8764   2.497   5.748   1.225 -2.6739  0.7472  0.2716
 2694SOL     OW 8765   0.998   3.582   3.809  0.7445  0.5943  0.3212
 2694SOL    HW1 8766   1.088   3.592   3.839 -0.0274  2.2696  2.3546
 2694SOL    HW2 8767   0.983   3.659   3.753  1.2328 -0.9337 -2.0605
 2695SOL     OW 8768   1.213   4.411   4.590  0.1029 -0.0970 -0.2753
 2695SOL    HW1 8769   1.276   4.468   4.635 -0.8747 -0.0002  1.0238
 2695SOL    HW2 8770   1.129   4.457   4.598 -0.6859 -1.6449  0.6954
 2696SOL     OW 8771   6.200   2.513   5.295  0.4529  0.7838 -0.4415
 2696SOL    HW1 8772   6.125   2.530   5.237 -0.0828  1.1487  0.3390
 2696SOL    HW2 8773   6.162   2.467   5.370  1.2624 -0.3572 -0.7019
 2697SOL     OW 8774   4.749   5.769   0.724 -0.1255 -0.3724 -0.1947
 2697SOL    HW1 8775   4.789   5.833   0.782 -1.7852 -1.8006  2.7823
 2697SOL    HW2 8776   4.676   5.816   0.684  2.1375  1.1838 -2.8281
 2698SOL     OW 8777   2.202   4.977   1.120  0.3675 -0.0289  0.3256
 2698SOL    HW1 8778   2.287   5.017   1.102  0.6146 -0.7844 -0.2545
 2698SOL    HW2 8779   2.214   4.884   1.099 -0.3709 -0.2946  1.0167
 2699SOL     OW 8780   2.691   5.078   3.351  0.3947 -0.1138 -0.2675
 2699SOL    HW1 8781   2.622   5.026   3.392  1.0256 -0.3978  0.4482
 2699SOL    HW2 8782   2.771   5.027   3.363  0.3935 -1.0500 -3.3526
 2700SOL     OW 8783   2.254   5.071   3.466  0.0158  0.1440 -0.0171
 2700SOL    HW1 8784   2.184   5.056   3.402 -2.8933 -0.7484  3.0636
 2700SOL    HW2 8785   2.278   5.163   3.454 -1.9240  0.5732 -1.0131
 2701SOL     OW 8786   4.836   0.186   3.815  0.5540 -0.0884  0.0909
 2701SOL    HW1 8787   4.858   0.119   3.880  1.4798 -1.7951 -1.8598
 2701SOL    HW2 8788   4.747   0.164   3.787  0.6645 -0.1699 -0.1910
 2702SOL     OW 8789   6.082   1.539   5.798  0.0038 -0.4104 -0.4775
 2702SOL    HW1 8790   5.991   1.516   5.778 -0.4236  0.6138  0.1808
 2702SOL    HW2 8791   6.102   1.609   5.736  0.1144 -0.1684 -0.1688
 2703SOL     OW 8792   3.903   2.532   0.464 -0.2397  0.1186 -0.8438
 2703SOL    HW1 8793   3.937   2.502   0.549  1.2613 -0.3683 -1.5775
 2703SOL    HW2 8794   3.860   2.615   0.484  1.7565  0.9988  0.1389
 2704SOL     OW 8795   1.142   0.058   4.984  0.2857 -0.3824 -0.5137
 2704SOL    HW1 8796   1.048   0.067   4.995  0.3309 -1.5816  1.2434
 2704SOL    HW2 8797   1.161   0.099   4.900 -1.8740 -0.5964 -1.1455
 2705SOL     OW 8798   0.166   3.767   5.407  0.2658  0.8418 -0.0207
 2705SOL    HW1 8799   0.175   3.857   5.378  0.5676  0.7855 -0.1052
 2705SOL    HW2 8800   0.235   3.754   5.471  0.0044  0.7718  0.2512
 2706SOL     OW 8801   2.890   6.083   3.790  0.0159 -0.0716 -0.0242
 2706SOL    HW1 8802   2.949   6.133   3.847  1.4405  0.2712 -1.7028
 2706SOL    HW2 8803   2.914   5.992   3.805  0.4195  0.0219 -0.0817
 2707SOL     OW 8804   1.358   0.388   5.103  0.0233  0.6588 -0.2507
 2707SOL    HW1 8805   1.339   0.449   5.031  0.3975  0.0325 -0.8937
 2707SOL    HW2 8806   1.284   0.328   5.104 -1.1654  2.0465  1.4398
 2708SOL     OW 8807   5.955   6.294   4.946 -0.3677 -0.6140  0.1651
 2708SOL    HW1 8808   5.965   6.388   4.937  0.1150 -0.7901 -1.6554
 2708SOL    HW2 8809   6.024   6.268   5.007  1.0199 -0.0317 -1.0864
 2709SOL     OW 8810   0.265   5.477   5.891 -0.1520 -0.7867  0.5404
 2709SOL    HW1 8811   0.340   5.535   5.882 -0.7733  0.0874  0.9267
 2709SOL    HW2 8812   0.231   5.495   5.979 -1.5697 -0.2427 -0.0938
 2710SOL     OW 8813   1.299   4.498   6.312  0.0162  0.0994 -0.0884
 2710SOL    HW1 8814   1.234   4.540   6.369 -0.5930 -3.1976  1.9553
 2710SOL    HW2 8815   1.249   4.431   6.265  1.5031 -0.8669 -0.3429
 2711SOL     OW 8816   3.784   1.746   0.799 -0.5585 -0.5478 -0.2997
 2711SOL    HW1 8817   3.777   1.828   0.848 -0.7202  0.0688 -1.3406
 2711SOL    HW2 8818   3.742   1.764   0.716 -0.5847 -1.6942 -0.5468
 2712SOL     OW 8819   4.315   0.462   2.102 -0.5761 -0.2985 -0.2135
 2712SOL    HW1 8820   4.376   0.505   2.161 -0.6593 -1.3377  0.6578
 2712SOL    HW2 8821   4.237   0.445   2.154 -0.5401 -1.4965 -0.5201
 2713SOL     OW 8822   3.229   4.297   4.411 -0.1824  0.5257 -0.1642
 2713SOL    HW1 8823   3.311   4.248   4.401 -0.0955  1.0539 -2.6506
 2713SOL    HW2 8824   3.250   4.366   4.473  0.4100 -0.9982  1.4288
 2714SOL     OW 8825   6.344   6.334   3.494  0.3204  0.2298 -0.5116
 2714SOL    HW1 8826   6.440   6.336   3.491  0.3292 -0.6900 -0.9189
 2714SOL    HW2 8827   6.321   6.243   3.478 -0.5294 -0.1688  2.3035
 2715SOL     OW 8828   1.950   5.917   4.237  0.1419  0.1618  0.1196
 2715SOL    HW1 8829   1.984   5.834   4.269  0.1280  0.7552  1.7967
 2715SOL    HW2 8830   2.024   5.978   4.243  0.0453  0.3785 -0.7036
 2716SOL     OW 8831   6.084   2.810   6.016 -0.0342 -0.6038 -0.4205
 2716SOL    HW1 8832   6.165   2.822   6.065  0.4157  1.1329 -1.5130
 2716SOL    HW2 8833   6.087   2.719   5.985  1.4311 -0.5794 -0.3766
 2717SOL     OW 8834   4.506   4.623   5.382  0.1915 -0.1074 -0.2048
 2717SOL    HW1 8835   4.559   4.654   5.455  1.5671  0.2850 -1.3330
 2717SOL    HW2 8836   4.481   4.703   5.334  2.6258 -0.5102 -2.3622
 2718SOL     OW 8837   5.637   5.192   2.886  0.1808 -0.0546  0.2669
 2718SOL    HW1 8838   5.672   5.236   2.809  0.0953 -3.5384 -2.0009
 2718SOL    HW2 8839   5.712   5.144   2.922 -0.4053 -0.7530  0.5801
 2719SOL     OW 8840   1.085   1.348   3.766  0.7210  0.2510  0.3724
 2719SOL    HW1 8841   1.136   1.343   3.847  2.5344 -1.2939 -0.7763
 2719SOL    HW2 8842   1.029   1.270   3.768  1.4800 -0.3334 -0.2599
 2720SOL     OW 8843   4.860   0.038   5.621 -0.5116 -0.6446 -0.0746
 2720SOL    HW1 8844   4.938  -0.018   5.629  0.5499  0.7330 -0.3153
 2720SOL    HW2 8845   4.835   0.057   5.712 -0.1980 -0.6272  0.0118
 2721SOL     OW 8846   3.979   3.224   4.164  0.6577 -0.4241  0.2840
 2721SOL    HW1 8847   3.887   3.197   4.164  1.1607 -2.3204  0.5248
 2721SOL    HW2 8848   4.024   3.156   4.113  1.8409  0.8434 -0.4454
 2722SOL     OW 8849   5.774   4.002   5.802  0.6127  0.0412 -0.0411
 2722SOL    HW1 8850   5.812   4.014   5.715  0.7116 -0.0733 -0.0147
 2722SOL    HW2 8851   5.719   3.924   5.795 -1.3862  1.4394 -0.6576
 2723SOL     OW 8852   5.353   6.350   1.478 -0.5488  0.0424  0.0716
 2723SOL    HW1 8853   5.367   6.257   1.496  0.7253  0.2788  0.4101
 2723SOL    HW2 8854   5.332   6.388   1.563 -1.3407  0.0386 -0.1092
 2724SOL     OW 8855   0.165   1.146   3.092  0.0338  0.2208  0.3928
 2724SOL    HW1 8856   0.208   1.080   3.146  0.8991  1.1590  0.8918
 2724SOL    HW2 8857   0.085   1.168   3.140  0.8555  1.1321  1.3908
 2725SOL     OW 8858   4.434   4.748   0.328 -0.4732  0.2791 -0.2913
 2725SOL    HW1 8859   4.528   4.734   0.316 -0.2753 -0.0274  1.3942
 2725SOL    HW2 8860   4.416   4.716   0.416 -2.1063  0.6398 -0.4652
 2726SOL     OW 8861   3.878   2.316   3.769  0.0514 -0.3237 -0.2985
 2726SOL    HW1 8862   3.903   2.328   3.678  1.9330 -0.0074  0.2136
 2726SOL    HW2 8863   3.853   2.404   3.799 -0.6293 -0.4389 -0.5055
 2727SOL     OW 8864   3.954   4.579   1.652 -0.6220  0.2892  0.3751
 2727SOL    HW1 8865   4.033   4.546   1.609 -0.7979 -0.1503  0.3788
 2727SOL    HW2 8866   3.977   4.582   1.745 -0.6833 -0.0709  0.4052
 2728SOL     OW 8867   3.199   5.360   6.288 -0.5431 -0.3880 -0.5864
 2728SOL    HW1 8868   3.226   5.300   6.219  0.1761 -0.1649 -0.5045
 2728SOL    HW2 8869   3.268   5.426   6.292 -0.7764 -0.1661  0.0674
 2729SOL     OW 8870   2.387   5.906   0.815  0.3728  0.1356  0.0778
 2729SOL    HW1 8871   2.297   5.935   0.801  0.5958  1.3445  0.9973
 2729SOL    HW2 8872   2.416   5.873   0.730 -1.5191 -1.9906  0.1646
 2730SOL     OW 8873   0.599   1.850   1.980  0.6713  0.0422  0.1338
 2730SOL    HW1 8874   0.659   1.893   2.041  0.9152  0.1525 -0.1863
 2730SOL    HW2 8875   0.654   1.823   1.906  1.1963 -3.6413  1.6314
 2731SOL     OW 8876   4.547   4.473   1.076 -0.2248 -0.1479  0.0534
 2731SOL    HW1 8877   4.460   4.509   1.092 -0.0583 -0.2236  1.1676
 2731SOL    HW2 8878   4.596   4.545   1.036 -0.8710 -0.1933 -0.8376
 2732SOL     OW 8879   4.891   0.540   1.994  0.2588  0.1294  0.0961
 2732SOL    HW1 8880   4.907   0.570   1.905 -1.1278  1.5943  0.2873
 2732SOL    HW2 8881   4.883   0.621   2.046 -0.2436 -0.6494  1.2924
 2733SOL     OW 8882   1.586   1.701   3.093  0.5169 -0.7259  0.0221
 2733SOL    HW1 8883   1.667   1.651   3.096 -0.6231 -2.6400  0.8366
 2733SOL    HW2 8884   1.580   1.742   3.179 -0.1136 -1.8805  0.5505
 2734SOL     OW 8885   6.304   6.029   3.533  0.2071 -0.4442  0.1497
 2734SOL    HW1 8886   6.316   5.943   3.493  0.9880 -0.7013  0.9175
 2734SOL    HW2 8887   6.389   6.052   3.569  0.0570  0.7440 -0.2006
 2735SOL     OW 8888   1.028   1.138   1.220  0.5601  0.0567  0.5294
 2735SOL    HW1 8889   0.964   1.155   1.289  1.1226 -0.0712  1.0881
 2735SOL    HW2 8890   1.032   1.219   1.170  0.2533  0.1934  0.7241
 2736SOL     OW 8891   3.157   1.927   6.291 -0.5443 -0.0945 -0.4907
 2736SOL    HW1 8892   3.119   1.951   6.375  1.2489 -0.4843  0.4864
 2736SOL    HW2 8893   3.096   1.961   6.226 -0.8601  2.2137  0.9092
 2737SOL     OW 8894   1.309   4.213   1.087 -0.1707 -0.6868 -0.0388
 2737SOL    HW1 8895   1.328   4.222   1.180 -0.6902 -0.9832  0.1009
 2737SOL    HW2 8896   1.243   4.279   1.069 -0.6186 -1.1281 -0.0291
 2738SOL     OW 8897   3.913   5.305   2.875  0.3062  0.1189  0.2651
 2738SOL    HW1 8898   3.893   5.216   2.846 -0.9469  0.4542  0.0476
 2738SOL    HW2 8899   3.959   5.293   2.958 -0.0109 -0.7253  0.3300
 2739SOL     OW 8900   0.240   3.234   2.638  0.1839 -0.2957 -0.4064
 2739SOL    HW1 8901   0.176   3.260   2.572  1.9675 -1.7117 -2.8779
 2739SOL    HW2 8902   0.191   3.178   2.699 -1.1970 -0.2680 -1.4577
 2740SOL     OW 8903   5.123   5.402   3.845  0.4267  0.0337  0.3911
 2740SOL    HW1 8904   5.180   5.327   3.832  2.0002  1.4505 -1.5443
 2740SOL    HW2 8905   5.165   5.453   3.915  2.0194  1.4233 -1.4992
 2741SOL     OW 8906   3.181   6.219   2.154 -0.5780 -0.3308 -0.6384
 2741SOL    HW1 8907   3.105   6.162   2.143 -1.0819  0.3354 -0.6941
 2741SOL    HW2 8908   3.243   6.190   2.086 -1.3741  0.0577 -1.5522
 2742SOL     OW 8909   2.824   6.219   1.737 -0.2527 -0.0148  0.3109
 2742SOL    HW1 8910   2.791   6.221   1.827 -1.1868  0.6699 -0.0323
 2742SOL    HW2 8911   2.906   6.269   1.741 -2.2438  3.6297  0.1002
 2743SOL     OW 8912   0.763   1.486   2.941 -0.2273  0.1109 -0.6028
 2743SOL    HW1 8913   0.773   1.542   2.864 -1.4833  1.3525  0.0891
 2743SOL    HW2 8914   0.743   1.547   3.012 -0.7937 -1.1444  0.3488
 2744SOL     OW 8915   4.191   0.694   1.077 -0.0213 -0.0841 -0.2025
 2744SOL    HW1 8916   4.260   0.642   1.117 -1.0533 -2.0854 -0.8816
 2744SOL    HW2 8917   4.114   0.636   1.076 -1.3531  1.5928 -0.6584
 2745SOL     OW 8918   6.388   5.091   1.533  0.3244  0.6487 -0.3911
 2745SOL    HW1 8919   6.352   5.020   1.586 -0.7953 -0.2886 -2.3097
 2745SOL    HW2 8920   6.444   5.139   1.593 -0.4070 -0.7043  1.4747
 2746SOL     OW 8921   6.360   3.820   4.375  0.1305 -0.3100  0.1886
 2746SOL    HW1 8922   6.349   3.759   4.302  2.5301  1.0224 -1.4119
 2746SOL    HW2 8923   6.283   3.876   4.372 -1.9474 -2.8718  1.4644
 2747SOL     OW 8924   4.722   4.708   2.405  0.5598 -0.0557 -0.1866
 2747SOL    HW1 8925   4.701   4.670   2.490 -0.4229  1.1901  0.1539
 2747SOL    HW2 8926   4.818   4.708   2.402  0.5991 -0.7737  0.6006
 2748SOL     OW 8927   1.565   1.392   5.035 -0.2775 -0.2216  0.2024
 2748SOL    HW1 8928   1.487   1.356   5.077  0.1707  1.1904  2.3842
 2748SOL    HW2 8929   1.534   1.466   4.984 -0.4493 -0.1022  0.4820
 2749SOL     OW 8930   4.009   6.344   2.242  0.2281 -0.0920 -0.5549
 2749SOL    HW1 8931   3.981   6.284   2.172 -0.4059 -0.4028 -0.0386
 2749SOL    HW2 8932   4.099   6.369   2.217  1.0212 -2.2791 -0.1176
 2750SOL     OW 8933   4.745   3.829   5.251  0.6929  0.2215  0.6553
 2750SOL    HW1 8934   4.793   3.911   5.240  2.5036 -0.9107 -0.3100
 2750SOL    HW2 8935   4.808   3.768   5.288 -0.3382 -1.0116  0.4868
 2751SOL     OW 8936   0.832   3.538   3.430 -0.0135 -0.3246 -0.3786
 2751SOL    HW1 8937   0.805   3.629   3.416 -0.2180 -0.5566 -1.5723
 2751SOL    HW2 8938   0.750   3.491   3.445  0.0617 -0.3885 -0.1558
 2752SOL     OW 8939   6.321   1.356   3.035  0.2725 -0.6413 -0.2013
 2752SOL    HW1 8940   6.287   1.429   2.984  2.9314  0.0479 -1.1996
 2752SOL    HW2 8941   6.254   1.288   3.029 -1.1023  0.7503 -1.5040
 2753SOL     OW 8942   4.635   2.523   5.154  0.1531  0.0394  0.3176
 2753SOL    HW1 8943   4.586   2.441   5.155 -0.3052  0.2197 -1.9706
 2753SOL    HW2 8944   4.726   2.497   5.167  0.0004 -0.8129 -0.2402
 2754SOL     OW 8945   3.781   6.010   1.840  0.6977  0.2124 -0.0905
 2754SOL    HW1 8946   3.795   6.041   1.929  0.4243  1.1630 -0.3695
 2754SOL    HW2 8947   3.687   6.020   1.825  0.7794  0.3045 -0.5704
 2755SOL     OW 8948   1.013   5.013   1.201  0.0127  0.2596 -0.2012
 2755SOL    HW1 8949   1.079   4.960   1.246 -0.5261  1.5310  2.2848
 2755SOL    HW2 8950   0.957   4.949   1.157  1.9231 -0.9282 -1.0662
 2756SOL     OW 8951   6.261   1.842   0.707 -0.2224 -0.3269  0.0639
 2756SOL    HW1 8952   6.194   1.881   0.651 -0.4538 -2.4880 -1.3128
 2756SOL    HW2 8953   6.335   1.903   0.704 -1.5650  1.3599  0.3901
 2757SOL     OW 8954   1.843   2.772   3.531 -0.5637 -0.0877  0.7301
 2757SOL    HW1 8955   1.777   2.765   3.462  0.2764  2.0268 -0.3885
 2757SOL    HW2 8956   1.861   2.866   3.537  0.4154 -0.3639  2.8711
 2758SOL     OW 8957   0.871   2.169   1.404 -0.0440 -0.1906 -0.3084
 2758SOL    HW1 8958   0.876   2.120   1.322 -0.7457 -1.5536  0.4342
 2758SOL    HW2 8959   0.951   2.222   1.406  1.2900 -2.1193 -0.6423
 2759SOL     OW 8960   4.077   1.513   5.466 -0.8618  0.4564 -0.0932
 2759SOL    HW1 8961   4.039   1.598   5.445 -0.8960  0.9961  1.9358
 2759SOL    HW2 8962   4.009   1.468   5.516 -0.0822  0.0799  0.6462
 2760SOL     OW 8963   0.126   0.450   3.795 -0.4059 -0.5285 -0.2080
 2760SOL    HW1 8964   0.127   0.359   3.823 -1.9694 -0.3626  0.4458
 2760SOL    HW2 8965   0.078   0.449   3.712  0.1861 -0.3699 -0.5670
 2761SOL     OW 8966   6.491   1.608   1.493 -0.8246  0.1121  0.1247
 2761SOL    HW1 8967   6.451   1.691   1.516 -0.7803  0.4750 -1.0859
 2761SOL    HW2 8968   6.570   1.631   1.445 -1.4796 -0.6152 -1.3664
 2762SOL     OW 8969   4.193   2.808   3.141  0.3143 -0.0224 -0.2166
 2762SOL    HW1 8970   4.137   2.821   3.217  0.5605  2.3531 -0.3820
 2762SOL    HW2 8971   4.146   2.852   3.069  1.2920 -0.0136 -0.8662
 2763SOL     OW 8972   1.253   6.397   4.009 -0.4111 -1.3277  0.2037
 2763SOL    HW1 8973   1.315   6.447   3.956 -1.5408 -1.4057 -1.2368
 2763SOL    HW2 8974   1.257   6.309   3.974 -2.0355 -1.1203 -0.5757
 2764SOL     OW 8975   3.292   0.838   2.404  0.2292  0.0449 -0.0370
 2764SOL    HW1 8976   3.214   0.865   2.452 -0.4223  0.4937 -1.3196
 2764SOL    HW2 8977   3.319   0.916   2.357  1.7371  0.0239  0.7362
 2765SOL     OW 8978   6.163   4.521   2.426 -0.1143 -0.0696 -0.0947
 2765SOL    HW1 8979   6.174   4.484   2.339  2.8911  0.0368  0.1307
 2765SOL    HW2 8980   6.139   4.447   2.481  0.7693 -0.7087 -0.5450
 2766SOL     OW 8981   3.568   0.404   2.048  0.1797  0.2128  0.1962
 2766SOL    HW1 8982   3.545   0.382   2.138  0.3913 -2.2688 -0.2961
 2766SOL    HW2 8983   3.651   0.452   2.055 -0.1220  0.5822  1.3428
 2767SOL     OW 8984   6.289   1.492   2.297 -0.3509  0.0984 -0.0853
 2767SOL    HW1 8985   6.336   1.417   2.262  1.6897  0.9323  0.6721
 2767SOL    HW2 8986   6.297   1.483   2.392 -1.0049  0.7086  0.0371
 2768SOL     OW 8987   6.146   2.239   6.188 -0.0300  0.1360 -0.6378
 2768SOL    HW1 8988   6.199   2.292   6.129 -1.0161  0.8809 -0.8598
 2768SOL    HW2 8989   6.211   2.191   6.240  0.8601  0.5246 -1.3505
 2769SOL     OW 8990   0.809   3.544   6.485  0.5957 -0.3540 -0.3261
 2769SOL    HW1 8991   0.728   3.528   6.533  1.3839  1.9583  2.0296
 2769SOL    HW2 8992   0.832   3.635   6.505  3.0115 -0.4645 -2.0935
 2770SOL     OW 8993   1.027   5.025   0.024  0.2359 -0.0778  0.1069
 2770SOL    HW1 8994   0.948   4.972   0.027  0.7156 -0.8538 -0.6937
 2770SOL    HW2 8995   1.066   5.007  -0.061  0.8635  0.9085  0.1622
 2771SOL     OW 8996   0.479   5.928   1.625 -0.1399 -0.0135  0.3848
 2771SOL    HW1 8997   0.518   5.860   1.681 -0.8907 -0.3869  0.4730
 2771SOL    HW2 8998   0.520   6.009   1.653 -0.8631 -0.1172  1.8500
 2772SOL     OW 8999   4.551   3.773   3.035 -0.1713 -0.5716  0.0648
 2772SOL    HW1 9000   4.577   3.831   2.963 -1.1596 -0.0478  0.1071
 2772SOL    HW2 9001   4.614   3.792   3.105 -0.0757 -0.0332 -0.1611
 2773SOL     OW 9002   6.064   1.892   6.349 -0.1783  0.5117  0.0728
 2773SOL    HW1 9003   6.019   1.815   6.313  0.4097  0.8722 -1.4807
 2773SOL    HW2 9004   5.997   1.960   6.351 -0.1909  0.5165 -0.4367
 2774SOL     OW 9005   1.725   2.758   3.283 -0.0370 -0.5069  0.1304
 2774SOL    HW1 9006   1.648   2.731   3.232 -2.7581  0.4237  3.3388
 2774SOL    HW2 9007   1.789   2.786   3.218 -3.1853  0.6047 -2.7620
 2775SOL     OW 9008   5.119   2.406   0.524 -0.1922  0.0513 -0.2638
 2775SOL    HW1 9009   5.199   2.426   0.476 -0.4575  3.5951  0.5493
 2775SOL    HW2 9010   5.056   2.383   0.456  0.8174 -0.2213 -1.1285
 2776SOL     OW 9011   5.726   0.486   4.964 -0.0496 -0.3455  0.2652
 2776SOL    HW1 9012   5.783   0.410   4.958  0.2785 -0.2034  1.3610
 2776SOL    HW2 9013   5.693   0.499   4.875  1.9701 -0.1724 -0.5074
 2777SOL     OW 9014   3.508   5.635   4.310 -0.1515  0.2856 -0.2875
 2777SOL    HW1 9015   3.482   5.727   4.312 -0.9240  0.0744  2.1972
 2777SOL    HW2 9016   3.570   5.626   4.382  0.2898 -1.0349 -0.8104
 2778SOL     OW 9017   2.673   3.961   4.463  0.0735  0.1144 -0.1717
 2778SOL    HW1 9018   2.765   3.950   4.488  0.2194 -0.1111 -0.7918
 2778SOL    HW2 9019   2.671   4.048   4.422 -0.1095  0.3654  0.3593
 2779SOL     OW 9020   4.814   2.709   1.492  0.2860  0.3556  0.2731
 2779SOL    HW1 9021   4.767   2.637   1.450  1.1857  0.4832 -1.0093
 2779SOL    HW2 9022   4.798   2.785   1.436  2.7462  0.2039 -0.7771
 2780SOL     OW 9023   1.010   2.788   6.469 -0.2642 -0.3737 -0.1153
 2780SOL    HW1 9024   0.974   2.838   6.542  1.1533  0.7557 -0.1322
 2780SOL    HW2 9025   1.044   2.708   6.509 -0.1433 -0.0961  0.3452
 2781SOL     OW 9026   5.714   6.038   1.162 -0.0609 -0.1049  0.0567
 2781SOL    HW1 9027   5.634   6.039   1.110 -0.5267  0.0598  0.7592
 2781SOL    HW2 9028   5.707   6.115   1.219  0.0277 -0.7455  0.9574
 2782SOL     OW 9029   4.899   6.152   4.257  0.1335  0.0871 -0.6898
 2782SOL    HW1 9030   4.833   6.083   4.265 -0.9173  1.0553 -0.7350
 2782SOL    HW2 9031   4.884   6.189   4.170  0.9521  0.1043 -0.8263
 2783SOL     OW 9032   2.700   2.607   4.505 -0.2000 -0.2289  0.5294
 2783SOL    HW1 9033   2.615   2.584   4.543 -1.3987  1.2190 -1.1059
 2783SOL    HW2 9034   2.737   2.671   4.565 -1.9326  1.8013 -0.4151
 2784SOL     OW 9035   3.576   0.811   4.592  0.0948  0.3132  0.6514
 2784SOL    HW1 9036   3.486   0.806   4.559  0.2752  0.7915  0.0708
 2784SOL    HW2 9037   3.592   0.724   4.629 -0.8167  0.4143  1.3299
 2785SOL     OW 9038   3.412   4.096   0.096 -0.1288 -0.1923  0.0346
 2785SOL    HW1 9039   3.429   4.011   0.137 -1.0255  0.0466  0.9352
 2785SOL    HW2 9040   3.495   4.119   0.055  0.6251 -0.7316  1.2021
 2786SOL     OW 9041   0.273   0.993   5.779 -0.2969  0.2410  0.3585
 2786SOL    HW1 9042   0.357   0.982   5.735 -0.4760 -1.2759  0.3645
 2786SOL    HW2 9043   0.213   1.019   5.709 -0.3345 -1.0513 -0.1091
 2787SOL     OW 9044   0.271   6.043   6.078 -0.2693 -0.3931 -0.2400
 2787SOL    HW1 9045   0.290   5.963   6.127  0.7123 -0.0656 -0.0555
 2787SOL    HW2 9046   0.216   6.015   6.006 -1.9175 -0.8714  1.1351
 2788SOL     OW 9047   4.192   1.589   3.815 -0.3076 -0.3933  0.7988
 2788SOL    HW1 9048   4.235   1.633   3.742  0.2515 -0.5169  1.0418
 2788SOL    HW2 9049   4.264   1.547   3.862 -0.3243  1.7939  2.9050
 2789SOL     OW 9050   4.290   2.020   0.065 -0.2806 -1.0517  0.2653
 2789SOL    HW1 9051   4.324   2.010  -0.024  0.3342 -0.7126  0.4588
 2789SOL    HW2 9052   4.229   2.093   0.060  0.6809 -0.2136  0.3649
 2790SOL     OW 9053   6.220   5.830   4.094 -0.0486  0.3945  0.3809
 2790SOL    HW1 9054   6.214   5.926   4.091  0.4201  0.4616  1.2441
 2790SOL    HW2 9055   6.256   5.811   4.180 -0.3578 -0.5807  0.3084
 2791SOL     OW 9056   4.960   0.717   3.754 -0.0553  0.1760  0.2668
 2791SOL    HW1 9057   4.965   0.627   3.786  0.4955  0.0509 -0.1577
 2791SOL    HW2 9058   4.947   0.708   3.660  1.3549  0.5223  0.0191
 2792SOL     OW 9059   3.590   0.796   2.236 -0.2823  0.1635  0.0651
 2792SOL    HW1 9060   3.641   0.755   2.306 -3.2717 -0.7180  1.9370
 2792SOL    HW2 9061   3.550   0.722   2.190 -0.8079  0.8203 -0.5547
 2793SOL     OW 9062   0.936   0.816   6.233 -0.0174  0.7606 -0.2383
 2793SOL    HW1 9063   0.991   0.745   6.267 -0.5885  0.5652  0.2997
 2793SOL    HW2 9064   0.916   0.869   6.310 -1.1086  0.4688 -0.2951
 2794SOL     OW 9065   2.556   3.388   5.903 -0.2543 -0.0520  0.0510
 2794SOL    HW1 9066   2.614   3.316   5.878 -0.1077 -0.8294  2.3899
 2794SOL    HW2 9067   2.479   3.378   5.847  1.2631  0.2252 -2.2124
 2795SOL     OW 9068   0.009   3.541   1.156  0.8834 -0.6634  0.4331
 2795SOL    HW1 9069  -0.023   3.456   1.188  0.2760  0.0153  1.6833
 2795SOL    HW2 9070   0.009   3.597   1.233  1.0077  0.5658 -0.4398
 2796SOL     OW 9071   1.521   4.704   2.033 -0.4375 -0.5086 -0.4924
 2796SOL    HW1 9072   1.437   4.671   1.999 -0.1080 -0.3725 -1.4544
 2796SOL    HW2 9073   1.559   4.628   2.078 -1.2030 -0.4904  0.2246
 2797SOL     OW 9074   5.044   3.675   4.809  0.3791  0.4799 -0.5401
 2797SOL    HW1 9075   5.066   3.674   4.902  1.6175 -0.6955 -0.8185
 2797SOL    HW2 9076   5.060   3.766   4.782  1.4355  0.5042  0.0918
 2798SOL     OW 9077   2.991   4.059   1.950 -0.0717  0.1364 -0.4846
 2798SOL    HW1 9078   3.049   4.028   2.020  0.2578  1.4595 -0.1495
 2798SOL    HW2 9079   2.918   4.101   1.995  0.1728  1.0556 -0.9159
 2799SOL     OW 9080   2.426   0.188   1.140  0.3539  0.1515  0.1358
 2799SOL    HW1 9081   2.451   0.273   1.103 -1.4653 -0.1480 -1.9906
 2799SOL    HW2 9082   2.395   0.137   1.065  0.5550 -2.0955  1.4939
 2800SOL     OW 9083   1.726   5.680   1.614  0.3953  0.6763 -0.2107
 2800SOL    HW1 9084   1.656   5.743   1.598  0.5837  0.6535 -1.1818
 2800SOL    HW2 9085   1.695   5.599   1.574  0.4244  0.3065  0.4891
 2801SOL     OW 9086   0.680   1.857   1.233  0.2856  0.1534 -0.5403
 2801SOL    HW1 9087   0.761   1.904   1.212  0.0078  1.3867  0.9243
 2801SOL    HW2 9088   0.611   1.910   1.192  0.0918  0.1404 -0.2342
 2802SOL     OW 9089   0.232   1.899   2.428 -0.3102  0.2343  0.4432
 2802SOL    HW1 9090   0.174   1.969   2.397 -1.4265 -1.0944 -0.5654
 2802SOL    HW2 9091   0.175   1.822   2.435  1.1147 -0.8492  0.4788
 2803SOL     OW 9092   0.269   1.224   2.425 -0.8934  0.1557  0.0577
 2803SOL    HW1 9093   0.357   1.256   2.405 -0.5579 -0.0716  1.1154
 2803SOL    HW2 9094   0.240   1.181   2.345  0.1697 -0.2143 -0.1388
 2804SOL     OW 9095   2.078   0.477   0.078 -0.0132 -0.5966  0.2062
 2804SOL    HW1 9096   2.055   0.564   0.045 -1.0106 -0.4121  1.3132
 2804SOL    HW2 9097   2.173   0.475   0.078  0.0191  0.0866 -0.8405
 2805SOL     OW 9098   3.816   6.086   2.626 -0.5795 -0.4535  0.2701
 2805SOL    HW1 9099   3.898   6.104   2.578 -1.1160 -1.4940 -1.1136
 2805SOL    HW2 9100   3.845   6.069   2.716  0.7527 -0.9268 -0.2147
 2806SOL     OW 9101   6.041   5.970   0.445  0.2870  0.2871 -0.0297
 2806SOL    HW1 9102   6.069   5.945   0.357  0.5109  0.0385  0.1130
 2806SOL    HW2 9103   6.110   5.938   0.502  0.8971  1.7421  0.1100
 2807SOL     OW 9104   5.362   2.282   3.526  0.3512  0.0502  0.0140
 2807SOL    HW1 9105   5.341   2.366   3.566 -2.4198 -0.4284 -0.2714
 2807SOL    HW2 9106   5.443   2.254   3.571 -0.4456  1.3528  2.4577
 2808SOL     OW 9107   1.830   6.112   2.105 -0.1518 -0.1235  0.3121
 2808SOL    HW1 9108   1.876   6.093   2.024 -1.8369  1.1439 -1.0222
 2808SOL    HW2 9109   1.870   6.192   2.139 -0.4522  0.2153 -0.1215
 2809SOL     OW 9110   2.346   5.296   5.551  0.3368 -0.1487 -0.3568
 2809SOL    HW1 9111   2.354   5.212   5.597 -0.0349 -0.3047 -0.5675
 2809SOL    HW2 9112   2.332   5.271   5.459 -0.5588  0.1191 -0.3090
 2810SOL     OW 9113   1.989   6.431   5.891  0.9710  0.1684  0.7011
 2810SOL    HW1 9114   1.961   6.408   5.980 -0.1031  0.2468  0.3953
 2810SOL    HW2 9115   2.000   6.526   5.894 -0.8034  0.4020  0.2927
 2811SOL     OW 9116   3.199   3.330   3.583 -0.2047 -0.2038 -0.2636
 2811SOL    HW1 9117   3.107   3.307   3.574 -0.2526  0.6852 -3.5374
 2811SOL    HW2 9118   3.200   3.412   3.631 -1.0403 -0.6255  0.4846
 2812SOL     OW 9119   6.402   1.770   0.252 -0.0572  0.2623  0.1189
 2812SOL    HW1 9120   6.312   1.738   0.261  0.7376 -2.6951 -1.2075
 2812SOL    HW2 9121   6.410   1.789   0.159  1.1549 -1.3193 -0.1432
 2813SOL     OW 9122   0.440   1.516   2.783  0.4310  0.1420 -0.7308
 2813SOL    HW1 9123   0.358   1.529   2.734 -0.9935  0.0200  1.4864
 2813SOL    HW2 9124   0.426   1.562   2.866  1.1330 -2.8736  1.2108
 2814SOL     OW 9125   4.917   5.853   2.037 -0.1727 -0.1570 -0.0476
 2814SOL    HW1 9126   4.971   5.792   1.987 -0.8732 -1.5264  0.8165
 2814SOL    HW2 9127   4.843   5.871   1.979 -0.9622 -1.7105  0.4336
 2815SOL     OW 9128   2.707   2.544   4.918 -0.2595 -0.8710 -0.0099
 2815SOL    HW1 9129   2.696   2.639   4.907  0.3644 -0.5422  1.9030
 2815SOL    HW2 9130   2.627   2.507   4.882 -0.4478  0.3610 -0.9348
 2816SOL     OW 9131   4.103   1.722   4.164  0.3561 -0.3154  0.0931
 2816SOL    HW1 9132   4.021   1.767   4.186  0.5514 -0.4667  1.1814
 2816SOL    HW2 9133   4.085   1.680   4.080 -0.0748  1.1619 -0.5976
 2817SOL     OW 9134   5.860   4.280   4.592  0.4125 -0.3166  0.2213
 2817SOL    HW1 9135   5.866   4.255   4.500  0.9411 -2.1057  0.6933
 2817SOL    HW2 9136   5.895   4.204   4.639 -2.4475 -0.6387  2.0447
 2818SOL     OW 9137   2.157   1.735   1.999 -0.2307 -0.5050 -0.0637
 2818SOL    HW1 9138   2.185   1.731   1.908  0.1563 -1.2522  0.0843
 2818SOL    HW2 9139   2.236   1.757   2.048 -0.5679  0.5487  0.0375
 2819SOL     OW 9140   3.101   3.153   5.849  0.1749  0.1686 -0.1025
 2819SOL    HW1 9141   3.146   3.102   5.781  0.8235  0.2626  0.2513
 2819SOL    HW2 9142   3.070   3.088   5.911  0.9421  0.1857  0.3127
 2820SOL     OW 9143   1.816   4.370   4.843  0.2019  0.5096  0.0046
 2820SOL    HW1 9144   1.752   4.441   4.851  0.2500  0.4147  1.5420
 2820SOL    HW2 9145   1.768   4.291   4.868  0.5132  0.1888 -0.3884
 2821SOL     OW 9146   2.411   5.989   4.738 -0.4484 -0.4002  0.3409
 2821SOL    HW1 9147   2.333   5.949   4.775 -1.8256 -0.2840 -2.1959
 2821SOL    HW2 9148   2.400   6.082   4.753 -0.6731 -0.4075  0.2272
 2822SOL     OW 9149   1.717   2.413   2.737  0.0351  0.4734  0.4104
 2822SOL    HW1 9150   1.643   2.358   2.764  1.9823 -2.2180  0.5930
 2822SOL    HW2 9151   1.698   2.499   2.775 -2.3258 -0.4740  1.5766
 2823SOL     OW 9152   3.730   2.033   4.879 -0.8725  0.6441 -0.4650
 2823SOL    HW1 9153   3.689   1.977   4.813 -0.7697  0.1951 -0.1500
 2823SOL    HW2 9154   3.715   1.988   4.962 -1.9516  1.7333 -0.0333
 2824SOL     OW 9155   5.929   0.254   4.123  0.0514  0.0742  0.6987
 2824SOL    HW1 9156   5.943   0.349   4.130 -1.0170  0.3940 -0.9418
 2824SOL    HW2 9157   5.868   0.244   4.051  0.9755 -1.9606  0.1249
 2825SOL     OW 9158   3.243   5.046   0.226 -0.1471 -0.5326  0.1434
 2825SOL    HW1 9159   3.181   5.069   0.295 -1.4300  1.2572 -1.5153
 2825SOL    HW2 9160   3.322   5.097   0.247 -1.0358  1.1618 -0.4470
 2826SOL     OW 9161   4.595   6.137   5.231  0.2275 -0.5944  0.2233
 2826SOL    HW1 9162   4.514   6.094   5.204  0.2033  0.0039 -0.7018
 2826SOL    HW2 9163   4.618   6.095   5.313 -0.6401 -1.2671  0.1372
 2827SOL     OW 9164   0.327   0.494   2.631  0.4894 -0.3092  0.0037
 2827SOL    HW1 9165   0.321   0.401   2.608 -0.7909 -0.2997  0.1999
 2827SOL    HW2 9166   0.281   0.539   2.560  2.5342  0.3560 -0.9674
 2828SOL     OW 9167   5.851   3.246   4.238  0.1826  0.2252 -0.0340
 2828SOL    HW1 9168   5.807   3.161   4.229  0.1412  0.2834 -0.3850
 2828SOL    HW2 9169   5.903   3.237   4.318  0.2592 -0.1682 -0.1227
 2829SOL     OW 9170   5.491   4.863   3.188  0.7322 -0.0634 -0.3507
 2829SOL    HW1 9171   5.492   4.815   3.105 -2.1163  0.1167 -0.5936
 2829SOL    HW2 9172   5.424   4.819   3.241  1.2762  0.8821  1.1924
 2830SOL     OW 9173   6.054   3.614   1.225 -0.2702 -0.1610 -0.6521
 2830SOL    HW1 9174   6.078   3.613   1.318  0.0448 -1.4550 -0.7239
 2830SOL    HW2 9175   6.112   3.678   1.185 -2.0152  2.2404  0.4137
 2831SOL     OW 9176   5.211   0.461   3.142 -0.2977  0.0766 -0.6055
 2831SOL    HW1 9177   5.305   0.441   3.146 -0.0205  0.8927 -2.1995
 2831SOL    HW2 9178   5.169   0.377   3.155  0.5994 -0.1281  1.3367
 2832SOL     OW 9179   1.221   6.306   2.490 -0.1184 -0.1766 -0.1712
 2832SOL    HW1 9180   1.214   6.286   2.397  0.6356 -0.1759 -0.2275
 2832SOL    HW2 9181   1.240   6.222   2.532 -0.6940 -0.2201  0.0152
 2833SOL     OW 9182   5.601   1.872   6.196 -0.3661  0.0308  0.4380
 2833SOL    HW1 9183   5.591   1.917   6.112 -2.6859 -0.1985  0.5389
 2833SOL    HW2 9184   5.598   1.942   6.261 -0.3684  0.0437  0.4242
 2834SOL     OW 9185   6.433   1.016   5.994 -0.4535  0.4827  0.3896
 2834SOL    HW1 9186   6.411   1.031   5.902 -1.7939 -1.6031  0.2909
 2834SOL    HW2 9187   6.459   1.102   6.027  1.9768  0.9699 -2.3886
 2835SOL     OW 9188   4.670   6.481   0.104  0.0555  0.6622 -0.1704
 2835SOL    HW1 9189   4.623   6.423   0.165 -1.5371  2.8443  0.8318
 2835SOL    HW2 9190   4.623   6.471   0.021  1.0137 -0.8557 -0.5792
 2836SOL     OW 9191   6.173   2.742   6.370 -0.2265 -0.0223  0.5370
 2836SOL    HW1 9192   6.219   2.808   6.318 -0.2964  1.1318  1.8748
 2836SOL    HW2 9193   6.096   2.721   6.318  0.9504 -0.7863 -0.9848
 2837SOL     OW 9194   1.869   0.185   0.915  0.3017  0.1769 -0.2909
 2837SOL    HW1 9195   1.830   0.159   0.831  1.5308 -1.4094 -0.4034
 2837SOL    HW2 9196   1.835   0.122   0.978 -1.4933  2.0089  0.7057
 2838SOL     OW 9197   2.278   6.483   3.501  0.6119 -0.0407 -0.1341
 2838SOL    HW1 9198   2.302   6.497   3.593  1.5646  0.6334 -0.4655
 2838SOL    HW2 9199   2.309   6.395   3.482  1.7896  0.3697 -0.2121
 2839SOL     OW 9200   2.209   2.726   4.112 -0.1543 -0.4012 -0.5568
 2839SOL    HW1 9201   2.256   2.667   4.054  3.7935 -0.7420  2.5754
 2839SOL    HW2 9202   2.246   2.709   4.199 -2.4043  3.1946  1.3593
 2840SOL     OW 9203   4.630   1.126   0.439 -0.1839 -0.2630 -0.0254
 2840SOL    HW1 9204   4.667   1.116   0.527 -0.6875 -2.3785 -0.0142
 2840SOL    HW2 9205   4.624   1.037   0.405 -0.8646  0.4401 -1.8683
 2841SOL     OW 9206   4.819   5.336   6.179 -0.2552  0.2481 -0.1706
 2841SOL    HW1 9207   4.785   5.424   6.165 -0.0551  0.3976  0.2711
 2841SOL    HW2 9208   4.914   5.347   6.184 -0.2759  0.1295  0.7130
 2842SOL     OW 9209   3.179   2.264   2.245  0.0054 -0.3144  0.0381
 2842SOL    HW1 9210   3.137   2.186   2.281  0.7997  0.1531  2.1338
 2842SOL    HW2 9211   3.112   2.332   2.249  0.0527 -0.2969  0.5132
 2843SOL     OW 9212   4.474   0.492   1.447  0.9240 -0.6012 -0.5000
 2843SOL    HW1 9213   4.411   0.549   1.404  0.2890 -1.0434 -0.1699
 2843SOL    HW2 9214   4.426   0.454   1.520  1.2802 -1.6826 -0.8063
 2844SOL     OW 9215   6.486   2.682   3.059 -0.6844 -0.3165 -1.0350
 2844SOL    HW1 9216   6.548   2.735   3.009  1.7435 -0.4367  1.6099
 2844SOL    HW2 9217   6.400   2.713   3.030  0.5673  1.4501 -3.2546
 2845SOL     OW 9218   0.747   3.900   5.093 -0.1585 -0.0515  0.5895
 2845SOL    HW1 9219   0.728   3.928   5.004 -2.1253 -2.6662  0.0654
 2845SOL    HW2 9220   0.813   3.831   5.083  1.4055  1.2467  1.4428
 2846SOL     OW 9221   1.378   6.224   1.890  0.5667 -0.2000 -0.3543
 2846SOL    HW1 9222   1.399   6.309   1.927 -1.9438  0.1970  0.3079
 2846SOL    HW2 9223   1.318   6.243   1.818 -0.0914 -1.4079 -0.1541
 2847SOL     OW 9224   5.263   3.545   2.527  0.0810  0.4041  0.1009
 2847SOL    HW1 9225   5.237   3.614   2.466  0.0233  1.3146  1.1092
 2847SOL    HW2 9226   5.248   3.463   2.480 -0.4756  1.0637 -0.8951
 2848SOL     OW 9227   2.647   0.151   4.633 -0.1291  0.3424  0.6806
 2848SOL    HW1 9228   2.599   0.197   4.703 -1.7553  0.0023 -0.1516
 2848SOL    HW2 9229   2.611   0.187   4.552 -0.3650 -1.3177  0.0203
 2849SOL     OW 9230   3.058   2.575   0.723 -0.2688 -0.0556  0.2723
 2849SOL    HW1 9231   3.140   2.607   0.685 -1.4234  1.0747 -1.4069
 2849SOL    HW2 9232   3.054   2.615   0.810 -0.1605  1.8895 -0.5714
 2850SOL     OW 9233   5.971   5.100   3.974 -0.0578  0.3849 -0.0533
 2850SOL    HW1 9234   5.960   5.156   3.897  1.6682 -1.1062 -1.4884
 2850SOL    HW2 9235   5.908   5.029   3.962  0.2123  0.1499 -0.0980
 2851SOL     OW 9236   0.914   4.200   5.475 -0.1059 -0.3117 -0.2119
 2851SOL    HW1 9237   0.912   4.106   5.454  0.8041 -0.1009 -1.3547
 2851SOL    HW2 9238   1.007   4.222   5.477 -0.1719  0.0889  2.4801
 2852SOL     OW 9239   0.080   1.269   5.657 -0.2932 -0.2495  0.1933
 2852SOL    HW1 9240   0.033   1.243   5.736  2.0995 -2.4372  1.0188
 2852SOL    HW2 9241   0.020   1.329   5.612 -1.9224  0.7401  3.3938
 2853SOL     OW 9242   1.334   4.490   5.116  0.3809 -0.0403 -0.1406
 2853SOL    HW1 9243   1.424   4.488   5.146 -0.1162  1.8340  1.7720
 2853SOL    HW2 9244   1.282   4.484   5.196 -1.2219 -1.2283 -1.2030
 2854SOL     OW 9245   3.090   1.000   3.964 -0.2140  0.5954 -0.2794
 2854SOL    HW1 9246   3.072   1.071   4.025 -1.2794  1.1041 -1.1539
 2854SOL    HW2 9247   3.140   1.041   3.893  0.0568  0.2462 -0.2943
 2855SOL     OW 9248   2.955   4.734   2.585 -0.0999  0.1651 -0.3460
 2855SOL    HW1 9249   3.025   4.671   2.569 -0.7171 -0.9760  1.1895
 2855SOL    HW2 9250   2.884   4.706   2.527 -0.1649 -0.1954 -0.0919
 2856SOL     OW 9251   4.051   1.865   5.891 -0.2611 -0.1694  0.1181
 2856SOL    HW1 9252   4.008   1.948   5.913 -0.0845  0.2011 -0.8824
 2856SOL    HW2 9253   4.143   1.888   5.883 -0.3010 -0.3122 -0.8511
 2857SOL     OW 9254   2.115   5.590   1.260  0.4092 -0.8089 -0.7648
 2857SOL    HW1 9255   2.205   5.569   1.233  0.3178 -0.7082 -1.1532
 2857SOL    HW2 9256   2.060   5.536   1.203  0.2086 -0.4404 -0.9242
 2858SOL     OW 9257   0.212   5.901   2.047  0.2007 -0.1644  0.6081
 2858SOL    HW1 9258   0.158   5.834   2.087 -1.4889  2.0447  2.2904
 2858SOL    HW2 9259   0.164   5.928   1.969 -0.0526  0.3032  0.9197
 2859SOL     OW 9260   3.535   5.994   0.015 -0.3050 -0.4492 -0.3136
 2859SOL    HW1 9261   3.536   5.992   0.111 -0.8426 -2.3777 -0.3077
 2859SOL    HW2 9262   3.603   5.932  -0.011 -0.3338 -0.1259 -1.1869
 2860SOL     OW 9263   0.447   1.052   3.425  0.5085  0.3242 -0.3517
 2860SOL    HW1 9264   0.398   1.117   3.475  0.1246  1.0000 -1.5695
 2860SOL    HW2 9265   0.389   1.028   3.352  1.7503  0.7709 -1.5348
 2861SOL     OW 9266   2.935   4.236   0.029  0.2186 -0.2990 -0.0255
 2861SOL    HW1 9267   2.984   4.305   0.074  0.6397 -0.0171 -0.8919
 2861SOL    HW2 9268   2.917   4.272  -0.058 -1.2647 -0.5297  0.1657
 2862SOL     OW 9269   4.464   2.625   1.848 -0.0883  0.3744 -0.1621
 2862SOL    HW1 9270   4.473   2.645   1.941  0.1875 -1.0964  0.1680
 2862SOL    HW2 9271   4.449   2.709   1.806 -1.3092  0.9544  1.3440
 2863SOL     OW 9272   1.248   4.921   0.520  0.5500  0.3774 -0.0890
 2863SOL    HW1 9273   1.242   4.974   0.441  2.6634 -0.4171 -0.8537
 2863SOL    HW2 9274   1.175   4.950   0.575 -0.1452  1.8973 -1.7475
 2864SOL     OW 9275   4.542   1.299   5.127  0.4777  0.3003  0.2038
 2864SOL    HW1 9276   4.499   1.259   5.203 -0.3637 -1.1423 -0.9608
 2864SOL    HW2 9277   4.475   1.358   5.091  0.7582  0.7386  0.4017
 2865SOL     OW 9278   1.067   3.447   4.503 -0.2860  0.3219 -0.3014
 2865SOL    HW1 9279   1.054   3.511   4.433  1.7274  1.1594  0.0101
 2865SOL    HW2 9280   0.984   3.443   4.549 -1.2292  0.7788 -1.8908
 2866SOL     OW 9281   5.249   2.127   0.430 -0.3122  0.0520 -0.7941
 2866SOL    HW1 9282   5.310   2.067   0.389  2.7166  1.9780  0.5160
 2866SOL    HW2 9283   5.268   2.212   0.390 -0.3397  1.1661  1.3896
 2867SOL     OW 9284   4.189   2.263   2.237 -0.1251 -0.4829 -0.1018
 2867SOL    HW1 9285   4.185   2.174   2.271  0.0043 -0.3433  0.2883
 2867SOL    HW2 9286   4.171   2.254   2.143  2.7869 -1.3104 -0.6817
 2868SOL     OW 9287   3.177   4.790   5.726  0.2803 -0.1013  0.4312
 2868SOL    HW1 9288   3.176   4.876   5.682  2.3335 -0.0711  0.3884
 2868SOL    HW2 9289   3.210   4.809   5.814  1.3960 -0.9300  0.2017
 2869SOL     OW 9290   0.025   1.544   3.159  0.3072  0.5396 -0.0867
 2869SOL    HW1 9291   0.083   1.553   3.083  1.0734  0.8562  0.5248
 2869SOL    HW2 9292  -0.020   1.461   3.144 -0.8839  1.4523 -1.7651
 2870SOL     OW 9293   0.854   5.842   3.838  0.1391 -0.3077 -0.3784
 2870SOL    HW1 9294   0.944   5.841   3.871  0.6399 -1.6145 -1.6842
 2870SOL    HW2 9295   0.854   5.780   3.765 -1.8354 -0.3557 -0.4006
 2871SOL     OW 9296   2.975   2.877   2.683  0.0401  0.0144  0.3700
 2871SOL    HW1 9297   2.972   2.881   2.587  2.3860 -2.2178  0.1029
 2871SOL    HW2 9298   2.922   2.801   2.706 -0.1698  0.2953  0.8269
 2872SOL     OW 9299   2.804   5.202   3.689 -0.0056  0.3466  0.2900
 2872SOL    HW1 9300   2.732   5.239   3.740  0.8357  0.4786  1.4091
 2872SOL    HW2 9301   2.772   5.117   3.660 -0.1340 -0.1893  1.9292
 2873SOL     OW 9302   4.326   6.495   3.603  0.3440  0.2010 -0.2502
 2873SOL    HW1 9303   4.297   6.547   3.528  1.2204 -0.8219 -1.3553
 2873SOL    HW2 9304   4.276   6.414   3.596 -0.0934  0.3759  0.7128
 2874SOL     OW 9305   0.980   2.886   5.615  0.6342  0.5475 -0.0164
 2874SOL    HW1 9306   1.026   2.861   5.535  0.2408 -0.7084  0.1324
 2874SOL    HW2 9307   0.932   2.807   5.641 -1.0693  1.5863  0.2024
 2875SOL     OW 9308   3.791   2.807   4.701  0.1839 -0.1008 -0.0719
 2875SOL    HW1 9309   3.817   2.716   4.717  1.7113  0.3271  0.0304
 2875SOL    HW2 9310   3.871   2.849   4.670 -0.6960  1.0468 -0.8381
 2876SOL     OW 9311   3.629   1.012   1.212 -0.2179 -0.2301  0.3135
 2876SOL    HW1 9312   3.580   1.046   1.287  0.0260 -0.2255  0.4722
 2876SOL    HW2 9313   3.601   0.920   1.205 -1.6917  0.2685 -0.7845
 2877SOL     OW 9314   5.472   6.067   1.509 -0.6429  0.1452  0.3044
 2877SOL    HW1 9315   5.551   6.104   1.550  1.3108 -0.1371 -2.8736
 2877SOL    HW2 9316   5.488   5.972   1.510  0.7053  0.2086 -3.0711
 2878SOL     OW 9317   2.160   3.558   5.932  0.7557  0.1761 -0.7508
 2878SOL    HW1 9318   2.141   3.506   5.854  0.3507 -0.2971 -0.3485
 2878SOL    HW2 9319   2.209   3.633   5.900 -0.1227  0.4151 -1.5797
 2879SOL     OW 9320   1.634   2.207   1.522 -0.0962  0.2074  0.0938
 2879SOL    HW1 9321   1.669   2.206   1.433  1.2883 -0.7309  0.6108
 2879SOL    HW2 9322   1.689   2.271   1.568 -1.1581  1.1026  0.1634
 2880SOL     OW 9323   2.476   6.121   3.294 -0.5944 -0.4256  0.2891
 2880SOL    HW1 9324   2.525   6.089   3.218  0.3779  1.0843  0.2359
 2880SOL    HW2 9325   2.406   6.057   3.306  0.6001 -1.9307 -0.4505
 2881SOL     OW 9326   3.193   0.554   0.275 -0.1876 -0.5204  0.4612
 2881SOL    HW1 9327   3.238   0.530   0.356  0.8210  1.2185  0.4632
 2881SOL    HW2 9328   3.261   0.548   0.208 -0.1697  1.1514  0.2899
 2882SOL     OW 9329   3.506   1.033   4.396  0.0803  0.1797 -0.4683
 2882SOL    HW1 9330   3.473   1.123   4.388  2.2377  1.3621  2.2422
 2882SOL    HW2 9331   3.520   1.021   4.490  0.6015 -2.7604 -0.8333
 2883SOL     OW 9332   6.013   0.022   1.400  0.4105 -0.2774 -0.3138
 2883SOL    HW1 9333   5.989  -0.067   1.425 -2.6602  0.3416 -0.7456
 2883SOL    HW2 9334   5.991   0.075   1.476 -2.7850  0.7249 -1.8028
 2884SOL     OW 9335   5.231   6.002   4.434 -0.0805  0.0558  0.0579
 2884SOL    HW1 9336   5.243   6.023   4.526  1.6641 -2.0932  0.4088
 2884SOL    HW2 9337   5.298   6.053   4.388 -1.1324  1.3421 -0.0943
 2885SOL     OW 9338   2.600   1.570   4.032 -0.2035  0.0282 -0.3447
 2885SOL    HW1 9339   2.524   1.586   3.976 -0.1427 -0.2172 -0.4973
 2885SOL    HW2 9340   2.595   1.639   4.099  0.8002  1.5410 -1.7491
 2886SOL     OW 9341   4.873   4.377   5.373  0.4299  0.0858  0.3517
 2886SOL    HW1 9342   4.865   4.428   5.454  0.8814 -1.4891  1.4428
 2886SOL    HW2 9343   4.966   4.381   5.352  0.3518  0.2911  0.0509
 2887SOL     OW 9344   3.610   3.853   0.332  0.0763  0.0386  0.0537
 2887SOL    HW1 9345   3.673   3.925   0.340  0.1636  0.0593 -0.7098
 2887SOL    HW2 9346   3.660   3.775   0.356 -0.1501  0.2767  1.3610
 2888SOL     OW 9347   5.775   5.588   2.818  0.0262  0.5634  0.2450
 2888SOL    HW1 9348   5.687   5.550   2.821 -0.7255  2.0973 -0.7836
 2888SOL    HW2 9349   5.790   5.604   2.724  0.9908  1.2494  0.5057
 2889SOL     OW 9350   4.673   3.611   2.036 -0.5375 -0.1656  0.3400
 2889SOL    HW1 9351   4.591   3.651   2.061 -0.3933  0.6247 -0.4248
 2889SOL    HW2 9352   4.739   3.653   2.091 -0.1914  1.7251 -1.3882
 2890SOL     OW 9353   6.279   0.077   1.463 -0.3039 -0.6242  0.4518
 2890SOL    HW1 9354   6.271   0.104   1.554  0.2500 -0.6092  0.4971
 2890SOL    HW2 9355   6.188   0.065   1.434 -0.4610 -1.4022  1.2312
 2891SOL     OW 9356   5.088   4.113   0.221  0.0094  0.3402 -0.0681
 2891SOL    HW1 9357   5.183   4.108   0.230 -0.0055 -1.5036 -0.5870
 2891SOL    HW2 9358   5.074   4.161   0.140  0.4744  0.8190  0.1277
 2892SOL     OW 9359   3.353   0.150   4.667 -0.2853 -0.8741 -0.3653
 2892SOL    HW1 9360   3.362   0.110   4.580  0.6662 -0.4752 -0.4582
 2892SOL    HW2 9361   3.434   0.199   4.680 -1.0152  0.2585  0.1460
 2893SOL     OW 9362   1.887   1.318   6.241  0.0890 -0.2605  0.5717
 2893SOL    HW1 9363   1.843   1.267   6.173  0.4593  1.0555 -0.7140
 2893SOL    HW2 9364   1.827   1.391   6.260  0.7289  0.3154  0.4160
 2894SOL     OW 9365   4.199   1.723   2.485 -0.1756  0.1190 -0.2578
 2894SOL    HW1 9366   4.262   1.651   2.485 -1.2025 -0.8165 -1.4701
 2894SOL    HW2 9367   4.115   1.680   2.469 -1.1490  1.3320  1.3301
 2895SOL     OW 9368   4.791   2.693   5.942  0.7455  0.0999 -0.0209
 2895SOL    HW1 9369   4.709   2.737   5.964  0.9376  1.5468 -1.9597
 2895SOL    HW2 9370   4.835   2.681   6.026 -1.5514 -1.0111  1.1110
 2896SOL     OW 9371   2.793   3.580   5.001 -0.2423  0.4271 -0.5411
 2896SOL    HW1 9372   2.772   3.588   4.908  0.0119  0.0377 -0.6359
 2896SOL    HW2 9373   2.808   3.669   5.031 -1.2239  0.6346 -0.6583
 2897SOL     OW 9374   0.596   2.716   5.930 -0.0774 -0.0573 -0.2870
 2897SOL    HW1 9375   0.596   2.646   5.864 -1.2906  0.5125 -0.9079
 2897SOL    HW2 9376   0.516   2.702   5.980  0.0584  0.4392  0.0746
 2898SOL     OW 9377   0.926   4.005   6.415  0.0700  0.4663 -0.0709
 2898SOL    HW1 9378   0.903   4.011   6.322  0.7102  1.0050 -0.1983
 2898SOL    HW2 9379   1.020   3.988   6.415 -0.0741 -0.4345  0.4680
 2899SOL     OW 9380   4.082   0.564   3.827  0.1857  0.2399 -0.0382
 2899SOL    HW1 9381   4.112   0.527   3.745  0.5552  0.0733  0.1705
 2899SOL    HW2 9382   4.137   0.523   3.894  0.7433  1.3129  0.1885
 2900SOL     OW 9383   3.549   5.606   3.518  0.8772 -0.1635 -0.0331
 2900SOL    HW1 9384   3.598   5.597   3.600 -1.0481  1.8071  1.4494
 2900SOL    HW2 9385   3.506   5.522   3.507  4.2709 -1.9213 -1.3128
 2901SOL     OW 9386   1.795   1.610   0.888 -0.1811 -0.0792  0.5553
 2901SOL    HW1 9387   1.883   1.639   0.863  0.2781 -0.1416  2.0411
 2901SOL    HW2 9388   1.771   1.665   0.962 -1.9398  0.7837 -0.5768
 2902SOL     OW 9389   4.788   5.393   4.011  0.1049 -0.7735  0.4547
 2902SOL    HW1 9390   4.840   5.331   4.063 -1.7152 -1.1270  1.9418
 2902SOL    HW2 9391   4.725   5.339   3.965  1.2025 -0.3750 -1.6216
 2903SOL     OW 9392   1.159   6.027   5.774  0.1627 -0.4357 -0.1842
 2903SOL    HW1 9393   1.081   5.986   5.736 -0.4907 -0.8830  1.5384
 2903SOL    HW2 9394   1.127   6.069   5.855  1.6958 -0.5727  0.5229
 2904SOL     OW 9395   5.712   5.370   5.723  0.2545 -0.6160  0.0789
 2904SOL    HW1 9396   5.693   5.304   5.657 -0.2684 -0.5526  0.1575
 2904SOL    HW2 9397   5.789   5.416   5.690 -0.6032  0.0884 -0.9996
 2905SOL     OW 9398   5.406   4.704   1.343 -0.6187 -0.1302 -0.4035
 2905SOL    HW1 9399   5.468   4.642   1.304  0.2712  1.7781 -2.2241
 2905SOL    HW2 9400   5.360   4.742   1.268  0.6000  3.1545  0.3610
 2906SOL     OW 9401   4.653   1.537   5.936 -0.3117 -0.1528 -0.0976
 2906SOL    HW1 9402   4.739   1.570   5.910  0.6680  3.7749  6.1281
 2906SOL    HW2 9403   4.595   1.612   5.927 -1.5866 -0.9065  1.3738
 2907SOL     OW 9404   5.504   5.448   2.826 -0.4818 -0.4584 -0.1389
 2907SOL    HW1 9405   5.476   5.395   2.751 -0.8278 -0.3607 -0.0811
 2907SOL    HW2 9406   5.454   5.414   2.900 -0.1549 -0.5412  0.0457
 2908SOL     OW 9407   2.899   5.073   1.475  0.9315 -0.1188 -0.6519
 2908SOL    HW1 9408   2.967   5.061   1.541  1.8377 -1.0021 -1.6935
 2908SOL    HW2 9409   2.934   5.139   1.416  0.5862 -0.0736 -0.8067
 2909SOL     OW 9410   1.531   3.941   1.264  0.0179 -0.2598  0.4336
 2909SOL    HW1 9411   1.558   4.026   1.296 -1.5252 -0.3895  2.2838
 2909SOL    HW2 9412   1.514   3.954   1.171  1.1763  1.0720  0.3901
 2910SOL     OW 9413   5.413   3.871   1.185  0.0960  0.1999 -0.2981
 2910SOL    HW1 9414   5.365   3.940   1.230  1.1107  0.1838  0.8625
 2910SOL    HW2 9415   5.440   3.910   1.102 -0.4942  0.7407 -0.2375
 2911SOL     OW 9416   5.343   0.527   6.348 -0.2930 -0.0095 -0.2762
 2911SOL    HW1 9417   5.336   0.520   6.443 -1.4794 -0.4018 -0.3775
 2911SOL    HW2 9418   5.253   0.542   6.318  0.2656  1.8898 -1.2077
 2912SOL     OW 9419   4.817   4.325   4.984  0.1066 -0.5857  0.0718
 2912SOL    HW1 9420   4.760   4.255   5.018 -1.1005  0.2874 -0.0724
 2912SOL    HW2 9421   4.801   4.399   5.043  1.5540 -0.4847  0.3673
 2913SOL     OW 9422   5.568   3.115   4.989  0.1819 -0.3949 -0.2850
 2913SOL    HW1 9423   5.663   3.121   4.981  0.1924 -0.8684 -0.5565
 2913SOL    HW2 9424   5.538   3.085   4.904 -0.1592 -0.7899 -0.0311
 2914SOL     OW 9425   1.096   2.559   2.038 -0.0475  0.5249  0.1754
 2914SOL    HW1 9426   1.066   2.486   1.983  2.6487  0.3797 -1.3018
 2914SOL    HW2 9427   1.048   2.635   2.005 -0.9308 -0.1392 -0.1074
 2915SOL     OW 9428   6.499   1.663   3.470  0.1171 -0.2616 -0.8358
 2915SOL    HW1 9429   6.420   1.717   3.482 -0.0385 -0.8225  0.8471
 2915SOL    HW2 9430   6.490   1.629   3.381 -1.7076 -0.5481 -0.5954
 2916SOL     OW 9431   4.313   1.391   3.322 -0.3422 -0.2915  0.0487
 2916SOL    HW1 9432   4.341   1.482   3.327 -0.3485 -0.2414 -0.7097
 2916SOL    HW2 9433   4.217   1.395   3.319 -0.4137 -0.4129  1.6524
 2917SOL     OW 9434   5.956   1.904   3.064  0.6278  0.2272  0.1265
 2917SOL    HW1 9435   5.976   1.972   3.128 -0.5479 -0.3177  1.1055
 2917SOL    HW2 9436   5.875   1.933   3.023  2.5759  1.8629 -3.0192
 2918SOL     OW 9437   1.257   2.091   4.915  0.5092  0.5537 -0.1567
 2918SOL    HW1 9438   1.162   2.082   4.904  0.1581  0.0519  2.6682
 2918SOL    HW2 9439   1.278   2.171   4.867 -1.8002  2.0316  1.0900
 2919SOL     OW 9440   1.913   1.025   6.216 -0.3998  0.2288 -0.3919
 2919SOL    HW1 9441   1.864   1.107   6.210  1.8289  1.5877 -0.9425
 2919SOL    HW2 9442   1.935   1.004   6.125 -0.9596 -1.0357 -0.2629
 2920SOL     OW 9443   2.000   5.398   5.031 -0.0391 -0.5231 -0.0753
 2920SOL    HW1 9444   2.075   5.375   5.086  0.4353 -1.3537 -1.0370
 2920SOL    HW2 9445   1.936   5.434   5.092  1.5817  1.4003  0.6004
 2921SOL     OW 9446   1.692   3.905   5.604  0.3139 -0.1120  0.3049
 2921SOL    HW1 9447   1.634   3.967   5.559 -0.2945 -2.0297 -1.6813
 2921SOL    HW2 9448   1.777   3.949   5.606  0.6452 -0.2469 -3.6971
 2922SOL     OW 9449   5.108   6.359   3.744 -0.0966 -0.1675 -0.7962
 2922SOL    HW1 9450   5.029   6.385   3.698 -0.5865  1.0149  0.6255
 2922SOL    HW2 9451   5.077   6.324   3.828  0.8680  1.8649  0.5099
 2923SOL     OW 9452   4.577   4.178   1.023 -0.4141 -0.2424  0.0741
 2923SOL    HW1 9453   4.576   4.179   0.927  1.7999 -1.4142 -0.0142
 2923SOL    HW2 9454   4.573   4.270   1.048 -1.3657  0.0728 -1.0989
 2924SOL     OW 9455   4.670   5.857   3.217  0.5228 -0.1741  0.8512
 2924SOL    HW1 9456   4.682   5.766   3.242 -1.1645 -0.6598  0.0487
 2924SOL    HW2 9457   4.675   5.906   3.300  0.6892 -1.0800  1.3844
 2925SOL     OW 9458   2.594   3.622   1.664  0.3848  0.6747  0.3508
 2925SOL    HW1 9459   2.680   3.651   1.632  1.4378  0.9733  3.1742
 2925SOL    HW2 9460   2.600   3.526   1.663  0.2494  0.6608 -0.5874
 2926SOL     OW 9461   1.624   1.350   3.437 -0.2409  0.4903 -0.0548
 2926SOL    HW1 9462   1.703   1.302   3.461 -0.3108  0.3860 -0.0313
 2926SOL    HW2 9463   1.552   1.291   3.460 -0.3296  0.6254  0.0174
 2927SOL     OW 9464   5.868   1.836   5.812 -0.1664  0.8981 -0.5443
 2927SOL    HW1 9465   5.869   1.851   5.906 -0.2394  0.8862 -0.5415
 2927SOL    HW2 9466   5.952   1.871   5.781 -0.3999  1.4535 -0.5577
 2928SOL     OW 9467   3.346   2.431   1.628  0.3587 -0.2657  0.2024
 2928SOL    HW1 9468   3.290   2.491   1.678  0.5380 -0.0930  0.1972
 2928SOL    HW2 9469   3.397   2.386   1.695  0.2362 -0.4016  0.2053
 2929SOL     OW 9470   4.667   1.306   4.744  0.2366  0.6915  0.2228
 2929SOL    HW1 9471   4.729   1.353   4.688 -0.0825  1.0291  0.1457
 2929SOL    HW2 9472   4.703   1.314   4.832  1.1589 -0.5249 -0.0280
 2930SOL     OW 9473   0.983   5.378   4.006 -0.0895  0.4104  0.0564
 2930SOL    HW1 9474   0.893   5.346   4.008  0.2944 -0.7164 -0.0442
 2930SOL    HW2 9475   0.983   5.455   4.064 -0.8402 -0.3186  1.0493
 2931SOL     OW 9476   3.333   5.368   1.803  0.2771 -0.6050  1.3373
 2931SOL    HW1 9477   3.314   5.424   1.878  1.8439 -0.4074  1.6107
 2931SOL    HW2 9478   3.425   5.344   1.812 -0.0481 -2.3402  0.6255
 2932SOL     OW 9479   2.563   1.892   1.530 -0.1215 -0.4388  0.2141
 2932SOL    HW1 9480   2.582   1.827   1.597  1.6172  1.0578  1.2786
 2932SOL    HW2 9481   2.634   1.884   1.467 -0.8981 -0.7849 -0.6352
 2933SOL     OW 9482   0.677   4.923   1.717  0.1626  0.0748 -0.2859
 2933SOL    HW1 9483   0.660   4.932   1.811  0.2459  1.3347 -0.3785
 2933SOL    HW2 9484   0.622   4.989   1.676  0.8250  0.1571 -1.0567
 2934SOL     OW 9485   3.637   4.993   5.085 -0.2289 -0.4018  0.6561
 2934SOL    HW1 9486   3.588   5.016   5.005  0.8056 -2.4455 -0.6635
 2934SOL    HW2 9487   3.608   4.905   5.106 -0.2990  0.0162  2.4509
 2935SOL     OW 9488   3.265   5.255   6.012  0.5234 -0.1356 -0.8970
 2935SOL    HW1 9489   3.323   5.229   5.941  3.0503  0.4094  0.8275
 2935SOL    HW2 9490   3.278   5.189   6.079 -2.2497 -0.9696 -1.0371
 2936SOL     OW 9491   0.130   2.186   2.024  0.0651  0.1766 -0.3887
 2936SOL    HW1 9492   0.137   2.092   2.009 -0.0846  0.1330 -0.1885
 2936SOL    HW2 9493   0.206   2.208   2.078  0.3992  0.2680 -0.8925
 2937SOL     OW 9494   5.301   2.405   6.391  0.1748  0.6472 -0.2193
 2937SOL    HW1 9495   5.388   2.437   6.414 -0.7249  1.0012  3.1062
 2937SOL    HW2 9496   5.283   2.337   6.456 -1.2877 -0.8489 -2.0833
 2938SOL     OW 9497   1.005   0.439   0.200 -0.0195  0.3061 -0.5857
 2938SOL    HW1 9498   0.941   0.382   0.157  0.8937 -0.3090 -1.1729
 2938SOL    HW2 9499   1.090   0.403   0.174  0.6036  2.2598 -1.4389
 2939SOL     OW 9500   0.042   5.884   4.665  0.0524  0.6731 -0.3542
 2939SOL    HW1 9501   0.008   5.960   4.712 -0.5587  0.7227 -0.8628
 2939SOL    HW2 9502  -0.025   5.817   4.676 -0.9855  1.2430 -2.6297
 2940SOL     OW 9503   4.886   3.688   2.233  0.1055 -0.0718  0.3063
 2940SOL    HW1 9504   4.826   3.739   2.287  0.5344  0.6058  0.1638
 2940SOL    HW2 9505   4.945   3.646   2.296  0.6152  0.7292  0.3834
 2941SOL     OW 9506   6.126   6.500   2.787 -0.7821  0.2270  0.3802
 2941SOL    HW1 9507   6.172   6.430   2.834 -1.1756  0.9068  1.8299
 2941SOL    HW2 9508   6.195   6.564   2.767 -0.9085  0.8874  1.8801
 2942SOL     OW 9509   0.609   3.391   2.526  0.4056  0.0999  0.0994
 2942SOL    HW1 9510   0.610   3.487   2.525 -2.1563  0.1897 -0.8216
 2942SOL    HW2 9511   0.686   3.366   2.474  0.9838  1.6399  0.1554
 2943SOL     OW 9512   4.243   4.113   3.327  0.3779  0.0030 -0.0953
 2943SOL    HW1 9513   4.252   4.023   3.294  0.2787  0.0272 -0.1903
 2943SOL    HW2 9514   4.187   4.156   3.262  1.3696  0.4569 -0.6702
 2944SOL     OW 9515   0.559   3.196   1.461  0.1564 -0.4021 -0.5466
 2944SOL    HW1 9516   0.632   3.138   1.483 -1.0923 -1.4450  1.0856
 2944SOL    HW2 9517   0.489   3.137   1.433 -1.9549 -0.0998  3.3274
 2945SOL     OW 9518   5.378   2.833   2.042  0.4194  0.3939 -0.0742
 2945SOL    HW1 9519   5.352   2.849   1.951  0.1773 -1.4373 -0.3709
 2945SOL    HW2 9520   5.443   2.762   2.036  0.3157  0.1718  1.1792
 2946SOL     OW 9521   3.070   1.980   5.332  0.2993  0.0974 -0.2199
 2946SOL    HW1 9522   3.071   1.984   5.237  3.8985  0.8461 -0.2967
 2946SOL    HW2 9523   3.115   1.898   5.353  2.0790  1.2472  0.7216
 2947SOL     OW 9524   4.522   0.204   3.411 -0.2097  0.0581 -0.6477
 2947SOL    HW1 9525   4.594   0.267   3.401 -0.5182  0.3234 -1.2237
 2947SOL    HW2 9526   4.530   0.146   3.335 -1.4397  0.9399 -1.4825
 2948SOL     OW 9527   0.583   2.028   2.409 -0.4765 -0.3735 -0.2594
 2948SOL    HW1 9528   0.545   2.021   2.321 -0.4919 -0.4521 -0.2469
 2948SOL    HW2 9529   0.649   1.959   2.412 -1.3038 -1.1714  0.2053
 2949SOL     OW 9530   0.623   4.200   0.593 -0.4808  0.2406 -0.1384
 2949SOL    HW1 9531   0.678   4.164   0.524  0.9811  1.0926  0.5248
 2949SOL    HW2 9532   0.543   4.229   0.548 -0.2302 -0.6588 -1.1971
 2950SOL     OW 9533   0.309   0.668   4.565 -0.2415  0.2413 -0.4191
 2950SOL    HW1 9534   0.296   0.701   4.476 -0.3000  0.4623 -0.3277
 2950SOL    HW2 9535   0.280   0.577   4.561 -0.0097  0.1764 -0.6885
 2951SOL     OW 9536   6.196   0.183   3.119  0.1449 -0.3561  0.0899
 2951SOL    HW1 9537   6.195   0.105   3.175  0.3203 -0.4324 -0.0142
 2951SOL    HW2 9538   6.111   0.181   3.075 -1.2259  1.1921  2.3958
 2952SOL     OW 9539   3.640   1.730   6.298 -0.2096  0.2027  0.3545
 2952SOL    HW1 9540   3.711   1.752   6.238 -0.6990  0.5581 -0.1108
 2952SOL    HW2 9541   3.569   1.699   6.241  0.0721 -1.5688  0.9124
 2953SOL     OW 9542   3.926   1.417   4.898 -0.2994  0.0391  0.0170
 2953SOL    HW1 9543   4.015   1.435   4.868  0.2181  0.0966  1.5189
 2953SOL    HW2 9544   3.898   1.342   4.845  0.4519  0.3062 -0.7941
 2954SOL     OW 9545   1.920   1.230   1.462 -0.1354  0.1887  0.1582
 2954SOL    HW1 9546   1.889   1.175   1.534 -0.2447  0.6146  0.4358
 2954SOL    HW2 9547   1.976   1.295   1.504  1.4721 -0.8005 -0.3668
 2955SOL     OW 9548   3.875   5.471   0.351 -0.1239  0.3996 -0.2924
 2955SOL    HW1 9549   3.916   5.545   0.396  0.2138 -0.0183  0.0964
 2955SOL    HW2 9550   3.949   5.413   0.329 -0.4261  0.0008 -0.2641
 2956SOL     OW 9551   5.508   1.070   0.393  0.3462 -0.2352 -0.2167
 2956SOL    HW1 9552   5.422   1.112   0.405  0.7000  1.3951 -2.6210
 2956SOL    HW2 9553   5.521   1.019   0.474 -2.8307 -0.5323  0.2665
 2957SOL     OW 9554   1.316   1.853   2.798 -0.0010  0.0251 -0.4712
 2957SOL    HW1 9555   1.329   1.943   2.829 -1.1221 -0.2834  1.0419
 2957SOL    HW2 9556   1.341   1.798   2.873 -3.9184 -0.7254  0.5499
 2958SOL     OW 9557   4.912   4.083   2.124  0.3150 -0.0094 -0.0827
 2958SOL    HW1 9558   4.979   4.024   2.089  0.8963  1.5231 -1.6521
 2958SOL    HW2 9559   4.870   4.121   2.047 -4.0273 -2.5603  0.6866
 2959SOL     OW 9560   0.948   2.361   5.855  0.2097  0.4729  0.4401
 2959SOL    HW1 9561   1.028   2.349   5.906 -0.6254 -0.8982  1.5372
 2959SOL    HW2 9562   0.897   2.281   5.873 -0.7729  0.6415 -1.3822
 2960SOL     OW 9563   4.914   1.604   5.829 -0.1938 -0.2156 -0.0679
 2960SOL    HW1 9564   4.924   1.511   5.806 -0.5633  0.3563 -2.8850
 2960SOL    HW2 9565   4.995   1.644   5.799 -0.8891  0.6635 -0.8338
 2961SOL     OW 9566   5.463   3.005   1.425 -0.2693 -0.7238  0.2949
 2961SOL    HW1 9567   5.467   3.021   1.519 -1.3097 -0.3762  0.2913
 2961SOL    HW2 9568   5.544   2.957   1.405 -0.6012 -1.8797  1.5739
 2962SOL     OW 9569   2.512   0.980   5.128  0.1562 -0.1516 -0.1001
 2962SOL    HW1 9570   2.440   0.994   5.066  0.9442  0.0084 -1.0060
 2962SOL    HW2 9571   2.550   1.066   5.140  0.9462 -0.4254 -0.5773
 2963SOL     OW 9572   1.620   6.506   0.858 -0.0856 -0.1573 -0.0278
 2963SOL    HW1 9573   1.628   6.419   0.821 -0.1931 -0.5136  0.7664
 2963SOL    HW2 9574   1.665   6.500   0.943 -1.8946 -0.0333  0.9789
 2964SOL     OW 9575   0.743   2.873   3.667  0.0997 -0.1093  0.1593
 2964SOL    HW1 9576   0.707   2.831   3.746 -0.6123 -0.8489 -0.5471
 2964SOL    HW2 9577   0.678   2.856   3.599  1.5939 -1.1031 -1.0516
 2965SOL     OW 9578   4.312   5.450   1.557 -0.1254  0.0572  0.1476
 2965SOL    HW1 9579   4.393   5.493   1.530  0.3477 -0.7860  0.1591
 2965SOL    HW2 9580   4.290   5.490   1.641 -0.2870  1.0006 -0.3274
 2966SOL     OW 9581   4.739   1.320   2.296 -0.2106 -0.2664  0.2313
 2966SOL    HW1 9582   4.748   1.387   2.228  0.2566  0.6762  1.1989
 2966SOL    HW2 9583   4.718   1.240   2.248  2.0755 -0.0724 -1.2129
 2967SOL     OW 9584   1.498   5.820   2.298  0.6967 -0.0431  0.5683
 2967SOL    HW1 9585   1.449   5.765   2.238 -1.3601  2.2030  0.0059
 2967SOL    HW2 9586   1.588   5.819   2.265 -0.2583  0.7646 -2.3704
 2968SOL     OW 9587   3.909   2.890   0.854  0.7309  0.1033 -0.2862
 2968SOL    HW1 9588   3.950   2.952   0.914 -0.3379 -1.8382  2.6504
 2968SOL    HW2 9589   3.842   2.942   0.808  2.3418  1.8955 -0.7399
 2969SOL     OW 9590   5.192   4.966   3.469  0.1727 -0.1310 -0.4239
 2969SOL    HW1 9591   5.110   5.000   3.432  0.1195 -0.8387 -0.9857
 2969SOL    HW2 9592   5.186   4.872   3.456  0.1707 -0.4196  1.4049
 2970SOL     OW 9593   2.197   1.677   5.504  0.0769 -0.4392  0.0297
 2970SOL    HW1 9594   2.197   1.644   5.414  0.6416 -0.1956 -0.0645
 2970SOL    HW2 9595   2.287   1.667   5.533 -0.0318 -0.2038  0.4568
 2971SOL     OW 9596   5.366   1.616   3.740 -0.3650  0.8497 -0.1209
 2971SOL    HW1 9597   5.373   1.687   3.803  2.1057 -0.3812  1.1194
 2971SOL    HW2 9598   5.324   1.544   3.788  1.3829 -0.0397  0.1506
 2972SOL     OW 9599   6.315   3.824   1.621 -0.2116 -0.2608 -0.1895
 2972SOL    HW1 9600   6.315   3.885   1.548  0.0696 -0.0428 -0.0073
 2972SOL    HW2 9601   6.262   3.866   1.688  1.0178  0.3663  0.4161
 2973SOL     OW 9602   1.190   2.376   5.997 -0.4059 -0.3030  0.4163
 2973SOL    HW1 9603   1.187   2.410   6.087 -0.0374  0.3817  0.1744
 2973SOL    HW2 9604   1.276   2.401   5.964  0.5351 -2.7985  0.7189
 2974SOL     OW 9605   3.854   3.588   4.656 -0.2859  0.8410 -0.0564
 2974SOL    HW1 9606   3.947   3.612   4.659  0.5026 -1.8143 -0.4995
 2974SOL    HW2 9607   3.836   3.553   4.743 -0.2083 -0.7084 -0.6369
 2975SOL     OW 9608   5.414   3.134   2.476  0.3642  0.1150  0.3524
 2975SOL    HW1 9609   5.478   3.105   2.541  2.0499 -1.3683 -1.8467
 2975SOL    HW2 9610   5.367   3.054   2.453 -1.8705  1.0435  1.3611
 2976SOL     OW 9611   3.676   1.341   1.792 -0.9931 -0.0846  0.3211
 2976SOL    HW1 9612   3.668   1.413   1.854 -0.2479 -0.6636  1.1268
 2976SOL    HW2 9613   3.670   1.382   1.705 -0.3426  0.9724  0.7611
 2977SOL     OW 9614   5.704   3.213   4.590 -0.2632  0.3607 -0.0196
 2977SOL    HW1 9615   5.788   3.222   4.546  0.2443  1.9784  1.1709
 2977SOL    HW2 9616   5.691   3.297   4.635 -1.2171 -0.7895  2.0189
 2978SOL     OW 9617   0.997   2.167   4.154  0.0441 -0.8078  0.1700
 2978SOL    HW1 9618   0.908   2.194   4.133  0.7078  1.1035 -0.3664
 2978SOL    HW2 9619   1.025   2.114   4.079  0.0745  0.3717 -0.6742
 2979SOL     OW 9620   3.994   0.517   1.162  0.3003  0.4018 -0.1442
 2979SOL    HW1 9621   3.949   0.445   1.119  0.1301  0.5780 -0.2604
 2979SOL    HW2 9622   3.925   0.578   1.186  0.3407  0.0666  0.8460
 2980SOL     OW 9623   2.164   1.843   1.362 -0.0284  0.4800  0.3580
 2980SOL    HW1 9624   2.083   1.888   1.384  0.1718  0.7285  0.5854
 2980SOL    HW2 9625   2.232   1.908   1.374  0.2079  0.2660  0.1851
 2981SOL     OW 9626   3.256   4.188   1.044  0.1650 -0.2482  0.4910
 2981SOL    HW1 9627   3.237   4.139   0.964 -0.5326  2.1112 -0.8694
 2981SOL    HW2 9628   3.345   4.219   1.034  0.1211 -0.0494  0.6932
 2982SOL     OW 9629   1.463   2.418   4.056  0.3648 -0.5611  0.1043
 2982SOL    HW1 9630   1.456   2.370   3.973 -2.0355 -0.4728  0.1840
 2982SOL    HW2 9631   1.378   2.407   4.098  0.0661  2.7414  0.6756
 2983SOL     OW 9632   3.791   2.248   1.332 -0.2480  0.4466  0.2561
 2983SOL    HW1 9633   3.740   2.191   1.275 -0.9011 -0.2833  1.5258
 2983SOL    HW2 9634   3.857   2.190   1.371  0.9925  1.1896 -0.6490
 2984SOL     OW 9635   0.520   0.541   0.347  0.1016  0.3638  0.4219
 2984SOL    HW1 9636   0.565   0.456   0.342 -1.3552 -0.4570  0.8287
 2984SOL    HW2 9637   0.512   0.569   0.256  1.3495  0.4951  0.3361
 2985SOL     OW 9638   2.568   1.680   4.702 -0.5557 -0.2027  0.5101
 2985SOL    HW1 9639   2.620   1.758   4.686 -0.2001 -0.4975  0.2005
 2985SOL    HW2 9640   2.628   1.619   4.744 -0.6687 -0.5196  0.2157
 2986SOL     OW 9641   3.629   0.985   4.817 -0.1895  0.3211  0.3613
 2986SOL    HW1 9642   3.722   0.964   4.819 -0.4265 -0.8697  2.7429
 2986SOL    HW2 9643   3.593   0.928   4.749  0.3391 -1.9814  1.8740
 2987SOL     OW 9644   3.575   5.841   4.045 -0.2482 -0.2863 -0.0633
 2987SOL    HW1 9645   3.670   5.831   4.050 -0.2194  0.3947  1.0154
 2987SOL    HW2 9646   3.543   5.758   4.009  0.7990 -0.2659 -1.0884
 2988SOL     OW 9647   0.966   1.356   1.480  0.3412  0.0112 -0.4716
 2988SOL    HW1 9648   1.011   1.424   1.431 -0.2699  1.1838  0.5397
 2988SOL    HW2 9649   0.968   1.386   1.571  0.0734 -1.3391  0.0113
 2989SOL     OW 9650   1.965   1.273   1.186  0.0225  0.6518  0.4790
 2989SOL    HW1 9651   1.957   1.368   1.195 -1.6737  0.6451 -0.4726
 2989SOL    HW2 9652   1.943   1.239   1.273 -0.9690  1.0963  0.4156
 2990SOL     OW 9653   6.169   5.604   0.497 -0.2833 -0.2190  0.1033
 2990SOL    HW1 9654   6.148   5.673   0.560 -0.5919  1.0227 -1.2954
 2990SOL    HW2 9655   6.258   5.624   0.469 -0.0559 -0.9108  0.3081
 2991SOL     OW 9656   4.434   1.524   0.797 -0.3898  0.3065  0.3629
 2991SOL    HW1 9657   4.400   1.609   0.770  2.6868  2.0186  1.4113
 2991SOL    HW2 9658   4.435   1.527   0.893  0.8116 -0.4158  0.4014
 2992SOL     OW 9659   5.481   3.351   2.327  0.3222 -0.7720  0.0828
 2992SOL    HW1 9660   5.459   3.371   2.236 -1.4340  0.4987  0.7354
 2992SOL    HW2 9661   5.449   3.261   2.340 -0.3181 -0.6055 -0.2954
 2993SOL     OW 9662   2.153   4.607   2.350 -0.5572 -0.2386 -0.5169
 2993SOL    HW1 9663   2.230   4.664   2.343  1.1178 -1.8938  2.0905
 2993SOL    HW2 9664   2.082   4.656   2.310  1.2097  2.7533 -0.2893
 2994SOL     OW 9665   2.724   5.835   1.926 -0.3120  0.3131  0.4620
 2994SOL    HW1 9666   2.647   5.881   1.959  0.6354  1.0137  1.7891
 2994SOL    HW2 9667   2.726   5.753   1.975  0.3772  0.7799  1.2339
 2995SOL     OW 9668   2.011   6.446   0.188 -0.4015 -0.4151  0.5489
 2995SOL    HW1 9669   2.084   6.482   0.239 -0.0876  0.3235 -0.3791
 2995SOL    HW2 9670   2.054   6.398   0.117 -0.7870  0.4742 -0.3135
 2996SOL     OW 9671   4.193   2.526   5.566  0.0500 -0.0792 -0.0832
 2996SOL    HW1 9672   4.113   2.574   5.548 -0.1820  0.3731  1.9374
 2996SOL    HW2 9673   4.263   2.587   5.541 -0.2091 -0.1204 -0.9595
 2997SOL     OW 9674   4.182   5.008   4.337 -0.2231  0.1792  0.2794
 2997SOL    HW1 9675   4.134   4.933   4.371 -1.7011  0.4852 -1.0000
 2997SOL    HW2 9676   4.160   5.080   4.396 -1.4115  0.3200 -0.3057
 2998SOL     OW 9677   0.366   4.187   0.425  0.2685 -0.0685 -0.0445
 2998SOL    HW1 9678   0.293   4.142   0.466 -1.3477  1.6020 -0.9516
 2998SOL    HW2 9679   0.373   4.147   0.338 -1.4172  1.5279 -0.9980
 2999SOL     OW 9680   1.289   3.556   1.056 -1.1929  0.0986  0.6898
 2999SOL    HW1 9681   1.214   3.541   0.997 -1.5414 -0.7763  1.3342
 2999SOL    HW2 9682   1.279   3.489   1.124 -0.3354  0.5753  1.2915
 3000SOL     OW 9683   3.776   0.004   6.129 -0.2962  0.4153 -0.3898
 3000SOL    HW1 9684   3.706   0.069   6.126 -1.1215 -0.5138 -2.4770
 3000SOL    HW2 9685   3.788  -0.013   6.222 -2.6978  0.7491  0.0496
 3001SOL     OW 9686   4.593   3.384   6.268 -0.1471 -0.2540 -0.4247
 3001SOL    HW1 9687   4.533   3.417   6.335 -0.1954 -2.2763  0.6029
 3001SOL    HW2 9688   4.672   3.437   6.279  0.1722 -1.0848  1.8841
 3002SOL     OW 9689   5.999   2.785   1.998  0.2576 -0.5207 -0.4468
 3002SOL    HW1 9690   5.932   2.853   1.990  0.2501 -0.4082  0.4720
 3002SOL    HW2 9691   5.961   2.721   2.059  0.1949 -1.4430 -1.4280
 3003SOL     OW 9692   2.455   3.907   4.279 -0.1721 -0.2472  0.6083
 3003SOL    HW1 9693   2.520   3.913   4.349 -2.9587 -0.4840  3.4380
 3003SOL    HW2 9694   2.381   3.957   4.311 -2.4449 -2.2386 -1.1775
 3004SOL     OW 9695   0.396   6.125   4.599  0.5281 -0.3420 -0.3321
 3004SOL    HW1 9696   0.375   6.196   4.660  0.1546  0.1204 -0.9848
 3004SOL    HW2 9697   0.460   6.072   4.646 -1.4137 -1.3195  1.3945
 3005SOL     OW 9698   1.266   4.814   4.718  0.6067 -0.0041  0.0037
 3005SOL    HW1 9699   1.337   4.751   4.705  2.2605  1.5725  0.9947
 3005SOL    HW2 9700   1.212   4.776   4.787 -0.4423 -1.9105 -1.7394
 3006SOL     OW 9701   4.363   1.091   5.034 -0.4026  0.1061  0.7189
 3006SOL    HW1 9702   4.325   1.113   4.948  0.2300  0.9375  0.6320
 3006SOL    HW2 9703   4.434   1.154   5.045 -1.0968  0.6732  2.2984
 3007SOL     OW 9704   0.863   4.860   4.433 -0.3485 -0.0888  0.5923
 3007SOL    HW1 9705   0.936   4.805   4.462  0.1403  0.6207  0.7297
 3007SOL    HW2 9706   0.857   4.928   4.500 -0.5659  0.3562  0.1210
 3008SOL     OW 9707   5.348   2.873   0.957 -0.1579 -0.2540 -0.2771
 3008SOL    HW1 9708   5.336   2.945   0.895  0.1544 -0.1416 -0.2079
 3008SOL    HW2 9709   5.269   2.876   1.012  0.2461  0.5872  0.2854
 3009SOL     OW 9710   3.130   3.843   0.476  0.2694  0.3071 -0.8533
 3009SOL    HW1 9711   3.195   3.844   0.406 -0.0527  1.1057 -1.1564
 3009SOL    HW2 9712   3.047   3.861   0.432  0.0215  0.4979 -0.3159
 3010SOL     OW 9713   0.506   6.191   5.054  0.2882 -0.2863  0.0086
 3010SOL    HW1 9714   0.437   6.192   4.987  1.3458  2.2071 -1.1647
 3010SOL    HW2 9715   0.465   6.233   5.130 -1.2787 -4.0956  1.5300
 3011SOL     OW 9716   2.220   0.328   2.518  0.4337 -0.0314 -0.4389
 3011SOL    HW1 9717   2.153   0.262   2.536  2.2099 -2.2132 -1.4070
 3011SOL    HW2 9718   2.257   0.302   2.433  2.2401  1.3212 -0.1117
 3012SOL     OW 9719   0.312   6.109   1.517 -0.3792 -0.2625 -0.5997
 3012SOL    HW1 9720   0.273   6.147   1.596 -0.1957  0.3787 -0.8144
 3012SOL    HW2 9721   0.360   6.032   1.549 -0.8363 -0.3806 -0.1765
 3013SOL     OW 9722   0.844   5.687   2.300 -0.3353  0.5589  0.2697
 3013SOL    HW1 9723   0.800   5.618   2.251  0.8751 -0.4034  0.4772
 3013SOL    HW2 9724   0.861   5.756   2.236  1.3830 -0.7483 -0.7780
 3014SOL     OW 9725   2.994   1.645   3.956 -0.2730  0.1069 -0.3021
 3014SOL    HW1 9726   2.909   1.605   3.939 -0.1203  0.2532 -1.4999
 3014SOL    HW2 9727   3.010   1.628   4.049 -1.3162 -0.4667 -0.2066
 3015SOL     OW 9728   5.675   4.206   1.037 -0.3168 -0.6228 -0.6088
 3015SOL    HW1 9729   5.723   4.189   1.118  0.2373 -2.6976 -1.3174
 3015SOL    HW2 9730   5.715   4.286   1.002  0.9955 -0.9721  0.0224
 3016SOL     OW 9731   0.702   0.637   3.781 -0.5506  0.3562  0.2248
 3016SOL    HW1 9732   0.618   0.651   3.737  0.7335  0.7646 -2.2894
 3016SOL    HW2 9733   0.760   0.704   3.744  1.6987 -1.8743 -0.6018
 3017SOL     OW 9734   2.564   2.312   2.302 -0.3885  0.4882 -0.0294
 3017SOL    HW1 9735   2.523   2.229   2.325  0.8710  0.4454  2.3311
 3017SOL    HW2 9736   2.491   2.367   2.272 -1.7043 -0.5418  1.1391
 3018SOL     OW 9737   4.139   0.091   4.745 -1.4605  0.2234 -0.2564
 3018SOL    HW1 9738   4.071   0.025   4.746 -0.0481 -1.2891  0.8223
 3018SOL    HW2 9739   4.124   0.140   4.664 -2.1324 -1.8670 -1.4546
 3019SOL     OW 9740   3.832   2.859   0.316  0.8791 -0.7327  0.2201
 3019SOL    HW1 9741   3.805   2.797   0.383 -0.2665 -0.4206  0.0636
 3019SOL    HW2 9742   3.772   2.844   0.243 -0.5979  1.7149  0.8199
 3020SOL     OW 9743   3.481   4.228   1.917  0.3867  0.2160  0.0814
 3020SOL    HW1 9744   3.405   4.249   1.972 -0.1241 -0.0227 -0.5302
 3020SOL    HW2 9745   3.468   4.278   1.837  0.0881 -0.9785 -0.6443
 3021SOL     OW 9746   4.052   4.963   1.396  0.4613  0.2603  0.5924
 3021SOL    HW1 9747   3.961   4.970   1.367  0.4885 -1.5772 -0.1309
 3021SOL    HW2 9748   4.072   5.048   1.435 -0.9132  1.4198 -1.0727
 3022SOL     OW 9749   2.736   0.316   4.202 -0.3969  0.3947  0.3479
 3022SOL    HW1 9750   2.820   0.282   4.232 -0.4293  0.5737  0.6532
 3022SOL    HW2 9751   2.756   0.401   4.164 -0.2597 -0.1307 -0.7831
 3023SOL     OW 9752   0.570   5.601   4.630 -0.0353 -0.5725  0.0399
 3023SOL    HW1 9753   0.620   5.680   4.612  0.7297 -1.1662 -0.4677
 3023SOL    HW2 9754   0.550   5.607   4.724  1.6638 -0.7048  0.4382
 3024SOL     OW 9755   4.149   0.332   5.302 -0.6327  0.7839  0.2130
 3024SOL    HW1 9756   4.172   0.273   5.373  1.1966  1.5542  0.2976
 3024SOL    HW2 9757   4.214   0.315   5.234 -0.8013  1.8452 -0.2382
 3025SOL     OW 9758   2.833   1.615   6.137  0.3648 -0.0803  0.0328
 3025SOL    HW1 9759   2.741   1.637   6.156  0.0296 -0.8561 -0.6212
 3025SOL    HW2 9760   2.882   1.655   6.208 -0.4970  0.2291  0.4744
 3026SOL     OW 9761   3.153   4.574   6.426 -0.3447 -0.6122  0.1654
 3026SOL    HW1 9762   3.108   4.658   6.434 -0.1692 -0.5780  0.8687
 3026SOL    HW2 9763   3.209   4.583   6.349 -0.8166 -0.3197 -0.1481
 3027SOL     OW 9764   3.261   3.005   0.625  0.1982 -0.3190 -0.8248
 3027SOL    HW1 9765   3.171   2.973   0.631  0.4735 -0.8687  1.3236
 3027SOL    HW2 9766   3.256   3.095   0.658  0.4411 -0.3840 -0.6079
 3028SOL     OW 9767   6.219   0.809   6.019  0.0795 -0.4523 -0.3374
 3028SOL    HW1 9768   6.191   0.884   5.966  0.4234  0.5884  0.9279
 3028SOL    HW2 9769   6.296   0.840   6.066  1.2619 -2.1436 -1.0364
 3029SOL     OW 9770   1.311   1.887   4.386  0.1075  0.0400 -0.1945
 3029SOL    HW1 9771   1.223   1.850   4.382  0.1697 -0.5775  2.5291
 3029SOL    HW2 9772   1.297   1.981   4.398 -0.2326 -0.1624  1.1279
 3030SOL     OW 9773   0.318   6.349   3.728  0.0428  0.1620  0.4406
 3030SOL    HW1 9774   0.363   6.308   3.803  1.2618  1.0869  0.2403
 3030SOL    HW2 9775   0.324   6.443   3.745  0.8037  0.4121 -1.0561
 3031SOL     OW 9776   6.250   2.952   5.222 -0.1701 -0.2475 -0.4617
 3031SOL    HW1 9777   6.211   2.966   5.136 -0.1310 -0.3800 -0.5008
 3031SOL    HW2 9778   6.237   3.035   5.268  1.2560  0.3904 -1.1606
 3032SOL     OW 9779   5.203   4.987   1.274 -0.4875  0.0564  0.0087
 3032SOL    HW1 9780   5.206   5.049   1.201 -1.6042 -0.6365 -0.6566
 3032SOL    HW2 9781   5.127   5.014   1.325  0.4097  0.6725  1.0808
 3033SOL     OW 9782   2.896   2.372   0.796 -0.2130 -0.3230 -0.3851
 3033SOL    HW1 9783   2.852   2.397   0.877 -0.9542 -1.9963 -0.2195
 3033SOL    HW2 9784   2.952   2.446   0.774 -0.3368  0.3344  1.4183
 3034SOL     OW 9785   4.931   5.146   0.136  0.3746 -0.0488 -0.0018
 3034SOL    HW1 9786   4.935   5.215   0.071 -1.1948 -0.4476 -0.5811
 3034SOL    HW2 9787   4.928   5.191   0.220  2.1415  0.4781 -0.1894
 3035SOL     OW 9788   5.408   2.250   2.385  0.1120 -0.1166 -0.0946
 3035SOL    HW1 9789   5.433   2.159   2.399  1.6423 -0.1115 -2.2501
 3035SOL    HW2 9790   5.491   2.298   2.387 -0.4742  0.9596 -0.7253
 3036SOL     OW 9791   5.134   3.919   6.508  0.2499 -0.0256  0.5121
 3036SOL    HW1 9792   5.139   3.860   6.433  0.0464  0.7509 -0.1154
 3036SOL    HW2 9793   5.202   3.984   6.493  1.0179 -0.5357  1.6057
 3037SOL     OW 9794   5.812   0.314   3.868 -0.1006  1.1475  0.6070
 3037SOL    HW1 9795   5.790   0.401   3.835 -0.2418  0.5526 -0.9247
 3037SOL    HW2 9796   5.773   0.253   3.806  1.7522  0.0003  0.4776
 3038SOL     OW 9797   3.195   2.038   3.478 -0.1268  0.3007  0.1045
 3038SOL    HW1 9798   3.108   1.999   3.475  0.6238 -1.8814  2.7855
 3038SOL    HW2 9799   3.252   1.967   3.506  2.5981  1.6374 -1.5966
 3039SOL     OW 9800   6.234   5.583   5.151 -0.1565 -0.3131  0.0187
 3039SOL    HW1 9801   6.258   5.666   5.192 -0.3057 -0.3470  0.1792
 3039SOL    HW2 9802   6.301   5.521   5.180 -0.2707 -0.3408  0.2284
 3040SOL     OW 9803   2.531   4.892   0.171  0.2169 -0.2860 -0.0283
 3040SOL    HW1 9804   2.525   4.984   0.146  0.7831 -0.1021  0.4639
 3040SOL    HW2 9805   2.624   4.878   0.187 -0.1741  0.0285  3.3388
 3041SOL     OW 9806   3.161   2.722   5.936  0.3189  0.0670  0.3374
 3041SOL    HW1 9807   3.114   2.640   5.951  0.9541 -0.9619 -2.7427
 3041SOL    HW2 9808   3.245   2.711   5.982  0.3331 -0.9607  0.0750
 3042SOL     OW 9809   6.109   0.440   6.232 -0.3055  0.4168 -0.4862
 3042SOL    HW1 9810   6.179   0.418   6.293 -0.9446 -0.3844 -0.0227
 3042SOL    HW2 9811   6.029   0.439   6.285 -0.5478  2.5569 -0.7256
 3043SOL     OW 9812   3.573   1.955   6.038 -0.5326 -0.2271 -0.1679
 3043SOL    HW1 9813   3.510   1.986   5.973 -0.2904 -0.8641 -0.7269
 3043SOL    HW2 9814   3.629   1.895   5.989  0.6791  0.5293  0.2608
 3044SOL     OW 9815   6.072   2.657   1.695  0.4141  0.3640 -0.1829
 3044SOL    HW1 9816   6.015   2.675   1.621  0.4074  0.5365 -0.1353
 3044SOL    HW2 9817   6.012   2.633   1.766  0.3714  1.0769  0.0210
 3045SOL     OW 9818   6.245   5.773   3.477 -0.1416  0.2601 -0.6903
 3045SOL    HW1 9819   6.213   5.790   3.565 -0.3199 -1.5594 -0.3689
 3045SOL    HW2 9820   6.316   5.709   3.488 -1.3864 -1.4433 -1.9416
 3046SOL     OW 9821   6.437   1.245   0.485 -0.2994  0.1275 -0.3456
 3046SOL    HW1 9822   6.355   1.227   0.530 -0.9677 -0.4126 -1.7086
 3046SOL    HW2 9823   6.442   1.340   0.480 -1.0070  0.1604 -0.5271
 3047SOL     OW 9824   0.395   6.445   5.112 -0.7048 -0.0959 -0.5120
 3047SOL    HW1 9825   0.411   6.534   5.142  1.5623 -0.0327 -1.7281
 3047SOL    HW2 9826   0.392   6.451   5.017  0.7895 -1.4448 -0.6961
 3048SOL     OW 9827   2.729   2.812   0.670  0.6289 -0.0900 -0.2940
 3048SOL    HW1 9828   2.674   2.889   0.679 -0.6226 -0.8158 -1.2772
 3048SOL    HW2 9829   2.693   2.749   0.732  0.5267 -0.4732 -0.7342
 3049SOL     OW 9830   6.280   5.125   0.452 -0.0484 -0.3142  0.4147
 3049SOL    HW1 9831   6.216   5.155   0.517  0.5493 -0.0302  0.8808
 3049SOL    HW2 9832   6.347   5.193   0.452 -0.4838  0.1529 -1.1602
 3050SOL     OW 9833   5.013   3.645   0.698 -0.4491 -0.1407  0.3910
 3050SOL    HW1 9834   4.940   3.584   0.713 -0.9812 -0.3733 -2.5105
 3050SOL    HW2 9835   5.004   3.670   0.606  1.8042  1.6624  0.5827
 3051SOL     OW 9836   3.053   2.218   2.777 -0.2824  0.0918 -0.3910
 3051SOL    HW1 9837   3.022   2.266   2.854 -2.1944  0.2219 -1.1864
 3051SOL    HW2 9838   3.065   2.128   2.808 -0.6953  0.2166  0.1414
 3052SOL     OW 9839   2.651   6.251   3.486  0.7654 -0.2304  0.1181
 3052SOL    HW1 9840   2.634   6.230   3.394  2.4631  2.0752 -0.8186
 3052SOL    HW2 9841   2.570   6.227   3.531 -0.3133 -0.9429 -2.0599
 3053SOL     OW 9842   6.062   1.074   3.614  0.3959  0.0458  0.2894
 3053SOL    HW1 9843   6.093   0.997   3.662  0.4226 -0.0648  0.0948
 3053SOL    HW2 9844   5.983   1.101   3.661  0.8155  0.3680  0.8280
 3054SOL     OW 9845   3.566   5.203   0.839  0.4330  0.0014 -0.6185
 3054SOL    HW1 9846   3.599   5.115   0.855 -0.6719 -0.3699 -0.3217
 3054SOL    HW2 9847   3.533   5.233   0.923  0.4245  0.5427 -0.8079
 3055SOL     OW 9848   3.794   6.264   1.619 -0.1310  0.1519 -0.3010
 3055SOL    HW1 9849   3.820   6.173   1.635  2.0400  0.8139  0.1726
 3055SOL    HW2 9850   3.832   6.286   1.534 -1.2093  0.4547 -0.7295
 3056SOL     OW 9851   3.615   3.713   1.278  0.0077 -0.4133 -0.0179
 3056SOL    HW1 9852   3.687   3.775   1.293  0.5410 -1.1294  0.4720
 3056SOL    HW2 9853   3.578   3.699   1.365 -0.0642 -0.8318 -0.1169
 3057SOL     OW 9854   4.480   3.341   3.522  0.0970  0.4006  0.0531
 3057SOL    HW1 9855   4.426   3.359   3.599 -0.3076 -1.2515  0.1933
 3057SOL    HW2 9856   4.556   3.398   3.532 -0.1433  0.5014  1.4790
 3058SOL     OW 9857   6.012   3.129   1.334 -0.0229  0.2885  0.3063
 3058SOL    HW1 9858   5.934   3.156   1.285  0.2205  0.1825 -0.1483
 3058SOL    HW2 9859   5.986   3.048   1.377 -0.5977  0.9638  1.2672
 3059SOL     OW 9860   4.966   0.512   5.636 -0.2118  0.4445 -0.0327
 3059SOL    HW1 9861   4.879   0.509   5.595  0.0719 -1.5081 -0.6356
 3059SOL    HW2 9862   4.985   0.605   5.646 -3.6851  1.0786  3.0767
 3060SOL     OW 9863   0.112   6.275   6.172 -0.4053 -0.4805 -0.2528
 3060SOL    HW1 9864   0.091   6.211   6.240 -1.2422 -0.5093 -0.5267
 3060SOL    HW2 9865   0.187   6.238   6.126  0.4054 -0.2872  0.8775
 3061SOL     OW 9866   1.418   2.258   5.649  0.2892  0.1047 -0.2185
 3061SOL    HW1 9867   1.405   2.309   5.569 -0.0544  0.7561  0.2388
 3061SOL    HW2 9868   1.369   2.177   5.635  0.6926 -0.0276 -0.8832
 3062SOL     OW 9869   5.134   5.942   5.066  0.0825  0.9193 -0.6990
 3062SOL    HW1 9870   5.140   6.037   5.065  1.6036  0.8922  0.9302
 3062SOL    HW2 9871   5.193   5.914   5.136 -2.2416 -1.0761  0.6529
 3063SOL     OW 9872   0.258   2.543   1.175  0.2520 -0.2132  0.3670
 3063SOL    HW1 9873   0.271   2.504   1.089  1.0980 -0.7514  0.7210
 3063SOL    HW2 9874   0.171   2.582   1.172  1.2489  2.1350 -1.6333
 3064SOL     OW 9875   0.166   1.579   5.597  0.0240 -0.3362  0.5106
 3064SOL    HW1 9876   0.117   1.499   5.579 -0.3126 -0.1724  0.7028
 3064SOL    HW2 9877   0.217   1.559   5.676 -0.2226 -0.2909  0.6833
 3065SOL     OW 9878   4.460   5.755   3.711 -0.5133 -0.5308  0.5683
 3065SOL    HW1 9879   4.519   5.687   3.743  0.3540  0.7307  1.7394
 3065SOL    HW2 9880   4.456   5.741   3.617  1.0182 -1.1260  0.5718
 3066SOL     OW 9881   5.225   4.640   1.563  0.5062  0.2443 -0.5473
 3066SOL    HW1 9882   5.291   4.668   1.498 -0.5648  1.6955 -1.0564
 3066SOL    HW2 9883   5.219   4.713   1.624  0.6426 -0.6321  0.5409
 3067SOL     OW 9884   2.413   3.251   4.386  0.4838 -0.0599  0.3548
 3067SOL    HW1 9885   2.419   3.338   4.347 -0.7059 -0.8098 -1.6944
 3067SOL    HW2 9886   2.321   3.241   4.408  0.0314 -1.6846 -1.8820
 3068SOL     OW 9887   4.155   0.582   5.929  1.0192  0.0070  0.3002
 3068SOL    HW1 9888   4.090   0.652   5.937  1.3708  0.3548  0.1718
 3068SOL    HW2 9889   4.155   0.540   6.015  0.1352 -0.4415  0.0905
 3069SOL     OW 9890   4.883   5.558   0.869 -0.2514 -0.3310 -0.3801
 3069SOL    HW1 9891   4.830   5.590   0.943 -0.1652 -0.5073 -0.2433
 3069SOL    HW2 9892   4.842   5.598   0.792  0.4374  0.8992 -0.1308
 3070SOL     OW 9893   0.505   2.933   2.815  0.3415 -1.0339 -0.3397
 3070SOL    HW1 9894   0.500   2.999   2.746 -0.7087 -1.2846 -0.5213
 3070SOL    HW2 9895   0.569   2.967   2.876  0.1834 -0.0825 -0.6886
 3071SOL     OW 9896   0.343   2.735   1.374 -0.6430  0.1282  0.3150
 3071SOL    HW1 9897   0.306   2.709   1.290 -1.3457  1.6718  0.1119
 3071SOL    HW2 9898   0.280   2.702   1.439 -1.2728  0.8557  0.0919
 3072SOL     OW 9899   6.438   4.499   4.390 -0.1117  0.4231  0.0220
 3072SOL    HW1 9900   6.476   4.470   4.307  0.8568  0.5836  0.4034
 3072SOL    HW2 9901   6.350   4.530   4.366  0.1304  0.4072 -0.9341
 3073SOL     OW 9902   4.298   2.328   4.888  0.4118 -0.5578  0.4278
 3073SOL    HW1 9903   4.327   2.240   4.863  1.1100 -0.1929 -0.0460
 3073SOL    HW2 9904   4.378   2.375   4.908  0.1396  0.3660 -0.5888
 3074SOL     OW 9905   1.719   3.334   1.816 -0.0699 -0.3722 -0.3567
 3074SOL    HW1 9906   1.727   3.252   1.865  0.6368  0.2465  0.6079
 3074SOL    HW2 9907   1.651   3.383   1.863  0.9894  0.4492  0.3716
 3075SOL     OW 9908   2.441   4.723   6.505  0.0409 -0.5184  0.4516
 3075SOL    HW1 9909   2.463   4.634   6.535 -0.8908 -0.9094  0.0018
 3075SOL    HW2 9910   2.479   4.780   6.571  0.3524 -1.2634  0.9345
 3076SOL     OW 9911   4.393   1.128   3.820 -0.6136  0.4896 -0.3024
 3076SOL    HW1 9912   4.340   1.094   3.748 -0.8947 -1.1888  0.6568
 3076SOL    HW2 9913   4.333   1.181   3.871 -0.3267  1.9958 -1.4520
 3077SOL     OW 9914   5.825   2.244   2.156  0.7016 -0.3044 -0.0398
 3077SOL    HW1 9915   5.878   2.310   2.111  3.3128 -1.5175  1.0568
 3077SOL    HW2 9916   5.813   2.175   2.091  1.2160 -0.4020 -0.0345
 3078SOL     OW 9917   3.200   6.021   5.117 -0.0264  0.3339  0.4154
 3078SOL    HW1 9918   3.265   5.950   5.120 -1.1467 -0.7140  0.9307
 3078SOL    HW2 9919   3.252   6.101   5.116  1.3566 -0.4737 -1.9255
 3079SOL     OW 9920   5.190   5.998   1.721  0.5281  0.0220 -0.0373
 3079SOL    HW1 9921   5.283   5.989   1.742  0.3714 -1.8877  0.0801
 3079SOL    HW2 9922   5.153   5.912   1.741 -1.1608  0.5597 -0.6465
 3080SOL     OW 9923   0.493   1.556   2.035  0.0577  0.3642 -0.1682
 3080SOL    HW1 9924   0.413   1.558   2.087 -0.7546  1.5063 -1.3774
 3080SOL    HW2 9925   0.488   1.635   1.981  0.7108 -0.8719 -2.1383
 3081SOL     OW 9926   3.783   3.278   0.741  0.1482  0.0955  1.1131
 3081SOL    HW1 9927   3.821   3.282   0.653 -0.4967 -0.8220  0.7745
 3081SOL    HW2 9928   3.712   3.342   0.739  1.3957  1.5636  1.6401
 3082SOL     OW 9929   4.486   3.901   6.342 -0.2140 -0.7210  0.0870
 3082SOL    HW1 9930   4.525   3.872   6.424 -0.2369 -1.0049  0.0006
 3082SOL    HW2 9931   4.479   3.996   6.350  0.7027 -0.6371  0.0158
 3083SOL     OW 9932   2.864   2.745   1.008  0.7017  0.5326  0.6025
 3083SOL    HW1 9933   2.943   2.691   1.007  0.1231 -0.3596  1.1201
 3083SOL    HW2 9934   2.818   2.717   1.087 -0.7876  0.0333 -0.3945
 3084SOL     OW 9935   4.363   5.754   6.136  0.8558 -0.3240  0.3678
 3084SOL    HW1 9936   4.360   5.687   6.068 -0.4316 -0.0109  0.0888
 3084SOL    HW2 9937   4.422   5.821   6.101 -0.8849  0.5102 -1.1238
 3085SOL     OW 9938   1.437   2.516   2.427 -0.2112 -0.3187  0.7311
 3085SOL    HW1 9939   1.344   2.529   2.409 -0.3026 -2.0588 -0.3076
 3085SOL    HW2 9940   1.481   2.575   2.366 -0.6463 -0.4327  0.2922
 3086SOL     OW 9941   0.875   3.430   1.875 -0.1117 -0.5081  0.0085
 3086SOL    HW1 9942   0.797   3.380   1.850  1.5300 -3.0435 -0.3716
 3086SOL    HW2 9943   0.850   3.476   1.955 -1.8507 -1.6176  0.1507
 3087SOL     OW 9944   3.619   3.597   3.057 -0.3716  0.3910  0.2369
 3087SOL    HW1 9945   3.615   3.675   3.112 -0.4115  0.6936 -0.1910
 3087SOL    HW2 9946   3.590   3.526   3.115  1.4124  0.3776  1.1829
 3088SOL     OW 9947   4.609   3.016   3.691  0.5664 -0.3660  0.3879
 3088SOL    HW1 9948   4.544   2.952   3.717  1.4784 -0.9617  1.2665
 3088SOL    HW2 9949   4.616   3.006   3.596 -1.2900  0.3887  0.1216
 3089SOL     OW 9950   3.598   5.829   6.026  0.6249 -0.2962  0.8915
 3089SOL    HW1 9951   3.544   5.792   5.956  1.4419  0.4594 -0.1682
 3089SOL    HW2 9952   3.538   5.838   6.100 -0.5585 -0.0464 -0.0595
 3090SOL     OW 9953   1.007   1.896   0.932 -0.5811  0.2177 -0.0270
 3090SOL    HW1 9954   0.935   1.882   0.871 -0.4399 -2.8334  0.3491
 3090SOL    HW2 9955   1.071   1.829   0.909 -0.0333 -0.3318  2.7177
 3091SOL     OW 9956   5.029   5.723   1.701 -0.1796 -0.0221  0.3171
 3091SOL    HW1 9957   5.027   5.723   1.797  0.5732 -0.3284  0.3398
 3091SOL    HW2 9958   4.937   5.731   1.675 -0.5499 -1.5152  1.0694
 3092SOL     OW 9959   3.301   1.710   4.106  0.2500 -0.0380 -0.2549
 3092SOL    HW1 9960   3.270   1.760   4.182 -0.1845 -0.4012 -0.1949
 3092SOL    HW2 9961   3.291   1.770   4.033 -0.1374  0.0148 -0.1594
 3093SOL     OW 9962   2.147   0.519   4.841 -0.0320  0.1387  0.3232
 3093SOL    HW1 9963   2.138   0.519   4.746 -0.1897 -1.4178  0.3060
 3093SOL    HW2 9964   2.115   0.433   4.868 -0.4558  0.7434  1.8395
 3094SOL     OW 9965   6.097   4.439   0.652 -0.4119 -0.4323 -0.6520
 3094SOL    HW1 9966   6.020   4.384   0.658  0.0592 -1.0862 -0.4423
 3094SOL    HW2 9967   6.167   4.387   0.691 -0.3646  1.1142  1.5249
 3095SOL     OW 9968   4.540   5.273   1.286  0.1651 -0.1697 -0.2932
 3095SOL    HW1 9969   4.590   5.268   1.367  3.0785 -0.2717 -1.9709
 3095SOL    HW2 9970   4.471   5.207   1.297 -0.1703  0.5073  2.4311
 3096SOL     OW 9971   5.263   2.612   2.182  0.1768  0.0107  0.3179
 3096SOL    HW1 9972   5.185   2.619   2.126 -0.3585  1.5851  1.1932
 3096SOL    HW2 9973   5.318   2.685   2.156  0.0376  0.6164  1.6161
 3097SOL     OW 9974   0.673   6.334   3.810 -0.0124 -0.0930 -0.1054
 3097SOL    HW1 9975   0.720   6.253   3.788 -1.9437 -0.6392 -2.7244
 3097SOL    HW2 9976   0.611   6.309   3.878 -0.4973 -0.8085 -0.8008
 3098SOL     OW 9977   0.518   2.266   1.577  0.1350 -0.0160  0.0463
 3098SOL    HW1 9978   0.449   2.304   1.632 -1.9855 -2.0661 -0.9982
 3098SOL    HW2 9979   0.532   2.179   1.615  1.4907  0.0177 -0.3437
 3099SOL     OW 9980   2.919   0.697   5.885 -0.5806 -0.3418 -0.5422
 3099SOL    HW1 9981   2.942   0.741   5.803 -0.4948 -0.9009 -0.8230
 3099SOL    HW2 9982   2.993   0.639   5.902 -1.2077 -1.2375 -0.7977
 3100SOL     OW 9983   2.177   5.333   1.784  0.0105  0.4081 -0.2254
 3100SOL    HW1 9984   2.238   5.397   1.748 -0.6912  0.6094 -1.1065
 3100SOL    HW2 9985   2.233   5.262   1.816  0.7028  0.4469 -1.2921
 3101SOL     OW 9986   5.140   3.647   3.960 -0.2471  0.4107  0.5145
 3101SOL    HW1 9987   5.099   3.605   4.035  2.8041 -0.4188  1.8538
 3101SOL    HW2 9988   5.233   3.649   3.981  0.7426  0.3117 -3.1690
 3102SOL     OW 9989   4.523   4.454   0.750 -0.2890 -0.0179  0.1971
 3102SOL    HW1 9990   4.602   4.474   0.800  1.0480  0.4562 -2.0048
 3102SOL    HW2 9991   4.479   4.386   0.801  1.7545 -0.6166  1.2619
 3103SOL     OW 9992   2.601   2.399   0.030 -0.1891  0.1492  0.1283
 3103SOL    HW1 9993   2.651   2.437   0.102 -1.1252  1.3479  0.1704
 3103SOL    HW2 9994   2.599   2.469  -0.036 -0.2375 -0.5560 -0.6217
 3104SOL     OW 9995   0.975   6.372   5.852  0.3481 -0.2487  0.5353
 3104SOL    HW1 9996   0.915   6.298   5.859 -1.0694  1.0076  3.9846
 3104SOL    HW2 9997   0.922   6.448   5.875  1.7981  1.9630 -2.6266
 3105SOL     OW 9998   2.427   4.079   6.385 -0.2983  0.0131  0.6469
 3105SOL    HW1 9999   2.349   4.061   6.437 -2.1987  2.7835 -0.9359
 3105SOL    HW210000   2.496   4.093   6.449 -1.0960 -2.2976  2.1181
 3106SOL     OW10001   3.095   1.453   3.093 -0.1109  0.3692 -0.5251
 3106SOL    HW110002   3.000   1.464   3.101 -0.1069  0.2126 -0.2605
 3106SOL    HW210003   3.121   1.519   3.028 -0.3364  0.7407 -0.2430
 3107SOL     OW10004   5.325   2.974   6.016 -0.2223 -0.2945 -0.7545
 3107SOL    HW110005   5.276   3.019   5.947 -0.8940  0.5650  0.2608
 3107SOL    HW210006   5.269   2.980   6.093  0.1056 -2.0456 -0.3377
 3108SOL     OW10007   2.879   2.802   4.210  0.5243  0.5236  0.3875
 3108SOL    HW110008   2.914   2.713   4.220  0.5907  0.5839  0.7060
 3108SOL    HW210009   2.921   2.835   4.130 -1.6823 -0.7571 -1.4526
 3109SOL     OW10010   1.607   1.859   3.321 -0.0505 -0.4852 -0.3507
 3109SOL    HW110011   1.585   1.781   3.372 -1.1442 -0.4449 -0.7420
 3109SOL    HW210012   1.621   1.927   3.387 -0.7640 -0.6065 -0.0670
 3110SOL     OW10013   2.318   5.379   4.868 -0.0143 -0.7488 -0.1228
 3110SOL    HW110014   2.385   5.387   4.800  1.9265 -3.2616  1.3411
 3110SOL    HW210015   2.365   5.349   4.946 -2.2786  1.1050  2.1499
 3111SOL     OW10016   4.670   2.212   1.676  0.2955 -0.3065 -0.7988
 3111SOL    HW110017   4.745   2.271   1.687 -1.4616  1.7414  1.5162
 3111SOL    HW210018   4.665   2.164   1.759 -2.2323  1.3364  0.1169
 3112SOL     OW10019   5.038   0.869   6.057  0.5616 -0.0370  0.6925
 3112SOL    HW110020   5.073   0.785   6.027  2.3264  0.7375  0.4014
 3112SOL    HW210021   4.952   0.849   6.093  0.0363 -1.6268 -1.2889
 3113SOL     OW10022   2.029   3.667   2.794 -0.3365 -0.2211  0.4624
 3113SOL    HW110023   2.056   3.659   2.702  0.1737 -0.0302  0.5943
 3113SOL    HW210024   1.933   3.657   2.791 -0.2481 -1.1039  0.0154
 3114SOL     OW10025   3.473   2.273   1.807 -0.5294  0.0133 -0.3759
 3114SOL    HW110026   3.509   2.343   1.861  0.1041  0.8846 -1.8824
 3114SOL    HW210027   3.381   2.266   1.834 -0.1407  0.1472  1.0567
 3115SOL     OW10028   1.687   5.955   1.372  0.2035 -0.2526 -0.5960
 3115SOL    HW110029   1.729   5.885   1.321  0.7032 -0.6680  0.3499
 3115SOL    HW210030   1.626   5.909   1.431 -1.3723  0.3193 -1.7186
 3116SOL     OW10031   0.618   6.297   2.388 -0.5509  0.1527 -0.5948
 3116SOL    HW110032   0.673   6.312   2.311  0.6439  0.0519  0.2207
 3116SOL    HW210033   0.636   6.206   2.413 -2.9221 -0.7263 -1.7045
 3117SOL     OW10034   2.304   6.263   1.313 -0.1859  0.3249  0.3781
 3117SOL    HW110035   2.351   6.195   1.360 -1.7148 -1.3424 -0.3490
 3117SOL    HW210036   2.333   6.253   1.222  0.2738  1.2898  0.4110
 3118SOL     OW10037   6.188   5.369   2.204  0.5597 -0.0145 -0.2879
 3118SOL    HW110038   6.223   5.450   2.166  2.5662 -0.5306  0.3112
 3118SOL    HW210039   6.250   5.301   2.176 -0.3433 -1.1277  0.3205
 3119SOL     OW10040   0.707   2.470   1.322 -0.1741  0.3934  0.1347
 3119SOL    HW110041   0.776   2.427   1.272 -1.3080 -0.4088 -0.8040
 3119SOL    HW210042   0.666   2.530   1.259  0.1064  1.3789  0.8755
 3120SOL     OW10043   5.762   4.556   1.866 -0.4357  0.5100  0.0937
 3120SOL    HW110044   5.668   4.573   1.868 -0.8267 -1.2751 -0.9067
 3120SOL    HW210045   5.802   4.641   1.848 -1.8207  1.3557  0.8950
 3121SOL     OW10046   0.913   6.266   2.313  0.5941 -0.0688 -0.0317
 3121SOL    HW110047   0.911   6.181   2.268  0.3634  0.2463 -0.6314
 3121SOL    HW210048   0.928   6.244   2.405 -2.5831 -0.9999  0.3828
 3122SOL     OW10049   0.087   1.645   0.564  0.2952 -0.0141 -0.1110
 3122SOL    HW110050   0.140   1.570   0.589  1.1191  0.4848 -0.3453
 3122SOL    HW210051   0.132   1.683   0.489 -0.7615  0.0241 -0.7557
 3123SOL     OW10052   3.186   2.208   4.344 -0.0104  0.4064  0.5120
 3123SOL    HW110053   3.101   2.216   4.388  0.0613  0.0668  0.7218
 3123SOL    HW210054   3.167   2.224   4.252 -0.3285  0.1968  0.5390
 3124SOL     OW10055   1.094   2.678   1.180  0.1107  0.2979 -0.4764
 3124SOL    HW110056   1.154   2.751   1.163 -0.8677  1.0108 -1.0259
 3124SOL    HW210057   1.151   2.604   1.201  1.1901  0.8932 -1.1737
 3125SOL     OW10058   5.405   5.201   0.272 -0.0199 -0.9096 -0.3421
 3125SOL    HW110059   5.474   5.138   0.250 -0.2052 -1.9100  1.7114
 3125SOL    HW210060   5.326   5.148   0.284 -0.4554 -0.1542  0.2354
 3126SOL     OW10061   4.013   2.278   4.897  0.1102  0.0945 -0.1659
 3126SOL    HW110062   3.963   2.327   4.962 -0.3702  1.1607 -1.2938
 3126SOL    HW210063   4.098   2.263   4.938  0.2690  1.8938  0.2406
 3127SOL     OW10064   2.252   1.204   6.047  0.5982  0.9047  0.4506
 3127SOL    HW110065   2.209   1.246   6.121  0.2090  1.4180 -0.0576
 3127SOL    HW210066   2.278   1.277   5.990 -1.4814  0.4496 -1.2182
 3128SOL     OW10067   5.808   2.613   5.355  0.3092 -0.5404 -0.2032
 3128SOL    HW110068   5.731   2.640   5.406  1.1192 -1.1276  1.4187
 3128SOL    HW210069   5.778   2.537   5.305 -0.6474  0.3479 -1.0424
 3129SOL     OW10070   4.001   3.841   6.298 -0.2010 -0.2963 -0.2893
 3129SOL    HW110071   3.906   3.832   6.308 -0.1992 -0.3679 -0.3372
 3129SOL    HW210072   4.024   3.780   6.228 -0.0513 -0.6425  0.0584
 3130SOL     OW10073   5.194   1.495   1.219  0.5433  0.0848  0.3159
 3130SOL    HW110074   5.148   1.520   1.139  0.2482  1.0719  0.7796
 3130SOL    HW210075   5.215   1.403   1.207  0.3291  0.1732 -0.8145
 3131SOL     OW10076   3.963   6.329   1.866  0.4378  0.3314 -0.0514
 3131SOL    HW110077   3.915   6.383   1.802  0.9482 -1.1361 -1.7469
 3131SOL    HW210078   4.034   6.386   1.896  0.6575  0.8263 -1.4084
 3132SOL     OW10079   2.978   2.785   5.407  0.0874 -0.2837  0.1911
 3132SOL    HW110080   3.056   2.730   5.397 -0.4022 -0.9893  0.1795
 3132SOL    HW210081   3.011   2.868   5.438  0.8109 -0.7099  0.5787
 3133SOL     OW10082   5.933   6.309   2.708  0.3266 -0.5471  0.2799
 3133SOL    HW110083   5.971   6.281   2.625  1.9554 -1.1784  1.1950
 3133SOL    HW210084   5.991   6.378   2.740  0.0545 -0.7158  1.1716
 3134SOL     OW10085   6.104   4.252   1.985  0.2250 -0.4592  0.0244
 3134SOL    HW110086   6.157   4.173   1.997 -1.0892 -1.0796  2.5785
 3134SOL    HW210087   6.025   4.222   1.940 -0.5910 -0.8186  1.6197
 3135SOL     OW10088   1.597   6.301   0.453 -0.0591  0.1518  0.1407
 3135SOL    HW110089   1.567   6.240   0.386 -1.3027 -0.1022  0.8938
 3135SOL    HW210090   1.634   6.374   0.404 -0.0950 -0.4447 -0.8006
 3136SOL     OW10091   3.203   4.313   1.372  0.1990 -0.0258  0.2241
 3136SOL    HW110092   3.293   4.303   1.343  0.6557 -0.1494  1.6208
 3136SOL    HW210093   3.155   4.340   1.293  1.1749 -1.3651 -0.8762
 3137SOL     OW10094   3.031   0.777   5.083 -0.1069 -0.3314  0.1110
 3137SOL    HW110095   3.066   0.823   5.160 -0.0918 -0.7764  0.3759
 3137SOL    HW210096   2.997   0.695   5.118 -0.9516 -0.1312 -0.2237
 3138SOL     OW10097   2.309   5.186   1.342 -0.1201  0.3131 -0.0314
 3138SOL    HW110098   2.272   5.101   1.366 -1.1817  1.1929  1.6889
 3138SOL    HW210099   2.359   5.213   1.419 -2.4022  2.6002  0.8033
 3139SOL     OW10100   2.318   4.266   0.748 -0.3225 -0.1045 -0.5604
 3139SOL    HW110101   2.399   4.311   0.724  0.2408 -1.6332 -1.6767
 3139SOL    HW210102   2.251   4.307   0.692 -0.1826  0.5724 -0.2493
 3140SOL     OW10103   6.114   0.496   2.408  0.8093  0.9300 -0.5954
 3140SOL    HW110104   6.080   0.435   2.343  1.5941 -1.5843  1.2337
 3140SOL    HW210105   6.042   0.558   2.423 -1.5953 -1.9034  0.3684
 3141SOL     OW10106   2.546   3.875   1.499  0.7068  0.1525 -0.4538
 3141SOL    HW110107   2.504   3.820   1.565 -0.2052  0.5245 -0.6981
 3141SOL    HW210108   2.507   3.962   1.513  0.5740  0.2543 -1.4130
 3142SOL     OW10109   2.366   5.207   5.292 -0.5247  0.0560 -0.0847
 3142SOL    HW110110   2.448   5.214   5.244 -0.4671 -2.7662 -0.5196
 3142SOL    HW210111   2.305   5.263   5.244  0.0510 -1.1455 -2.3267
 3143SOL     OW10112   4.188   2.923   4.243 -0.2021 -0.5496 -0.7400
 3143SOL    HW110113   4.234   2.984   4.301 -2.4113  1.0394 -0.5253
 3143SOL    HW210114   4.218   2.945   4.155  0.2702 -0.3059 -0.5162
 3144SOL     OW10115   5.839   6.057   3.300  0.0296 -0.3740  0.0235
 3144SOL    HW110116   5.801   6.124   3.243 -0.1470 -0.2842  0.2447
 3144SOL    HW210117   5.859   5.985   3.241  0.3102 -0.0900 -0.2323
 3145SOL     OW10118   2.310   4.597   5.109 -0.0951  0.6213 -0.3755
 3145SOL    HW110119   2.239   4.537   5.129 -1.2816  0.8746 -3.3877
 3145SOL    HW210120   2.375   4.543   5.064  1.1564  0.6471  1.2921
 3146SOL     OW10121   1.174   6.290   6.451 -0.2003 -0.7114  0.4335
 3146SOL    HW110122   1.241   6.249   6.397  0.3405 -0.6227  1.0220
 3146SOL    HW210123   1.222   6.350   6.508 -1.0037  1.0060 -0.6186
 3147SOL     OW10124   1.304   5.187   0.750  0.4629 -0.0292 -0.3157
 3147SOL    HW110125   1.329   5.115   0.807 -0.1899  0.9153  1.2209
 3147SOL    HW210126   1.223   5.220   0.787  0.8140  1.5809 -0.8907
 3148SOL     OW10127   1.011   3.695   0.554 -0.0108 -0.3735 -0.0054
 3148SOL    HW110128   1.073   3.764   0.575 -0.9865  0.9409 -1.2423
 3148SOL    HW210129   1.053   3.614   0.584  2.0118  0.5298 -0.2491
 3149SOL     OW10130   3.457   1.064   5.282 -0.1125  0.5831 -0.2519
 3149SOL    HW110131   3.377   1.015   5.299  0.0581  0.6665  0.8487
 3149SOL    HW210132   3.465   1.124   5.356  1.0070  0.5111 -0.2995
 3150SOL     OW10133   3.350   0.204   5.883  0.0693 -0.8515  0.2018
 3150SOL    HW110134   3.268   0.225   5.838 -0.4386 -0.5148  1.2632
 3150SOL    HW210135   3.418   0.226   5.819 -0.5692  1.0675  0.1173
 3151SOL     OW10136   3.628   1.124   4.163 -0.3877  0.0372 -0.4221
 3151SOL    HW110137   3.589   1.090   4.244 -0.9521 -0.3300 -0.8443
 3151SOL    HW210138   3.711   1.162   4.192 -1.9310  2.7250  0.8408
 3152SOL     OW10139   1.055   6.056   0.299  0.2492  0.2638 -0.3130
 3152SOL    HW110140   1.042   6.063   0.393 -0.1630  0.6845 -0.3977
 3152SOL    HW210141   1.129   6.115   0.280  2.5872 -2.3114  0.2029
 3153SOL     OW10142   3.868   0.033   0.330  0.2087 -0.1662 -0.1039
 3153SOL    HW110143   3.878  -0.055   0.295  2.5490  0.6231 -1.6942
 3153SOL    HW210144   3.893   0.091   0.258 -0.1536  1.7640  1.2329
 3154SOL     OW10145   1.754   4.194   2.057 -0.0391  0.3327  0.2064
 3154SOL    HW110146   1.675   4.181   2.110  0.5067 -1.8466  0.5752
 3154SOL    HW210147   1.826   4.163   2.112  0.8609  0.5689 -0.8025
 3155SOL     OW10148   5.212   6.089   3.249 -0.3239  0.0736  0.4804
 3155SOL    HW110149   5.141   6.112   3.309 -0.0309  0.8192  0.5501
 3155SOL    HW210150   5.284   6.062   3.306  0.6669  2.7094  0.6309
 3156SOL     OW10151   6.104   4.591   0.262  0.3965  0.2706  0.2868
 3156SOL    HW110152   6.009   4.592   0.271  0.1909 -0.7001 -1.4037
 3156SOL    HW210153   6.135   4.657   0.324 -1.3073  0.0035  1.4854
 3157SOL     OW10154   1.547   4.597   1.755 -0.0523  0.6793  0.1652
 3157SOL    HW110155   1.462   4.641   1.763 -0.3404  0.0054  1.0530
 3157SOL    HW210156   1.564   4.594   1.661 -0.8131  1.1992 -0.0035
 3158SOL     OW10157   5.682   5.251   0.323  0.5395  0.1810 -0.1190
 3158SOL    HW110158   5.729   5.326   0.361 -0.0646 -0.0405  1.1307
 3158SOL    HW210159   5.590   5.274   0.331  0.3861  0.0084 -1.2719
 3159SOL     OW10160   0.703   4.180   2.208  0.1416 -0.4403  0.0652
 3159SOL    HW110161   0.755   4.248   2.165 -2.8156  1.0929 -1.4028
 3159SOL    HW210162   0.728   4.099   2.165  2.9032 -0.2123  1.0336
 3160SOL     OW10163   2.583   4.470   4.033  0.8339 -0.6127 -0.3617
 3160SOL    HW110164   2.659   4.418   4.060  0.8257 -0.1607  0.5450
 3160SOL    HW210165   2.533   4.410   3.978  1.3165 -1.2567 -0.1185
 3161SOL     OW10166   2.867   3.445   1.749 -0.1607  0.0436  0.6237
 3161SOL    HW110167   2.879   3.507   1.677  1.3626  1.3279  1.8819
 3161SOL    HW210168   2.953   3.404   1.759  0.0071  0.7401  2.3937
 3162SOL     OW10169   2.445   2.775   5.547 -0.0114  0.3635 -0.0780
 3162SOL    HW110170   2.454   2.856   5.497 -0.5476 -0.0593 -0.8986
 3162SOL    HW210171   2.471   2.798   5.636  0.1716  1.3461 -0.3735
 3163SOL     OW10172   6.428   0.012   3.769  0.4649 -0.2845 -0.0382
 3163SOL    HW110173   6.461   0.064   3.696 -0.0143 -0.2706 -0.2441
 3163SOL    HW210174   6.466  -0.075   3.755 -1.1316 -0.8173 -1.3812
 3164SOL     OW10175   4.169   5.038   0.159  0.3691  0.2998 -0.3608
 3164SOL    HW110176   4.261   5.059   0.145  0.9434 -1.6298  0.1271
 3164SOL    HW210177   4.147   5.077   0.244 -0.0586  2.9265 -1.5797
 3165SOL     OW10178   4.921   3.994   6.178  0.1823 -0.1460  0.1771
 3165SOL    HW110179   4.957   4.079   6.153 -2.2575  0.8979 -0.0879
 3165SOL    HW210180   4.851   3.978   6.114  0.2223 -2.0793  0.5722
 3166SOL     OW10181   4.598   1.923   4.443  0.2246 -0.0977  0.5604
 3166SOL    HW110182   4.677   1.964   4.477  0.8326 -1.1926  0.5104
 3166SOL    HW210183   4.629   1.865   4.374 -0.9067  1.6005 -1.4894
 3167SOL     OW10184   4.395   3.066   2.865 -0.2797 -0.0234 -0.2084
 3167SOL    HW110185   4.426   3.005   2.933 -0.6265 -0.0390 -0.0638
 3167SOL    HW210186   4.327   3.118   2.908  0.9397  1.4010  0.0782
 3168SOL     OW10187   0.543   1.341   5.793  1.6097  0.1989 -0.2050
 3168SOL    HW110188   0.634   1.341   5.766  1.2235 -0.4337 -1.6018
 3168SOL    HW210189   0.496   1.303   5.719  0.2365  0.3177  0.5697
 3169SOL     OW10190   6.302   3.562   0.150  0.4302  0.5534  0.0711
 3169SOL    HW110191   6.267   3.473   0.145  1.9455  0.0000 -1.1701
 3169SOL    HW210192   6.239   3.615   0.101  0.7974 -0.2673 -1.3274
 3170SOL     OW10193   4.650   2.771   5.255  0.2542  0.2143 -0.4405
 3170SOL    HW110194   4.720   2.805   5.200  0.7993  1.1386  0.7825
 3170SOL    HW210195   4.651   2.677   5.241  2.1082  0.1501 -0.0292
 3171SOL     OW10196   3.641   1.689   2.492  0.2260 -0.5437  0.2083
 3171SOL    HW110197   3.546   1.704   2.496  0.3901  1.0632 -0.9012
 3171SOL    HW210198   3.668   1.679   2.583 -0.8895 -0.2348  0.5888
 3172SOL     OW10199   4.888   1.142   6.039 -0.2936  0.0330 -0.5544
 3172SOL    HW110200   4.923   1.059   6.006 -1.1938 -0.7330  0.3726
 3172SOL    HW210201   4.806   1.154   5.992  0.0954  0.6933 -1.0853
 3173SOL     OW10202   2.149   0.517   5.365  0.3416  0.2240 -0.5090
 3173SOL    HW110203   2.202   0.589   5.398  0.6992  0.7897 -2.2433
 3173SOL    HW210204   2.121   0.470   5.444 -1.9820  3.6359  0.9505
 3174SOL     OW10205   0.090   2.068   6.206 -0.5311 -0.6131 -0.3127
 3174SOL    HW110206   0.003   2.041   6.174 -0.3188 -1.2742 -0.3562
 3174SOL    HW210207   0.097   2.025   6.292 -0.1339 -0.7932 -0.4353
 3175SOL     OW10208   5.191   1.357   5.603  0.3397 -0.1719 -0.0321
 3175SOL    HW110209   5.211   1.428   5.541  2.3920 -0.0090  0.7274
 3175SOL    HW210210   5.097   1.342   5.593  0.1144  1.6767 -1.2532
 3176SOL     OW10211   5.485   4.161   5.224  0.0059  0.2347 -0.6367
 3176SOL    HW110212   5.531   4.230   5.176 -0.5260  0.8657 -0.2570
 3176SOL    HW210213   5.467   4.094   5.158  2.7638 -0.7415 -0.5272
 3177SOL     OW10214   3.145   2.813   1.366 -0.0661  0.0208  0.3445
 3177SOL    HW110215   3.206   2.742   1.385  0.6072  0.8990  1.5314
 3177SOL    HW210216   3.124   2.852   1.451  0.5404  2.0223 -0.3573
 3178SOL     OW10217   2.042   4.205   6.411  0.1183  0.3908  0.1942
 3178SOL    HW110218   1.957   4.162   6.420 -0.6564  1.1230 -2.7011
 3178SOL    HW210219   2.023   4.298   6.422  0.8938  0.4270  1.3565
 3179SOL     OW10220   1.778   4.753   3.346 -0.3948  0.0508 -1.1328
 3179SOL    HW110221   1.743   4.722   3.263  1.9600  2.7610 -3.3505
 3179SOL    HW210222   1.859   4.703   3.359 -0.3359  0.1982 -0.9080
 3180SOL     OW10223   6.511   6.218   2.043 -0.2875 -0.1707 -0.8217
 3180SOL    HW110224   6.549   6.147   1.992 -0.9940 -1.2248  0.0724
 3180SOL    HW210225   6.480   6.176   2.124 -1.1154  1.0675 -0.4607
 3181SOL     OW10226   2.394   0.359   1.814 -0.1591 -0.1927 -0.4375
 3181SOL    HW110227   2.385   0.360   1.719  0.8790  1.7253 -0.5534
 3181SOL    HW210228   2.478   0.402   1.831 -0.7693  0.3801  1.3851
 3182SOL     OW10229   4.513   2.092   0.894 -0.6689 -0.0904 -0.0655
 3182SOL    HW110230   4.567   2.167   0.871  0.8254 -1.2368 -0.4325
 3182SOL    HW210231   4.558   2.051   0.968 -1.5629 -0.5217  0.2668
 3183SOL     OW10232   3.680   2.785   1.724 -0.1555 -0.3307  0.3888
 3183SOL    HW110233   3.666   2.823   1.811 -1.7795 -1.5671  0.7084
 3183SOL    HW210234   3.772   2.759   1.725  0.4041  1.4988  0.9597
 3184SOL     OW10235   3.128   4.769   1.095 -0.1647 -0.1412  0.5155
 3184SOL    HW110236   3.151   4.744   1.184 -2.0055 -0.3654  0.9524
 3184SOL    HW210237   3.138   4.689   1.044  1.7190  0.1721  0.2887
 3185SOL     OW10238   1.204   2.747   3.770  0.7712 -0.3976 -0.2757
 3185SOL    HW110239   1.119   2.790   3.781 -0.7725 -1.5474 -5.0637
 3185SOL    HW210240   1.259   2.813   3.728  0.1234 -1.3111 -2.7346
 3186SOL     OW10241   3.030   3.022   4.646  0.1000  0.6972 -0.2898
 3186SOL    HW110242   3.070   2.979   4.571  0.2222  0.2558  0.0269
 3186SOL    HW210243   3.095   3.015   4.716 -0.5622 -0.1220  0.2619
 3187SOL     OW10244   4.199   3.072   6.292 -0.1870 -0.1292 -0.0165
 3187SOL    HW110245   4.198   3.118   6.208  0.9353 -0.7142 -0.3666
 3187SOL    HW210246   4.117   3.022   6.294  0.2133 -0.8514 -1.1857
 3188SOL     OW10247   5.704   4.110   3.758  0.1980  0.3724 -0.2262
 3188SOL    HW110248   5.668   4.107   3.670 -0.1003 -0.9468 -0.0826
 3188SOL    HW210249   5.635   4.152   3.810  0.7688  2.0520 -0.7697
 3189SOL     OW10250   2.159   3.306   4.197  0.4266  0.0116 -0.0310
 3189SOL    HW110251   2.149   3.230   4.140  1.4167  0.5344 -0.9581
 3189SOL    HW210252   2.167   3.380   4.137  0.5558  0.7100  0.8180
 3190SOL     OW10253   1.174   0.755   0.192 -0.0393  0.1408 -0.2487
 3190SOL    HW110254   1.135   0.714   0.115 -0.6988 -0.7445  0.5501
 3190SOL    HW210255   1.135   0.842   0.195 -2.0388 -0.7381  0.5668
 3191SOL     OW10256   5.286   4.085   1.331  0.1483 -0.0291  0.0191
 3191SOL    HW110257   5.195   4.088   1.361  1.0017  1.6039  2.8006
 3191SOL    HW210258   5.306   4.175   1.305  0.9859 -0.3651 -0.5362
 3192SOL     OW10259   6.440   2.439   3.996 -0.4090 -0.2556  0.3341
 3192SOL    HW110260   6.495   2.392   3.934  1.2219  0.1264  1.4177
 3192SOL    HW210261   6.469   2.530   3.990 -2.1216  0.2771 -0.2778
 3193SOL     OW10262   0.671   1.192   3.577  0.3612  0.1328 -0.3662
 3193SOL    HW110263   0.635   1.108   3.602  0.1034  1.2122  3.5657
 3193SOL    HW210264   0.601   1.236   3.530  0.0840 -1.3312 -1.3788
 3194SOL     OW10265   1.278   4.256   5.775  0.5386 -0.0847 -0.0301
 3194SOL    HW110266   1.201   4.205   5.799 -0.0242  0.5761 -0.3960
 3194SOL    HW210267   1.314   4.286   5.859  0.0151  0.1500  0.1152
 3195SOL     OW10268   0.715   1.307   0.492  0.5925 -0.0392 -0.5524
 3195SOL    HW110269   0.695   1.265   0.408 -1.5181  0.6121 -0.4220
 3195SOL    HW210270   0.810   1.300   0.500  0.5269 -3.2854 -1.3144
 3196SOL     OW10271   1.499   3.103   4.145 -0.1201  0.1113 -0.0891
 3196SOL    HW110272   1.501   3.077   4.238  0.6688 -0.2898 -0.2100
 3196SOL    HW210273   1.579   3.065   4.108 -0.6109 -0.0306 -1.0189
 3197SOL     OW10274   2.983   4.799   5.228  0.1388 -0.1654 -0.6727
 3197SOL    HW110275   2.996   4.794   5.134 -0.1347 -0.6591 -0.6871
 3197SOL    HW210276   2.942   4.716   5.251 -3.4122  1.3897 -0.7071
 3198SOL     OW10277   5.174   6.393   5.880  0.1773  0.1485  0.0581
 3198SOL    HW110278   5.151   6.485   5.868 -0.6870  0.0605  0.8501
 3198SOL    HW210279   5.093   6.345   5.860  1.2428 -0.6574 -2.6790
 3199SOL     OW10280   1.046   2.339   2.369 -0.2445  0.1671  0.1050
 3199SOL    HW110281   0.958   2.308   2.347 -0.2006  0.4901 -0.5528
 3199SOL    HW210282   1.033   2.394   2.447 -0.2792 -1.6771  1.4649
 3200SOL     OW10283   4.103   4.679   0.790 -0.3816 -0.4744 -0.0526
 3200SOL    HW110284   4.102   4.764   0.746  1.2493 -0.4001 -0.0102
 3200SOL    HW210285   4.015   4.644   0.777 -2.3262  2.7187  2.8789
 3201SOL     OW10286   5.448   2.235   5.172 -0.0769  0.2245  0.8002
 3201SOL    HW110287   5.380   2.289   5.213  0.3280  1.6013 -0.2321
 3201SOL    HW210288   5.437   2.251   5.078  0.7067 -0.7351  0.5309
 3202SOL     OW10289   4.311   3.131   4.361  0.7381  0.1558 -0.0373
 3202SOL    HW110290   4.254   3.205   4.344  2.2154  0.9330 -2.0192
 3202SOL    HW210291   4.321   3.129   4.456 -0.8588  1.2710  0.1871
 3203SOL     OW10292   5.312   1.270   1.325 -0.2491 -0.1591 -0.8097
 3203SOL    HW110293   5.351   1.184   1.309 -0.1480 -0.1252 -0.7440
 3203SOL    HW210294   5.244   1.254   1.391 -0.1806 -0.1759 -0.7429
 3204SOL     OW10295   4.398   5.839   1.089 -0.2580  0.4675 -0.2608
 3204SOL    HW110296   4.490   5.852   1.067 -0.0418  0.4061  0.5702
 3204SOL    HW210297   4.386   5.890   1.170 -0.4477 -1.0895  0.7307
 3205SOL     OW10298   3.173   6.456   4.667  0.1974 -0.4647  0.5036
 3205SOL    HW110299   3.157   6.406   4.747 -1.1450  0.6353  0.9774
 3205SOL    HW210300   3.221   6.533   4.697 -0.8899  0.2859  0.4114
 3206SOL     OW10301   3.389   0.874   1.736  0.0003 -0.4638 -0.1144
 3206SOL    HW110302   3.475   0.902   1.704  0.2750 -0.9968  0.1390
 3206SOL    HW210303   3.384   0.781   1.712  0.5064 -1.0782  1.9274
 3207SOL     OW10304   3.902   0.245   4.165 -0.0690 -0.3094 -0.3257
 3207SOL    HW110305   3.915   0.255   4.071 -1.1459 -1.0187 -0.5590
 3207SOL    HW210306   3.934   0.327   4.202  0.2137  0.0430 -1.3232
 3208SOL     OW10307   5.488   1.983   5.252 -0.6344  0.4222 -0.5143
 3208SOL    HW110308   5.497   2.073   5.222  1.9719  1.0362  1.6858
 3208SOL    HW210309   5.394   1.970   5.263 -1.2320  2.0505 -3.0063
 3209SOL     OW10310   1.115   5.987   3.663 -0.8264  0.6918  0.4041
 3209SOL    HW110311   1.128   6.075   3.627 -1.6427  0.6257 -0.0691
 3209SOL    HW210312   1.202   5.961   3.694 -0.2352  0.9981 -0.9411
 3210SOL     OW10313   2.127   3.269   1.429 -0.2439 -0.7395 -0.4467
 3210SOL    HW110314   2.032   3.258   1.421 -0.2078 -0.5956 -1.2184
 3210SOL    HW210315   2.163   3.200   1.374  0.1117 -1.0982  0.2320
 3211SOL     OW10316   2.890   4.810   5.781 -0.1922  0.2045  0.0653
 3211SOL    HW110317   2.976   4.769   5.769 -0.2870 -0.1644  0.6219
 3211SOL    HW210318   2.906   4.903   5.767  0.1771  0.0678 -0.4528
 3212SOL     OW10319   2.014   4.594   3.785  0.4110  0.1520 -0.6261
 3212SOL    HW110320   2.068   4.553   3.852  0.4541  0.9033 -0.2018
 3212SOL    HW210321   2.074   4.609   3.712  0.3260 -0.8211 -0.9168
 3213SOL     OW10322   5.317   5.057   2.318 -0.2811 -1.0498  0.4436
 3213SOL    HW110323   5.388   5.005   2.355 -1.4927 -1.3846  2.4260
 3213SOL    HW210324   5.351   5.087   2.233  2.3502 -0.8401  1.4872
 3214SOL     OW10325   3.812   5.492   3.955  0.4590  0.3251 -0.1195
 3214SOL    HW110326   3.904   5.513   3.940 -0.1953  2.0412 -2.2677
 3214SOL    HW210327   3.804   5.401   3.925  1.9512 -0.9632  2.9005
 3215SOL     OW10328   0.101   5.226   1.990  0.3582  0.1408 -0.0325
 3215SOL    HW110329   0.120   5.155   1.928 -0.4463 -0.4084  0.3444
 3215SOL    HW210330   0.010   5.214   2.014  0.3185  1.0860  0.3325
 3216SOL     OW10331   6.244   4.848   3.205 -0.3956  0.3554 -0.2526
 3216SOL    HW110332   6.196   4.776   3.247 -3.0480  1.1749 -1.6155
 3216SOL    HW210333   6.331   4.813   3.189 -1.8515 -3.0051 -1.8172
 3217SOL     OW10334   4.211   0.734   4.476  0.1298 -0.4122 -0.2991
 3217SOL    HW110335   4.280   0.791   4.445 -1.5328  1.1296 -1.3515
 3217SOL    HW210336   4.168   0.702   4.397 -0.6275 -0.9794  0.3213
 3218SOL     OW10337   0.860   5.752   2.592 -0.5909 -0.1019  0.1152
 3218SOL    HW110338   0.848   5.728   2.500 -0.5283  0.5635 -0.0656
 3218SOL    HW210339   0.776   5.731   2.633 -0.0857 -2.0687  0.2885
 3219SOL     OW10340   3.615   6.199   4.254  0.2045 -0.2157 -0.6432
 3219SOL    HW110341   3.537   6.145   4.267  0.8899 -0.8417  1.0503
 3219SOL    HW210342   3.688   6.138   4.260  0.8874  0.5334 -1.1382
 3220SOL     OW10343   2.837   3.348   0.682  0.2137 -0.7854  0.1202
 3220SOL    HW110344   2.828   3.260   0.646 -0.7664 -1.0059  0.8531
 3220SOL    HW210345   2.845   3.334   0.777  1.3900 -0.1474  0.1324
 3221SOL     OW10346   0.658   4.371   3.017  0.3194  0.1316 -0.6883
 3221SOL    HW110347   0.733   4.429   3.005  0.3454  0.1944 -0.2322
 3221SOL    HW210348   0.660   4.314   2.940  0.6868  0.2940 -0.8035
 3222SOL     OW10349   1.058   2.819   1.916 -0.1818 -0.1867  0.0865
 3222SOL    HW110350   1.029   2.886   1.979 -0.4356 -0.7213  0.5506
 3222SOL    HW210351   1.125   2.862   1.864 -0.4213  0.4645  0.3114
 3223SOL     OW10352   5.117   5.774   4.223 -0.3820  0.0398  0.2093
 3223SOL    HW110353   5.140   5.866   4.211 -1.0957  0.1607 -0.2634
 3223SOL    HW210354   5.050   5.775   4.292 -0.1889 -0.1592  0.4044
 3224SOL     OW10355   5.601   5.339   6.181  0.1967 -0.2632 -0.0270
 3224SOL    HW110356   5.625   5.259   6.228  1.6323 -1.6802 -2.9351
 3224SOL    HW210357   5.552   5.308   6.105  1.5402  1.5276 -1.7067
 3225SOL     OW10358   4.595   4.475   5.872 -0.0206 -0.0696  0.4060
 3225SOL    HW110359   4.563   4.446   5.786  1.9074  1.3295 -0.8701
 3225SOL    HW210360   4.580   4.570   5.872 -1.3275 -0.2288  2.2709
 3226SOL     OW10361   2.135   5.811   6.357  0.1908 -0.5225  0.8480
 3226SOL    HW110362   2.228   5.829   6.365  0.4433 -1.7513  0.8443
 3226SOL    HW210363   2.111   5.766   6.437  0.1213 -2.2422 -0.0962
 3227SOL     OW10364   5.757   4.690   2.905  0.2886 -0.4475  0.1526
 3227SOL    HW110365   5.801   4.745   2.970 -0.5115 -1.3569  1.5317
 3227SOL    HW210366   5.663   4.699   2.926  0.0452 -1.0211 -0.6572
 3228SOL     OW10367   4.845   5.484   2.876 -0.2186  0.4936  0.7302
 3228SOL    HW110368   4.866   5.412   2.817  1.4132  2.5502 -1.3656
 3228SOL    HW210369   4.895   5.465   2.956 -1.6115 -1.7677  1.1841
 3229SOL     OW10370   2.755   5.968   4.877  0.3522  0.5735 -0.3579
 3229SOL    HW110371   2.831   5.910   4.886  0.7885  1.2666  0.5064
 3229SOL    HW210372   2.782   6.032   4.811  0.7874  1.2202  0.4317
 3230SOL     OW10373   1.569   5.382   5.030  0.6753  0.6745 -0.1010
 3230SOL    HW110374   1.569   5.459   5.087 -1.0038  2.6323 -2.5551
 3230SOL    HW210375   1.597   5.311   5.087  0.3131  2.6971  2.8375
 3231SOL     OW10376   4.174   0.028   6.314  0.0023  0.7379 -0.0284
 3231SOL    HW110377   4.234   0.090   6.271 -0.3007 -0.1552 -1.8558
 3231SOL    HW210378   4.197  -0.056   6.275 -0.8334 -0.0026  1.0594
 3232SOL     OW10379   2.310   1.143   0.475  0.4631  0.4241 -0.1781
 3232SOL    HW110380   2.307   1.066   0.419 -0.1727  0.7796 -0.6511
 3232SOL    HW210381   2.273   1.113   0.558  1.8006 -0.2162  0.2130
 3233SOL     OW10382   2.876   2.323   5.244 -0.1739  0.0671 -0.2364
 3233SOL    HW110383   2.940   2.346   5.311 -1.3657 -2.8568  2.1690
 3233SOL    HW210384   2.920   2.341   5.161  2.6558  0.8200  1.3003
 3234SOL     OW10385   5.122   5.749   3.724  0.4035 -0.0191 -0.0378
 3234SOL    HW110386   5.094   5.781   3.810 -2.4844 -0.6582 -0.6611
 3234SOL    HW210387   5.177   5.820   3.690 -1.8169  2.1974  0.6513
 3235SOL     OW10388   4.520   6.065   0.847 -0.2477  0.1539 -0.2243
 3235SOL    HW110389   4.430   6.047   0.821 -0.7941  2.1740  0.0471
 3235SOL    HW210390   4.573   6.038   0.772 -0.9821 -1.6273 -0.1516
 3236SOL     OW10391   1.990   3.703   5.629  0.2634  0.2914  0.3716
 3236SOL    HW110392   2.002   3.652   5.549  1.6924  4.9129 -2.7639
 3236SOL    HW210393   2.070   3.689   5.679  0.0692 -1.3921  0.2620
 3237SOL     OW10394   4.978   4.730   2.295 -0.3741 -0.0858  0.8429
 3237SOL    HW110395   5.028   4.660   2.337  0.7524  1.2742  1.8772
 3237SOL    HW210396   4.969   4.702   2.204  2.0767 -0.5264  0.6720
 3238SOL     OW10397   4.752   5.584   3.311 -0.3109  0.2448 -0.1314
 3238SOL    HW110398   4.705   5.571   3.393  2.1450  0.0256  1.3320
 3238SOL    HW210399   4.765   5.495   3.277  2.1371 -0.0634  1.3858
 3239SOL     OW10400   4.492   6.057   0.365 -0.1156  0.4108  0.1112
 3239SOL    HW110401   4.562   6.086   0.305 -0.7413 -0.9219 -1.3357
 3239SOL    HW210402   4.469   6.136   0.415  1.9865  1.0271  0.2076
 3240SOL     OW10403   1.608   4.480   1.035 -0.1631  0.2687  0.5438
 3240SOL    HW110404   1.591   4.426   0.958 -0.0696  0.7481  0.1778
 3240SOL    HW210405   1.521   4.498   1.072 -0.1918 -0.1510  0.6880
 3241SOL     OW10406   4.413   1.499   3.925 -0.2532  0.1753 -0.0387
 3241SOL    HW110407   4.487   1.524   3.869 -1.7991  0.1148 -2.2318
 3241SOL    HW210408   4.440   1.416   3.965  1.6148  1.1281  0.7807
 3242SOL     OW10409   1.540   4.655   3.459  0.0047  0.1419  0.3753
 3242SOL    HW110410   1.598   4.722   3.423  0.9814 -0.0789  1.4775
 3242SOL    HW210411   1.458   4.666   3.412  1.0170  0.2749 -1.4464
 3243SOL     OW10412   2.399   4.470   4.590  0.0068 -0.3989  0.0862
 3243SOL    HW110413   2.348   4.494   4.668 -1.5205 -1.3590 -0.5694
 3243SOL    HW210414   2.490   4.486   4.616 -0.4898 -0.1777  1.8790
 3244SOL     OW10415   5.578   3.357   0.959  0.6806  0.0871 -0.5391
 3244SOL    HW110416   5.483   3.368   0.952  0.5435  0.4050  1.2698
 3244SOL    HW210417   5.609   3.440   0.993  1.6062 -0.0662 -0.9781
 3245SOL     OW10418   0.314   2.712   6.094 -0.3684 -0.0834  0.7191
 3245SOL    HW110419   0.321   2.806   6.111 -1.1260  0.2867 -0.8439
 3245SOL    HW210420   0.240   2.683   6.148  0.1733  0.1099  1.5751
 3246SOL     OW10421   0.970   0.698   5.459 -0.1520 -0.1718 -0.1378
 3246SOL    HW110422   0.956   0.607   5.484  1.5858 -0.9628 -1.7654
 3246SOL    HW210423   0.949   0.700   5.366  0.4044  0.9532 -0.2479
 3247SOL     OW10424   3.041   1.930   1.484 -0.6471 -0.1142 -0.0591
 3247SOL    HW110425   3.087   2.014   1.478 -2.3791  0.7691 -2.8218
 3247SOL    HW210426   3.102   1.867   1.447 -0.4318  0.4899 -0.7662
 3248SOL     OW10427   5.638   0.762   0.371  0.7161 -0.0119  0.0166
 3248SOL    HW110428   5.633   0.683   0.425 -1.8187  1.3551  1.9806
 3248SOL    HW210429   5.725   0.799   0.390  0.7259 -0.7243  1.4905
 3249SOL     OW10430   2.523   4.643   1.125  0.8276  0.0974  0.7102
 3249SOL    HW110431   2.579   4.579   1.168  1.9600  0.8589  0.4100
 3249SOL    HW210432   2.486   4.695   1.197  2.1327  0.8922  0.8377
 3250SOL     OW10433   2.133   2.435   3.812  0.0453 -0.0846  0.2475
 3250SOL    HW110434   2.199   2.504   3.803 -0.1118  0.0199 -0.0999
 3250SOL    HW210435   2.049   2.481   3.808 -0.0514 -0.1871  0.9354
 3251SOL     OW10436   0.110   2.705   4.464  0.0950  0.6984 -0.1727
 3251SOL    HW110437   0.031   2.723   4.414  0.0657 -0.0547 -0.4042
 3251SOL    HW210438   0.118   2.781   4.523 -0.3728  1.1452 -0.6661
 3252SOL     OW10439   1.758   3.335   2.867  0.1865  0.0939 -0.6470
 3252SOL    HW110440   1.758   3.431   2.864  0.3247  0.1078 -0.2001
 3252SOL    HW210441   1.824   3.309   2.803 -0.2508  0.2806 -1.1887
 3253SOL     OW10442   1.881   1.267   5.308  0.2393 -0.1504  0.2244
 3253SOL    HW110443   1.847   1.349   5.343  0.9841  0.9924 -1.6124
 3253SOL    HW210444   1.952   1.243   5.367  0.9537  1.3119 -0.0052
 3254SOL     OW10445   4.199   5.373   0.332  0.1772  1.2812  0.0937
 3254SOL    HW110446   4.211   5.364   0.237 -0.2675 -0.3683  0.1648
 3254SOL    HW210447   4.283   5.344   0.369 -0.6763 -1.2923  0.2612
 3255SOL     OW10448   2.781   3.201   2.468  0.0616 -0.3694  0.3998
 3255SOL    HW110449   2.718   3.138   2.433 -0.9371  1.2344 -0.8084
 3255SOL    HW210450   2.728   3.266   2.514  0.8636  0.7627 -0.2335
 3256SOL     OW10451   2.004   1.493   4.113  0.5341  0.2223 -0.0716
 3256SOL    HW110452   2.097   1.475   4.102  0.4294 -0.0325 -0.5449
 3256SOL    HW210453   2.000   1.588   4.124  0.8478  0.2324 -0.0211
 3257SOL     OW10454   5.504   5.718   3.219  0.1788  0.6053 -0.1343
 3257SOL    HW110455   5.432   5.727   3.156  0.0766  0.7649  0.0051
 3257SOL    HW210456   5.581   5.703   3.165 -0.4146 -2.9073 -0.2471
 3258SOL     OW10457   5.693   5.071   3.257 -0.6623 -0.2059  0.2529
 3258SOL    HW110458   5.680   5.011   3.183  0.2658 -0.3202  0.1756
 3258SOL    HW210459   5.740   5.019   3.322  0.4510  0.5235  0.0578
 3259SOL     OW10460   5.844   6.434   5.746  0.2761 -0.3085 -0.2952
 3259SOL    HW110461   5.883   6.389   5.821 -0.7393 -0.8266 -0.0579
 3259SOL    HW210462   5.776   6.490   5.784  0.2093 -0.0621 -0.7655
 3260SOL     OW10463   4.898   5.157   4.344 -0.4840 -0.6639 -0.4917
 3260SOL    HW110464   4.972   5.163   4.405 -1.3055 -0.9669  0.5721
 3260SOL    HW210465   4.822   5.182   4.397 -1.3993 -2.1751 -1.0484
 3261SOL     OW10466   5.265   5.714   6.070 -0.0634 -0.3061  0.6159
 3261SOL    HW110467   5.220   5.665   6.139  1.3301 -0.2797  1.5867
 3261SOL    HW210468   5.357   5.694   6.083  0.4202  1.4869  0.1575
 3262SOL     OW10469   5.315   3.228   3.536  0.0183 -0.1448 -0.2486
 3262SOL    HW110470   5.227   3.255   3.560  0.3778  0.6880  0.1580
 3262SOL    HW210471   5.321   3.246   3.442  0.3993  1.6737  0.0870
 3263SOL     OW10472   2.565   4.302   2.472 -0.2782 -0.2055 -0.0529
 3263SOL    HW110473   2.549   4.372   2.408 -2.4200 -0.3509  0.2520
 3263SOL    HW210474   2.531   4.223   2.430  0.8060 -0.8321  0.1947
 3264SOL     OW10475   2.552   3.373   1.528  0.0927 -0.0312 -0.3858
 3264SOL    HW110476   2.563   3.408   1.440 -1.7155 -1.0822 -1.0827
 3264SOL    HW210477   2.457   3.374   1.542  0.3451  0.1047  1.5595
 3265SOL     OW10478   3.022   1.543   1.842  0.0055  0.4560 -0.1395
 3265SOL    HW110479   3.034   1.599   1.919  0.9700  1.3725 -0.9338
 3265SOL    HW210480   3.110   1.511   1.823 -0.3597 -0.4215 -0.3876
 3266SOL     OW10481   2.809   1.491   3.802  0.6895 -0.2570 -0.4306
 3266SOL    HW110482   2.717   1.508   3.783  0.4377 -0.9098  0.1536
 3266SOL    HW210483   2.815   1.395   3.806  1.3393 -0.2112 -0.2400
 3267SOL     OW10484   4.254   2.807   5.143 -0.1717 -0.2957  0.2486
 3267SOL    HW110485   4.308   2.834   5.217  0.1357  1.2643 -0.5009
 3267SOL    HW210486   4.315   2.762   5.084  0.0106  0.1992  0.0561
 3268SOL     OW10487   2.413   1.524   0.130  0.2478 -0.4606  0.5079
 3268SOL    HW110488   2.441   1.602   0.178 -0.9767 -0.6525  1.5819
 3268SOL    HW210489   2.486   1.462   0.140  1.0931  0.4148 -0.0860
 3269SOL     OW10490   2.927   4.447   6.073 -0.6050  0.1322  0.0085
 3269SOL    HW110491   2.996   4.407   6.020 -2.5748 -0.6987 -2.1071
 3269SOL    HW210492   2.943   4.541   6.067 -0.6376  0.0460 -1.9696
 3270SOL     OW10493   1.332   5.702   4.789  0.2581  0.1975 -0.2349
 3270SOL    HW110494   1.378   5.723   4.871 -0.6045  1.0957  0.0384
 3270SOL    HW210495   1.319   5.608   4.793 -1.7801  0.4666  1.7996
 3271SOL     OW10496   3.962   4.094   0.612 -0.1021 -0.0249  0.1081
 3271SOL    HW110497   3.953   4.091   0.707  3.8638 -2.1807  0.6284
 3271SOL    HW210498   4.010   4.176   0.596  1.5765 -0.9083  0.3702
 3272SOL     OW10499   2.579   2.173   3.452 -0.1105 -0.6299  0.1247
 3272SOL    HW110500   2.658   2.140   3.495  1.0529  1.5338 -0.2113
 3272SOL    HW210501   2.592   2.153   3.359  1.0037  1.3470 -0.2054
 3273SOL     OW10502   6.259   2.015   5.533  0.0612  0.1901  0.0885
 3273SOL    HW110503   6.344   2.000   5.491 -0.8736 -1.1697 -1.4259
 3273SOL    HW210504   6.272   2.093   5.587  2.5205 -0.4780  0.6012
 3274SOL     OW10505   3.418   2.733   6.066  0.4548  0.1376 -0.5820
 3274SOL    HW110506   3.512   2.723   6.053  0.2494 -0.4954 -1.7542
 3274SOL    HW210507   3.409   2.817   6.110  1.5636  0.2005 -0.4356
 3275SOL     OW10508   2.118   1.052   3.481  0.0539  0.2303 -0.0538
 3275SOL    HW110509   2.068   1.010   3.551  0.3776  2.2186  1.4528
 3275SOL    HW210510   2.192   1.094   3.526  0.3310  1.4715 -1.5837
 3276SOL     OW10511   1.525   0.961   5.229  0.4433  0.6149  0.3858
 3276SOL    HW110512   1.487   1.042   5.263  1.6710  1.5414 -0.3453
 3276SOL    HW210513   1.620   0.972   5.239  0.6054 -1.2765  1.4072
 3277SOL     OW10514   0.931   2.297   5.252  0.7201 -0.1568  0.1781
 3277SOL    HW110515   0.944   2.337   5.338 -1.3335 -0.9370  0.9179
 3277SOL    HW210516   0.921   2.371   5.192 -0.0016  0.4178  0.9965
 3278SOL     OW10517   1.324   5.163   2.978  0.2069  0.3108 -0.0284
 3278SOL    HW110518   1.324   5.234   3.042 -0.1953 -0.8569  1.3226
 3278SOL    HW210519   1.290   5.203   2.898  0.7468  1.8213  0.4666
 3279SOL     OW10520   1.458   3.779   5.760  0.0972 -0.0028 -0.2977
 3279SOL    HW110521   1.366   3.767   5.736  0.0299  0.4250 -0.2547
 3279SOL    HW210522   1.483   3.862   5.720 -0.3100  1.2922  1.9229
 3280SOL     OW10523   0.736   3.361   4.469 -0.0400  0.2424 -1.2368
 3280SOL    HW110524   0.719   3.384   4.561 -0.1529 -1.6182 -0.7495
 3280SOL    HW210525   0.779   3.438   4.433  0.0663  0.9985  0.3949
 3281SOL     OW10526   2.856   2.968   1.259  0.5997 -0.0754 -0.0450
 3281SOL    HW110527   2.874   2.885   1.214 -1.4914 -0.6871  0.0964
 3281SOL    HW210528   2.781   3.005   1.212 -1.1831 -0.3551  2.3163
 3282SOL     OW10529   0.444   0.115   5.515  0.1812  0.0364  0.3372
 3282SOL    HW110530   0.371   0.072   5.560  1.8711 -0.4242  2.8765
 3282SOL    HW210531   0.482   0.173   5.582  1.9558  0.4880 -0.9830
 3283SOL     OW10532   3.052   3.902   5.358 -0.1646 -0.1278 -0.1890
 3283SOL    HW110533   3.130   3.847   5.353 -0.2290 -0.5285  2.2786
 3283SOL    HW210534   3.086   3.992   5.352  0.2946 -0.3224 -0.6710
 3284SOL     OW10535   4.908   3.182   1.256 -0.3037 -0.3049  0.5050
 3284SOL    HW110536   4.992   3.182   1.210  0.2447 -0.5899  1.4848
 3284SOL    HW210537   4.929   3.210   1.345 -1.3482  0.2412  0.5912
 3285SOL     OW10538   4.780   0.893   4.098  0.3374  0.1702  0.2756
 3285SOL    HW110539   4.731   0.939   4.030  0.0386  0.1609  0.4835
 3285SOL    HW210540   4.745   0.927   4.180 -0.4966 -1.0318  0.4494
 3286SOL     OW10541   0.617   0.682   3.410  0.2126  0.0182 -0.1889
 3286SOL    HW110542   0.557   0.692   3.336 -0.0152  2.5746  0.2679
 3286SOL    HW210543   0.700   0.658   3.369 -0.2496 -0.0374 -1.1359
 3287SOL     OW10544   3.511   6.086   1.851 -0.6253 -0.4051  0.2579
 3287SOL    HW110545   3.495   6.023   1.781 -0.1742  0.2501 -0.4544
 3287SOL    HW210546   3.461   6.053   1.925 -3.0036  0.0830 -1.0223
 3288SOL     OW10547   1.274   3.789   0.396 -0.1983  0.1649 -0.5026
 3288SOL    HW110548   1.357   3.833   0.375  0.0570 -0.3524 -0.6000
 3288SOL    HW210549   1.250   3.823   0.482  1.4492 -1.5459  0.7150
 3289SOL     OW10550   1.245   6.236   1.636  0.0542 -0.2945 -0.5147
 3289SOL    HW110551   1.326   6.229   1.584  1.3720  1.5366  1.1613
 3289SOL    HW210552   1.195   6.305   1.593  0.2674 -0.1049 -0.4604
 3290SOL     OW10553   4.754   0.847   6.161  0.0416 -0.4008  0.2193
 3290SOL    HW110554   4.775   0.755   6.177  0.7755 -0.2527  0.1690
 3290SOL    HW210555   4.709   0.847   6.076 -0.7135 -0.8011  0.6178
 3291SOL     OW10556   6.393   1.001   3.685  0.0037  0.4927 -0.3897
 3291SOL    HW110557   6.421   0.909   3.683 -1.7607 -0.0917 -0.6668
 3291SOL    HW210558   6.456   1.046   3.629  1.2446 -0.4327  0.2019
 3292SOL     OW10559   6.351   3.924   3.665 -0.5457  0.4279 -0.0110
 3292SOL    HW110560   6.383   3.933   3.754 -0.1656 -0.8239 -0.0129
 3292SOL    HW210561   6.417   3.968   3.611 -1.2520  2.0329  0.3770
 3293SOL     OW10562   2.001   1.965   5.037  0.3416  0.1749  0.0730
 3293SOL    HW110563   1.908   1.945   5.028 -0.0387  1.5943  0.5579
 3293SOL    HW210564   2.013   1.980   5.131  0.8957  0.7632 -0.0847
 3294SOL     OW10565   1.727   3.565   3.754  0.3525 -0.1644  0.5191
 3294SOL    HW110566   1.674   3.542   3.830 -1.9400  1.2144 -0.5540
 3294SOL    HW210567   1.664   3.598   3.690  2.3923  0.3207 -1.3562
 3295SOL     OW10568   0.490   0.858   5.243  0.4988 -0.2854  0.6490
 3295SOL    HW110569   0.580   0.827   5.229  0.1860 -0.6784 -0.6250
 3295SOL    HW210570   0.437   0.809   5.180 -0.3476  1.2098  0.1279
 3296SOL     OW10571   5.636   4.993   2.298 -0.2407  0.1188  0.1210
 3296SOL    HW110572   5.634   5.030   2.387  0.6071  0.9804 -0.1999
 3296SOL    HW210573   5.729   4.978   2.280 -0.3050  0.9404 -1.0096
 3297SOL     OW10574   4.156   0.765   4.916  0.5834 -0.1958  0.6855
 3297SOL    HW110575   4.247   0.762   4.946  0.5910 -0.5638  0.6253
 3297SOL    HW210576   4.114   0.690   4.958  0.5515 -0.6158 -0.0722
 3298SOL     OW10577   5.186   5.200   3.626  0.0156 -0.1478 -0.1053
 3298SOL    HW110578   5.095   5.172   3.637  0.1509  0.1433  2.1805
 3298SOL    HW210579   5.181   5.270   3.561 -1.4707  0.2106  0.3456
 3299SOL     OW10580   4.951   3.726   0.447 -0.3893 -0.7740 -0.2877
 3299SOL    HW110581   4.973   3.737   0.354 -0.0270  0.5917 -0.0603
 3299SOL    HW210582   4.856   3.716   0.448 -0.5506  0.4998 -0.7288
 3300SOL     OW10583   1.819   0.812   1.688 -0.0621  0.1556 -0.2074
 3300SOL    HW110584   1.727   0.839   1.692  0.2837  1.7162 -1.7806
 3300SOL    HW210585   1.816   0.716   1.689 -1.6634  0.1852  0.2292
 3301SOL     OW10586   2.530   4.430   0.742  0.4520 -0.3226  0.1811
 3301SOL    HW110587   2.610   4.444   0.691 -0.3924  1.5097 -0.7711
 3301SOL    HW210588   2.560   4.393   0.825  2.5047  1.7187  0.4657
 3302SOL     OW10589   3.122   3.135   3.868  0.0484  0.2722  0.2613
 3302SOL    HW110590   3.188   3.202   3.851  1.1765  0.2485  3.8152
 3302SOL    HW210591   3.067   3.171   3.936 -1.2344 -1.2656  0.1078
 3303SOL     OW10592   4.233   0.374   4.356 -0.0464 -0.4893  0.4602
 3303SOL    HW110593   4.191   0.456   4.327  0.3650 -0.4700 -0.0817
 3303SOL    HW210594   4.321   0.400   4.382 -0.0190 -0.7121  0.5942
 3304SOL     OW10595   5.051   1.436   2.127 -0.0307  0.2819 -0.2385
 3304SOL    HW110596   5.046   1.423   2.222  0.6936 -0.9251 -0.3461
 3304SOL    HW210597   4.968   1.402   2.093  0.1130 -0.1915 -0.1217
 3305SOL     OW10598   4.491   1.511   4.700 -0.0988  0.1585  0.9453
 3305SOL    HW110599   4.544   1.436   4.724  0.9213  0.7894  0.7426
 3305SOL    HW210600   4.528   1.584   4.749 -0.7782  0.6201  0.7983
 3306SOL     OW10601   0.480   3.060   4.107  0.1116  0.1071  0.1361
 3306SOL    HW110602   0.416   3.017   4.163  1.5616 -0.4796  1.3829
 3306SOL    HW210603   0.561   3.013   4.121  1.3190  2.0565  0.1165
 3307SOL     OW10604   1.040   4.668   2.087 -0.8425  0.9115  0.0285
 3307SOL    HW110605   0.992   4.652   2.168 -3.7582  0.4259 -1.6722
 3307SOL    HW210606   1.013   4.756   2.060 -0.4400  0.8038 -0.7481
 3308SOL     OW10607   5.505   0.762   3.200  0.0546 -0.1529 -0.1210
 3308SOL    HW110608   5.523   0.833   3.139 -0.3236 -0.1647 -0.2475
 3308SOL    HW210609   5.410   0.751   3.197 -0.3197  1.5532  2.3764
 3309SOL     OW10610   1.057   2.465   0.945 -0.3801 -0.1979 -0.3283
 3309SOL    HW110611   1.148   2.438   0.940 -0.3263 -0.2955  0.9031
 3309SOL    HW210612   1.060   2.560   0.957 -0.3514 -0.3776  1.3904
 3310SOL     OW10613   5.734   5.752   2.275  0.5700 -0.5834 -0.2163
 3310SOL    HW110614   5.659   5.702   2.310  0.8762 -0.6766  0.3190
 3310SOL    HW210615   5.805   5.735   2.337  1.0172 -0.4325 -0.6788
 3311SOL     OW10616   1.226   1.797   6.133 -0.5380  0.1152 -0.4310
 3311SOL    HW110617   1.168   1.841   6.071  0.8776  0.1213 -1.8115
 3311SOL    HW210618   1.242   1.711   6.094 -0.2256 -0.1779  0.3158
 3312SOL     OW10619   3.907   5.691   2.529 -0.0638 -0.0446 -0.2972
 3312SOL    HW110620   3.852   5.731   2.597 -0.3792 -1.3384  0.2236
 3312SOL    HW210621   3.978   5.649   2.577  0.8619  0.7592 -0.9130
 3313SOL     OW10622   4.086   6.106   1.477 -0.2448  0.2895 -0.2393
 3313SOL    HW110623   3.999   6.136   1.450 -0.7769  0.3178  1.3942
 3313SOL    HW210624   4.121   6.178   1.530  0.4855 -0.0094 -0.3091
 3314SOL     OW10625   3.545   0.049   2.371  0.3711 -0.0125 -0.7171
 3314SOL    HW110626   3.499  -0.034   2.357  0.2369 -0.3738  1.5071
 3314SOL    HW210627   3.626   0.040   2.321 -0.4749 -0.7023 -2.0265
 3315SOL     OW10628   4.703   0.497   5.553 -0.2004 -0.0568  0.1191
 3315SOL    HW110629   4.628   0.490   5.612 -0.0954  0.3152  0.2963
 3315SOL    HW210630   4.682   0.437   5.481  0.3928 -1.7909  1.3077
 3316SOL     OW10631   0.772   0.388   2.879 -0.0310  0.0749  0.0817
 3316SOL    HW110632   0.820   0.320   2.831 -0.4052  0.0157 -0.2077
 3316SOL    HW210633   0.825   0.403   2.958 -0.2761 -1.0170  0.4722
 3317SOL     OW10634   0.256   3.200   3.107 -0.6057  0.2608  1.1246
 3317SOL    HW110635   0.257   3.179   3.201  0.3910  0.8796  1.2638
 3317SOL    HW210636   0.255   3.115   3.064  1.4209 -0.1110  1.6954
 3318SOL     OW10637   5.041   3.218   4.877  0.0048 -0.0551 -0.0581
 3318SOL    HW110638   5.001   3.300   4.848  1.1166  0.6195  0.2451
 3318SOL    HW210639   5.126   3.244   4.912  0.3935 -1.3517  0.0126
 3319SOL     OW10640   2.189   1.904   4.633 -0.4017 -0.0677  0.1155
 3319SOL    HW110641   2.274   1.940   4.608 -0.3303  0.0058  0.4593
 3319SOL    HW210642   2.162   1.956   4.709  0.0755 -1.2599  1.1295
 3320SOL     OW10643   1.666   1.655   1.701 -0.3254  0.3139 -0.1933
 3320SOL    HW110644   1.633   1.733   1.746  2.0702  1.9091 -0.9882
 3320SOL    HW210645   1.719   1.610   1.767 -0.2592  0.3381 -0.2298
 3321SOL     OW10646   2.284   5.568   2.808 -0.8728 -0.4105 -0.5107
 3321SOL    HW110647   2.245   5.504   2.867 -0.5512  1.4185  1.8665
 3321SOL    HW210648   2.377   5.569   2.832 -0.6215 -0.0107 -1.4474
 3322SOL     OW10649   2.357   1.155   4.602  0.0338 -0.2136 -0.4574
 3322SOL    HW110650   2.352   1.061   4.587  1.4047 -0.2823 -0.5449
 3322SOL    HW210651   2.280   1.190   4.556 -0.4464 -1.2727 -0.4863
 3323SOL     OW10652   1.885   1.522   1.237 -0.1625 -0.2090 -0.4173
 3323SOL    HW110653   1.853   1.532   1.327 -0.1568 -1.0929 -0.3054
 3323SOL    HW210654   1.946   1.595   1.225 -2.5372  1.8445 -0.7998
 3324SOL     OW10655   2.671   6.496   2.786  0.3396 -0.6550 -0.2632
 3324SOL    HW110656   2.708   6.429   2.844 -1.7135 -0.3539  1.4863
 3324SOL    HW210657   2.703   6.578   2.821  0.9336 -0.5655 -0.9827
 3325SOL     OW10658   6.124   3.189   6.137 -0.1039  0.0487  0.1053
 3325SOL    HW110659   6.209   3.177   6.093 -0.8723  1.3073 -1.8573
 3325SOL    HW210660   6.060   3.177   6.068 -1.5220 -0.2774  1.4372
 3326SOL     OW10661   0.079   4.543   1.646 -0.5149 -0.0127  0.3924
 3326SOL    HW110662   0.157   4.597   1.641 -0.7465  0.2063 -1.3844
 3326SOL    HW210663   0.015   4.597   1.692  0.4050 -0.2789  2.0514
 3327SOL     OW10664   4.039   1.719   4.778  0.3696 -0.2295 -0.5038
 3327SOL    HW110665   4.034   1.814   4.790  0.6136 -0.2502 -0.2285
 3327SOL    HW210666   3.964   1.698   4.723 -0.6936 -0.0831  0.8264
 3328SOL     OW10667   0.045   0.390   6.324  0.0853 -0.1238  0.3245
 3328SOL    HW110668   0.003   0.443   6.392 -1.1631  0.6098 -0.9697
 3328SOL    HW210669   0.022   0.300   6.347 -1.4005  0.2002  0.1855
 3329SOL     OW10670   5.860   3.503   3.360  0.3024  0.3804 -0.1098
 3329SOL    HW110671   5.949   3.470   3.349  0.6320  0.5140  1.7274
 3329SOL    HW210672   5.809   3.425   3.382 -0.0010  0.3463 -0.8980
 3330SOL     OW10673   2.598   3.701   3.025  0.1248  0.2790  0.1804
 3330SOL    HW110674   2.533   3.749   2.972 -1.4133  0.6066  2.2524
 3330SOL    HW210675   2.546   3.641   3.078  1.7460 -1.0526  0.3486
 3331SOL     OW10676   3.654   1.329   1.142  0.0678  0.5795 -0.0304
 3331SOL    HW110677   3.588   1.273   1.101  1.6178 -1.7853  0.4523
 3331SOL    HW210678   3.737   1.294   1.110  1.1505  2.6526  0.3436
 3332SOL     OW10679   3.007   6.466   2.060 -0.3239  0.4744 -0.6553
 3332SOL    HW110680   3.072   6.521   2.017 -0.1226  1.3930  0.7642
 3332SOL    HW210681   3.053   6.382   2.073  0.5485  1.0558  0.1794
 3333SOL     OW10682   4.084   4.338   0.717 -0.3165  0.0556  0.4513
 3333SOL    HW110683   4.011   4.397   0.734 -0.7093 -0.1859 -0.3662
 3333SOL    HW210684   4.148   4.392   0.670  0.3207  0.4389  1.7061
 3334SOL     OW10685   1.355   5.855   5.769  0.4344  0.1493  0.0165
 3334SOL    HW110686   1.281   5.915   5.782 -0.0194 -0.7015  1.6067
 3334SOL    HW210687   1.345   5.789   5.838  0.0373 -2.6868 -2.5442
 3335SOL     OW10688   3.397   3.345   0.552 -0.3543 -0.6252 -0.0704
 3335SOL    HW110689   3.345   3.280   0.506 -1.6964  0.6464 -0.4402
 3335SOL    HW210690   3.392   3.423   0.497 -0.5853  0.4330  1.3999
 3336SOL     OW10691   2.205   3.542   2.591 -0.4147 -0.5281 -0.1348
 3336SOL    HW110692   2.239   3.593   2.517  1.4055 -2.3030 -0.6354
 3336SOL    HW210693   2.141   3.483   2.552 -1.5820  0.4559  0.2332
 3337SOL     OW10694   1.892   3.693   1.460  0.0024  0.1974 -0.0565
 3337SOL    HW110695   1.808   3.689   1.415 -0.7188 -2.5998  1.3392
 3337SOL    HW210696   1.900   3.609   1.505  3.2988  0.5891  0.3691
 3338SOL     OW10697   4.930   2.374   5.810 -0.0497  0.0780  0.2438
 3338SOL    HW110698   4.996   2.443   5.819  2.6348 -2.4858  1.9903
 3338SOL    HW210699   4.957   2.326   5.731  0.5953 -1.3212  1.2775
 3339SOL     OW10700   2.075   3.725   6.401  0.5015  0.2036  0.2384
 3339SOL    HW110701   2.064   3.646   6.348 -1.3800  0.6945 -0.1632
 3339SOL    HW210702   2.091   3.693   6.489 -0.8521 -0.6420  0.1975
 3340SOL     OW10703   5.330   1.904   1.400  0.1415 -0.0253  0.0488
 3340SOL    HW110704   5.295   1.992   1.404 -2.0345 -0.7769 -1.0606
 3340SOL    HW210705   5.400   1.909   1.334  0.2398  0.8911  0.2066
 3341SOL     OW10706   5.795   5.317   5.980 -0.2095 -0.7516 -0.1308
 3341SOL    HW110707   5.757   5.325   5.893  0.1632 -0.1713 -0.2441
 3341SOL    HW210708   5.752   5.385   6.031  0.2637 -0.4578 -0.1155
 3342SOL     OW10709   1.880   3.006   4.585 -0.5287  0.3369 -0.0998
 3342SOL    HW110710   1.827   2.958   4.649  0.3398  1.5775  1.6128
 3342SOL    HW210711   1.823   3.078   4.557 -0.9610 -0.2860 -0.8905
 3343SOL     OW10712   0.057   2.945   2.976  0.1086 -0.0213 -0.1918
 3343SOL    HW110713   0.146   2.930   3.007 -0.1371 -0.9196  0.1264
 3343SOL    HW210714   0.006   2.964   3.055  0.3733  2.6160 -0.5611
 3344SOL     OW10715   5.732   0.171   5.571  0.0335  0.0747 -0.1223
 3344SOL    HW110716   5.786   0.249   5.560 -0.2178  0.4685  1.1981
 3344SOL    HW210717   5.648   0.205   5.602 -0.1236 -0.7090  0.3238
 3345SOL     OW10718   2.563   3.823   4.034  0.1841  0.4294  0.0993
 3345SOL    HW110719   2.506   3.833   4.110 -0.6589  1.4721 -0.6499
 3345SOL    HW210720   2.567   3.910   3.994  0.1162 -0.2256 -1.4001
 3346SOL     OW10721   5.717   4.217   1.652 -0.0276  0.6794 -0.6330
 3346SOL    HW110722   5.728   4.122   1.664  0.1354  0.5747 -1.5554
 3346SOL    HW210723   5.776   4.256   1.716  1.7951  0.1346 -1.9116
 3347SOL     OW10724   4.735   4.228   2.751 -0.5049 -0.2822  0.5086
 3347SOL    HW110725   4.772   4.292   2.691 -1.3549 -0.2785 -0.0262
 3347SOL    HW210726   4.738   4.145   2.703  2.0136 -1.0216  1.7458
 3348SOL     OW10727   3.187   4.517   3.194  0.2931 -0.2576  0.1493
 3348SOL    HW110728   3.172   4.611   3.204  0.8220 -0.0498 -0.8532
 3348SOL    HW210729   3.273   4.511   3.153 -0.1652 -1.1287 -0.7212
 3349SOL     OW10730   0.819   0.265   0.138 -0.0196 -0.0053 -0.9323
 3349SOL    HW110731   0.778   0.182   0.162 -0.5922  0.5277  0.0041
 3349SOL    HW210732   0.776   0.290   0.057  0.4857 -0.8325 -1.4802
 3350SOL     OW10733   0.556   5.985   2.240 -0.1258 -0.5467  0.0489
 3350SOL    HW110734   0.532   6.018   2.153  0.3054 -1.6696 -0.5063
 3350SOL    HW210735   0.479   6.003   2.294 -0.9023 -0.9859 -0.8738
 3351SOL     OW10736   5.518   5.662   0.519  0.4688 -0.6611  0.1641
 3351SOL    HW110737   5.445   5.703   0.471  1.4274  0.4990 -0.3400
 3351SOL    HW210738   5.520   5.709   0.603  2.5588  1.5724 -1.0017
 3352SOL     OW10739   4.276   4.937   0.936 -0.2698  0.2181  0.3721
 3352SOL    HW110740   4.194   4.939   0.986  0.7553 -0.2480  2.1491
 3352SOL    HW210741   4.270   4.857   0.883 -0.5980 -0.2802  1.1485
 3353SOL     OW10742   6.035   4.023   3.206 -0.8681  0.2759  0.0067
 3353SOL    HW110743   6.094   4.046   3.278  0.4173 -0.9461 -0.6043
 3353SOL    HW210744   6.035   4.101   3.149  2.4048 -0.5713 -1.3934
 3354SOL     OW10745   4.370   0.320   6.310 -0.2125  0.4457 -0.1048
 3354SOL    HW110746   4.327   0.278   6.384 -0.3378  1.8952  0.6789
 3354SOL    HW210747   4.459   0.285   6.311 -0.4512 -0.1699  0.2145
 3355SOL     OW10748   3.078   5.114   1.661 -0.0123 -0.1162  0.1531
 3355SOL    HW110749   3.102   5.089   1.750 -1.9404 -2.2043  0.1534
 3355SOL    HW210750   3.127   5.053   1.605 -1.4926 -1.1911 -0.0244
 3356SOL     OW10751   4.745   3.369   0.957  0.2021  0.1350 -0.0660
 3356SOL    HW110752   4.708   3.294   0.911  2.3880 -0.6077 -0.7336
 3356SOL    HW210753   4.777   3.427   0.887  0.5342  0.6187  0.4712
 3357SOL     OW10754   0.973   0.691   0.927 -0.1826  0.1450  0.9252
 3357SOL    HW110755   0.999   0.666   0.838 -1.1642  1.0511  0.3515
 3357SOL    HW210756   1.054   0.692   0.977  0.5520  0.6601 -0.2388
 3358SOL     OW10757   3.721   3.298   0.030 -0.0322  0.4103 -0.0601
 3358SOL    HW110758   3.715   3.381   0.079 -0.7335  1.3981 -1.7268
 3358SOL    HW210759   3.680   3.233   0.087  0.0055  1.3314  1.0506
 3359SOL     OW10760   0.612   0.369   6.117  0.5877  0.2184 -0.0661
 3359SOL    HW110761   0.593   0.439   6.054 -1.5352 -0.5398 -0.3440
 3359SOL    HW210762   0.531   0.319   6.121  0.5746  0.3258  3.4086
 3360SOL     OW10763   2.071   2.676   0.232 -0.4585  0.0990 -0.2272
 3360SOL    HW110764   2.140   2.696   0.295 -0.4745 -1.1483  0.2138
 3360SOL    HW210765   2.073   2.580   0.224 -0.7680  0.1898 -1.7684
 3361SOL     OW10766   0.625   3.733   0.260 -0.6133 -0.3767 -0.1934
 3361SOL    HW110767   0.655   3.808   0.312 -1.6116 -0.7093  0.8980
 3361SOL    HW210768   0.663   3.748   0.173  0.1227  0.8076  0.3016
 3362SOL     OW10769   0.736   3.350   0.638 -0.3761 -0.4374 -0.0289
 3362SOL    HW110770   0.684   3.274   0.610  2.0951 -1.5050 -2.1076
 3362SOL    HW210771   0.699   3.424   0.591  0.1182 -1.2466 -1.7623
 3363SOL     OW10772   1.560   4.198   5.715  0.4436  0.3083  0.6140
 3363SOL    HW110773   1.471   4.197   5.751  0.6989  0.5360  1.2729
 3363SOL    HW210774   1.616   4.172   5.789  0.9197  0.0998  0.1886
 3364SOL     OW10775   0.471   1.526   5.523 -0.1059 -0.2920  0.1388
 3364SOL    HW110776   0.440   1.436   5.536  1.3371 -0.9775 -0.8134
 3364SOL    HW210777   0.566   1.521   5.539  0.1111  0.8936 -0.6497
 3365SOL     OW10778   1.102   3.196   6.278  0.1620 -0.0121  0.2146
 3365SOL    HW110779   1.152   3.272   6.306  0.5356  0.0784 -0.6716
 3365SOL    HW210780   1.015   3.209   6.316  0.0725  1.1156 -0.3626
 3366SOL     OW10781   5.037   4.190   1.109 -0.2844 -0.3507  0.2267
 3366SOL    HW110782   4.974   4.228   1.170 -0.5990 -0.9954  0.3062
 3366SOL    HW210783   4.989   4.120   1.064  0.0037 -0.0192 -0.6198
 3367SOL     OW10784   2.015   6.157   1.255  0.1447  0.7611  0.3372
 3367SOL    HW110785   1.997   6.149   1.161 -1.2763  2.6613  0.3814
 3367SOL    HW210786   2.110   6.164   1.260  0.5945 -2.8070 -0.5843
 3368SOL     OW10787   5.571   4.187   3.521  0.0214 -0.0534  0.3260
 3368SOL    HW110788   5.573   4.101   3.478  1.2714 -0.9190  2.0103
 3368SOL    HW210789   5.479   4.200   3.544  0.1952 -2.5444  2.9780
 3369SOL     OW10790   4.231   4.468   4.744 -0.1259 -0.2804 -0.0377
 3369SOL    HW110791   4.317   4.507   4.737 -0.2761  0.5183  1.9761
 3369SOL    HW210792   4.245   4.388   4.795 -0.6487  0.1596  0.8067
 3370SOL     OW10793   5.063   5.409   5.150 -0.6119  0.0314  0.1329
 3370SOL    HW110794   4.993   5.469   5.173 -0.1798  0.2528  0.8972
 3370SOL    HW210795   5.119   5.405   5.228  0.3864  0.0949 -0.5562
 3371SOL     OW10796   2.787   0.989   5.442 -0.3438  0.2310  0.3380
 3371SOL    HW110797   2.767   0.937   5.364 -0.5634  0.3852  0.2919
 3371SOL    HW210798   2.868   0.950   5.476 -0.1545  0.2691 -0.0616
 3372SOL     OW10799   0.540   4.087   6.112  0.4254  0.0648 -0.1821
 3372SOL    HW110800   0.503   4.000   6.100  2.1302 -0.6093 -0.8548
 3372SOL    HW210801   0.554   4.095   6.206 -1.0759  0.2185  0.0531
 3373SOL     OW10802   1.670   2.543   1.402  0.2725  0.0417  0.2364
 3373SOL    HW110803   1.628   2.472   1.354  0.5837  0.4184 -0.6177
 3373SOL    HW210804   1.654   2.621   1.348  0.7363  0.4547  0.6854
 3374SOL     OW10805   1.805   4.688   0.519  0.4726 -0.3362 -0.0783
 3374SOL    HW110806   1.728   4.654   0.565  0.6504  0.3119  0.7381
 3374SOL    HW210807   1.797   4.783   0.526  1.2497 -0.2587 -0.1433
 3375SOL     OW10808   6.388   6.179   5.549 -0.4387  0.0605  0.3779
 3375SOL    HW110809   6.400   6.274   5.544  0.6891 -0.1145 -1.1092
 3375SOL    HW210810   6.476   6.144   5.564 -0.5751 -0.8104 -0.6652
 3376SOL     OW10811   0.475   2.955   0.278  0.3969 -1.1260 -0.2442
 3376SOL    HW110812   0.507   2.915   0.197 -0.5700 -1.7329 -0.3497
 3376SOL    HW210813   0.414   3.023   0.248 -0.6863 -1.9819 -0.0373
 3377SOL     OW10814   3.549   5.107   4.852  0.4516  0.2454  0.1608
 3377SOL    HW110815   3.513   5.069   4.772  0.0115  2.0495 -0.5481
 3377SOL    HW210816   3.635   5.141   4.826  0.4530  0.5358  0.5318
 3378SOL     OW10817   3.884   4.172   0.165  0.5651 -0.3942  0.5055
 3378SOL    HW110818   3.913   4.247   0.113 -0.5396  0.5289  1.1765
 3378SOL    HW210819   3.873   4.101   0.101 -1.6561  0.9643 -0.7583
 3379SOL     OW10820   4.129   4.182   0.344 -0.2006 -0.5241  0.9324
 3379SOL    HW110821   4.085   4.241   0.283  0.4730 -0.5845  0.3800
 3379SOL    HW210822   4.097   4.095   0.319  1.5960 -0.7802 -0.7108
 3380SOL     OW10823   5.680   6.389   2.470 -0.4435 -0.1095 -0.5676
 3380SOL    HW110824   5.638   6.303   2.478  0.2795 -0.2655  3.7957
 3380SOL    HW210825   5.641   6.441   2.540  0.3688  2.6487 -2.0349
 3381SOL     OW10826   1.207   4.458   0.478  0.1184 -0.0060  0.3038
 3381SOL    HW110827   1.259   4.408   0.416  0.0513  0.4255 -0.1022
 3381SOL    HW210828   1.134   4.493   0.426 -0.4020 -0.3317  0.7949
 3382SOL     OW10829   2.162   2.741   1.357  0.6789 -0.4676  0.7677
 3382SOL    HW110830   2.137   2.806   1.422 -0.0154  0.2865 -0.2241
 3382SOL    HW210831   2.247   2.709   1.386  2.1713  2.5731  0.0761
 3383SOL     OW10832   0.372   0.620   1.688  0.6139  0.4104 -0.0097
 3383SOL    HW110833   0.467   0.608   1.697  0.2733 -1.3313  2.0953
 3383SOL    HW210834   0.354   0.701   1.735  0.9294  0.0583  0.7335
 3384SOL     OW10835   1.586   3.335   4.003 -0.2727 -0.0336 -0.8100
 3384SOL    HW110836   1.542   3.283   4.070 -0.0581  0.6890 -0.0823
 3384SOL    HW210837   1.555   3.424   4.018  1.9891  0.6604  0.2459
 3385SOL     OW10838   2.928   3.595   3.462 -0.3537 -0.1478 -0.6879
 3385SOL    HW110839   2.983   3.673   3.463 -2.1908  1.2216 -1.0982
 3385SOL    HW210840   2.916   3.574   3.369  0.9842 -1.6227 -0.5823
 3386SOL     OW10841   1.581   3.102   2.525 -0.3569  0.4074 -0.0994
 3386SOL    HW110842   1.545   3.014   2.536  0.0727  0.0435 -1.4163
 3386SOL    HW210843   1.676   3.088   2.525 -0.2978  0.6674 -1.6566
 3387SOL     OW10844   2.578   3.070   0.729 -0.0147 -0.2034  0.3363
 3387SOL    HW110845   2.526   3.150   0.738 -0.4598 -0.6280  1.5929
 3387SOL    HW210846   2.655   3.085   0.784  1.3778  0.4975 -1.6345
 3388SOL     OW10847   1.416   1.468   0.712 -0.1363  0.1970 -0.1128
 3388SOL    HW110848   1.394   1.378   0.685  0.2965 -0.0889  0.4716
 3388SOL    HW210849   1.444   1.459   0.803  1.2881  0.7219 -0.4843
 3389SOL     OW10850   5.427   0.518   2.347 -0.2832  0.3162 -0.2763
 3389SOL    HW110851   5.511   0.482   2.319 -0.6206  0.4667 -1.5180
 3389SOL    HW210852   5.375   0.441   2.371  0.0948  0.2041  0.2104
 3390SOL     OW10853   3.718   5.116   0.206  0.0928  0.3900  0.0091
 3390SOL    HW110854   3.743   5.133   0.297 -2.2122 -0.3932  0.8709
 3390SOL    HW210855   3.770   5.041   0.180  0.1162  0.0482  1.0112
 3391SOL     OW10856   4.863   2.610   3.292 -0.0387  0.3501 -0.3041
 3391SOL    HW110857   4.930   2.544   3.277 -1.1643 -0.8476 -0.2559
 3391SOL    HW210858   4.881   2.642   3.380  1.2678  1.0400 -0.7922
 3392SOL     OW10859   3.205   3.596   3.697 -0.6286 -0.3049 -0.0038
 3392SOL    HW110860   3.245   3.669   3.745 -0.2940 -1.0829  0.9178
 3392SOL    HW210861   3.202   3.627   3.606  1.2123  0.1364  0.0447
 3393SOL     OW10862   0.847   5.214   5.974 -0.3031  0.4980  0.3797
 3393SOL    HW110863   0.897   5.256   5.903  0.3928 -1.9999 -0.7296
 3393SOL    HW210864   0.907   5.212   6.048 -0.7088  2.2989  0.7951
 3394SOL     OW10865   0.181   1.921   1.281  0.4280  0.0355  0.3505
 3394SOL    HW110866   0.094   1.953   1.259  0.7557  0.4936 -0.3086
 3394SOL    HW210867   0.238   1.998   1.276  1.8509 -0.9683 -4.4791
 3395SOL     OW10868   6.473   4.860   2.250  0.4114 -0.0725  1.1907
 3395SOL    HW110869   6.467   4.770   2.216 -0.6550  0.2876  0.3696
 3395SOL    HW210870   6.401   4.866   2.313 -0.3934  0.6142  0.2267
 3396SOL     OW10871   3.181   4.288   5.567 -0.1353 -0.4428  0.3708
 3396SOL    HW110872   3.261   4.287   5.619 -0.3494 -1.0539  0.6987
 3396SOL    HW210873   3.140   4.373   5.587 -0.5911 -0.9633  1.8047
 3397SOL     OW10874   4.389   5.810   1.438 -0.5210  0.6431 -0.0086
 3397SOL    HW110875   4.384   5.899   1.403 -0.0653  1.1237  1.0987
 3397SOL    HW210876   4.306   5.798   1.484 -0.7553  0.3313 -0.5002
 3398SOL     OW10877   2.285   2.854   3.669 -0.0559  0.0432  0.4697
 3398SOL    HW110878   2.294   2.942   3.708  0.1195  0.7284 -1.0444
 3398SOL    HW210879   2.197   2.826   3.695  0.8751 -0.5368  3.2544
 3399SOL     OW10880   1.144   3.721   3.076  0.1331  0.8106 -0.4357
 3399SOL    HW110881   1.124   3.643   3.127  0.4581  1.0071 -0.0062
 3399SOL    HW210882   1.229   3.704   3.036 -0.1001  0.6747 -0.8843
 3400SOL     OW10883   2.429   6.005   2.867  0.5116  0.1624 -0.0194
 3400SOL    HW110884   2.456   6.097   2.876 -0.2209  0.3994 -0.2007
 3400SOL    HW210885   2.361   6.006   2.800 -0.3469 -0.3431  0.8153
 3401SOL     OW10886   6.348   6.447   1.852  0.8069  0.8656  0.1568
 3401SOL    HW110887   6.377   6.442   1.761 -1.1484  0.1349 -0.4781
 3401SOL    HW210888   6.368   6.361   1.889  0.6847  0.8196  0.1169
 3402SOL     OW10889   2.819   6.155   4.713  0.1610  0.3514 -0.2937
 3402SOL    HW110890   2.740   6.209   4.721 -0.5414 -0.6265 -0.3406
 3402SOL    HW210891   2.860   6.184   4.632 -1.4244 -0.6717 -1.5370
 3403SOL     OW10892   5.499   6.010   5.412  0.2657  0.1777 -0.4261
 3403SOL    HW110893   5.458   5.971   5.489 -2.8958  0.1151 -1.9806
 3403SOL    HW210894   5.576   5.956   5.395 -1.1264 -2.2109  0.4622
 3404SOL     OW10895   4.670   6.238   5.585 -0.1434 -0.2534 -0.6930
 3404SOL    HW110896   4.701   6.157   5.545  1.4309  0.7734 -1.6724
 3404SOL    HW210897   4.682   6.224   5.679  2.8925 -0.1635 -0.9772
 3405SOL     OW10898   1.343   5.372   0.153  0.0606  0.2646 -0.0524
 3405SOL    HW110899   1.315   5.317   0.081  2.1912 -0.3601 -0.4876
 3405SOL    HW210900   1.335   5.317   0.231 -0.5423  0.3259 -0.0728
 3406SOL     OW10901   2.488   4.996   6.124  0.0892  0.2847  0.1733
 3406SOL    HW110902   2.520   5.086   6.121 -0.9350  0.6992  0.9517
 3406SOL    HW210903   2.436   4.992   6.204 -0.3900 -0.8275 -0.1739
 3407SOL     OW10904   1.652   4.825   1.168 -0.1700 -0.1107  0.1126
 3407SOL    HW110905   1.748   4.819   1.173 -0.0872  0.9072 -0.0029
 3407SOL    HW210906   1.632   4.812   1.075  0.0313  1.5382 -0.1910
 3408SOL     OW10907   3.136   3.365   4.292 -0.2377  0.1285  0.1731
 3408SOL    HW110908   3.175   3.437   4.244  2.3792 -1.1968  0.1161
 3408SOL    HW210909   3.209   3.325   4.339 -1.9385 -1.2779  1.7918
 3409SOL     OW10910   6.399   4.175   0.603  0.1038  0.5787  0.2245
 3409SOL    HW110911   6.319   4.183   0.550 -0.0977 -0.4663  0.3589
 3409SOL    HW210912   6.393   4.248   0.665 -1.7840 -0.6197  1.5677
 3410SOL     OW10913   3.897   5.042   2.790  0.7970  0.1022 -0.3756
 3410SOL    HW110914   3.847   5.015   2.713 -0.0233  1.5608 -0.3816
 3410SOL    HW210915   3.988   5.022   2.767  0.6609  1.1405 -2.0280
 3411SOL     OW10916   2.458   1.921   3.890 -0.6239 -0.1851 -0.8396
 3411SOL    HW110917   2.536   1.974   3.905 -0.8043 -0.2382  0.3266
 3411SOL    HW210918   2.390   1.963   3.941 -1.3973 -0.1027 -1.9026
 3412SOL     OW10919   0.058   3.739   3.839  0.3710  0.4186 -0.2001
 3412SOL    HW110920   0.042   3.833   3.834 -0.1408  0.3632  0.3395
 3412SOL    HW210921   0.017   3.704   3.760 -0.3505  0.5303  0.1174
 3413SOL     OW10922   5.075   4.437   2.701  0.0842  0.3303 -0.1953
 3413SOL    HW110923   5.051   4.345   2.710  1.4258 -0.0200  0.0043
 3413SOL    HW210924   4.994   4.485   2.716 -0.8951 -0.8549 -1.5194
 3414SOL     OW10925   2.209   0.977   5.856 -0.3379 -0.9586  0.1959
 3414SOL    HW110926   2.286   0.923   5.870 -0.4852 -1.1742  0.1904
 3414SOL    HW210927   2.223   1.055   5.910  1.1986  0.3651 -1.9293
 3415SOL     OW10928   4.948   4.669   1.760  0.2967  0.1909  0.6800
 3415SOL    HW110929   5.005   4.746   1.768  0.7446 -0.1020  0.3598
 3415SOL    HW210930   4.890   4.690   1.687  0.0308  0.4627  0.9647
 3416SOL     OW10931   3.379   6.240   5.674 -0.0723  0.5728  0.1619
 3416SOL    HW110932   3.377   6.145   5.667 -2.0375  0.5565  0.3990
 3416SOL    HW210933   3.461   6.266   5.631 -0.7387 -1.0445 -2.2754
 3417SOL     OW10934   0.506   5.058   6.415 -0.1310 -0.2355  0.1417
 3417SOL    HW110935   0.425   5.108   6.407 -0.2941 -0.6752 -1.0087
 3417SOL    HW210936   0.480   4.967   6.406  0.4730 -0.3899 -0.1179
 3418SOL     OW10937   0.489   4.528   0.069  0.0459 -0.2327 -0.4206
 3418SOL    HW110938   0.446   4.507   0.152 -0.3291  0.6415 -0.3756
 3418SOL    HW210939   0.417   4.539   0.007 -0.0899  3.3581  0.1174
 3419SOL     OW10940   0.136   5.548   0.105  0.2631 -0.8886 -0.3066
 3419SOL    HW110941   0.159   5.560   0.013  1.8358 -1.3273 -0.0184
 3419SOL    HW210942   0.104   5.458   0.110  1.6007 -1.3910 -0.2178
 3420SOL     OW10943   0.301   6.296   2.090 -0.0215 -0.5248  0.4132
 3420SOL    HW110944   0.212   6.283   2.124 -0.0590  0.5759  0.7611
 3420SOL    HW210945   0.348   6.339   2.161  0.9493 -1.5393  0.4142
 3421SOL     OW10946   0.556   2.775   6.245  0.3757 -0.0692 -0.2874
 3421SOL    HW110947   0.639   2.769   6.197  0.6552  1.6690 -0.0990
 3421SOL    HW210948   0.524   2.863   6.225 -2.0336 -1.0887 -1.3009
 3422SOL     OW10949   4.842   2.290   2.445  0.2684 -0.3474 -0.3834
 3422SOL    HW110950   4.838   2.351   2.519  1.7998 -1.1600  0.4270
 3422SOL    HW210951   4.935   2.287   2.422  0.0530 -1.4682 -1.1788
 3423SOL     OW10952   5.262   5.992   3.673 -0.0951 -0.0235  0.0000
 3423SOL    HW110953   5.198   6.062   3.684  1.1894  0.7524  3.8115
 3423SOL    HW210954   5.319   6.022   3.602  0.1866  2.6961  1.2741
 3424SOL     OW10955   3.306   6.407   6.338 -0.1643  0.6663 -1.0235
 3424SOL    HW110956   3.305   6.463   6.260  1.7565 -0.2607 -1.7783
 3424SOL    HW210957   3.331   6.321   6.305  0.6123  0.2310  0.6131
 3425SOL     OW10958   1.120   2.947   1.414  0.6893  0.1369 -0.5731
 3425SOL    HW110959   1.067   3.019   1.447 -0.5575 -1.4008  1.0054
 3425SOL    HW210960   1.203   2.953   1.461 -0.6029 -1.2803  2.1352
 3426SOL     OW10961   3.878   0.219   0.073  0.3125  0.1450  0.0327
 3426SOL    HW110962   3.950   0.274   0.104  1.2475  0.3122 -2.2784
 3426SOL    HW210963   3.806   0.279   0.058  0.4123  0.3062  0.1956
 3427SOL     OW10964   2.332   4.524   6.245  0.1075 -0.2746  0.7103
 3427SOL    HW110965   2.426   4.536   6.235 -0.2491  1.0860 -1.4654
 3427SOL    HW210966   2.313   4.442   6.199 -0.2219  1.3338 -2.2210
 3428SOL     OW10967   3.853   6.238   0.337  0.5126  0.0754  0.7958
 3428SOL    HW110968   3.949   6.230   0.334  0.4563 -0.8413  1.3016
 3428SOL    HW210969   3.822   6.178   0.269  0.3771  3.1305 -2.1176
 3429SOL     OW10970   3.582   3.293   3.211  0.0854  0.2872 -0.1137
 3429SOL    HW110971   3.647   3.265   3.275  1.6573  3.2985 -0.2130
 3429SOL    HW210972   3.507   3.322   3.263 -1.4792 -3.4345 -0.0043
 3430SOL     OW10973   3.774   5.595   3.074 -0.0247  0.0939 -0.1202
 3430SOL    HW110974   3.792   5.539   2.998  0.7427  0.4298 -0.1902
 3430SOL    HW210975   3.687   5.632   3.056 -0.0277 -0.1499 -0.6357
 3431SOL     OW10976   4.047   5.719   5.910  0.1143  0.0741  0.6282
 3431SOL    HW110977   3.975   5.669   5.948  1.3369 -0.1227  2.8661
 3431SOL    HW210978   4.098   5.654   5.861 -1.4218  0.3117 -1.4397
 3432SOL     OW10979   4.740   3.710   5.984 -0.5933  0.3700 -0.2431
 3432SOL    HW110980   4.657   3.667   5.964  0.4465 -0.9927 -1.9882
 3432SOL    HW210981   4.751   3.698   6.078 -0.6693 -2.7606 -0.5386
 3433SOL     OW10982   0.420   4.054   2.801 -0.3590  0.3201 -0.1472
 3433SOL    HW110983   0.412   4.102   2.719  2.1828  0.0697 -0.6075
 3433SOL    HW210984   0.489   4.100   2.849  1.3863 -2.1085 -0.1254
 3434SOL     OW10985   5.179   4.640   5.302 -0.7385  0.0079 -0.1975
 3434SOL    HW110986   5.239   4.714   5.296  0.8133 -1.1075  0.9952
 3434SOL    HW210987   5.220   4.571   5.251 -1.3227 -0.5841  0.1108
 3435SOL     OW10988   3.627   2.202   3.357  0.4835  0.7429 -0.0512
 3435SOL    HW110989   3.709   2.200   3.407 -0.4333 -0.1542  1.5176
 3435SOL    HW210990   3.583   2.282   3.386 -0.2525 -0.0060  0.9912
 3436SOL     OW10991   1.525   1.619   5.495  0.1385 -0.3101 -0.5356
 3436SOL    HW110992   1.457   1.559   5.524 -0.1928  0.4798  0.3863
 3436SOL    HW210993   1.502   1.639   5.405 -0.2589 -0.8654 -0.5644
 3437SOL     OW10994   0.469   4.380   4.373  0.3335  0.1579 -0.4148
 3437SOL    HW110995   0.441   4.327   4.447  2.6197 -0.2985  0.2048
 3437SOL    HW210996   0.502   4.318   4.309  2.3492  0.7265  0.0073
 3438SOL     OW10997   2.090   0.353   3.656 -0.1799 -0.5336  0.7285
 3438SOL    HW110998   2.180   0.376   3.632 -0.1005  0.6447  2.0192
 3438SOL    HW210999   2.090   0.258   3.661  0.6858 -0.6145 -0.4486
 3439SOL     OW11000   2.891   4.385   3.561 -0.0521  0.3674  0.5385
 3439SOL    HW111001   2.956   4.315   3.567 -0.5356 -0.1303  0.0312
 3439SOL    HW211002   2.824   4.351   3.502  0.2812  1.7215 -0.6890
 3440SOL     OW11003   5.987   6.057   1.262  0.6630  0.5583 -0.0661
 3440SOL    HW111004   5.919   6.030   1.200  0.5940  1.0250 -0.1968
 3440SOL    HW211005   5.968   6.008   1.341 -0.4718  1.4538  0.2521
 3441SOL     OW11006   2.978   4.353   0.468  0.4718  0.5907 -0.0440
 3441SOL    HW111007   2.962   4.425   0.406 -1.0216  1.5070  1.3251
 3441SOL    HW211008   3.074   4.352   0.478  0.5181  3.0705  0.6017
 3442SOL     OW11009   1.849   2.571   5.055  0.4137 -0.6465  0.2267
 3442SOL    HW111010   1.766   2.591   5.097  0.8297 -0.3889  0.9505
 3442SOL    HW211011   1.913   2.625   5.102  0.8010  0.1757 -1.1836
 3443SOL     OW11012   3.012   2.950   0.586  0.0321  0.0003 -0.3586
 3443SOL    HW111013   2.949   2.907   0.528  0.3617  0.9321 -1.4253
 3443SOL    HW211014   2.990   2.917   0.673 -1.1833 -0.5770 -0.8649
 3444SOL     OW11015   0.710   0.748   0.894 -0.1193  0.0988 -0.2782
 3444SOL    HW111016   0.747   0.797   0.821  0.9024  1.2604  0.9544
 3444SOL    HW211017   0.787   0.709   0.938 -0.6907 -0.4456  0.2609
 3445SOL     OW11018   2.255   3.166   5.508  0.1949 -0.0317  0.0769
 3445SOL    HW111019   2.172   3.117   5.510  0.3631 -0.4451 -1.4232
 3445SOL    HW211020   2.294   3.142   5.424  0.3219  2.6597 -0.7198
 3446SOL     OW11021   4.178   3.804   6.068  0.1224  0.0994  0.2273
 3446SOL    HW111022   4.269   3.825   6.046 -0.1281 -0.0404 -1.0341
 3446SOL    HW211023   4.138   3.888   6.091 -0.1305  0.6693 -1.9902
 3447SOL     OW11024   2.597   2.975   2.755 -0.2773  0.5052 -0.3505
 3447SOL    HW111025   2.510   3.015   2.747 -0.6942 -0.1415  0.7301
 3447SOL    HW211026   2.580   2.889   2.794  0.7967  0.1205 -0.6953
 3448SOL     OW11027   3.014   2.080   1.900 -0.0469  0.0166  0.5839
 3448SOL    HW111028   2.934   2.115   1.861  0.0659 -0.0965  0.2496
 3448SOL    HW211029   3.036   2.005   1.845  0.4684  0.2428  0.4791
 3449SOL     OW11030   1.297   1.226   0.690 -0.1852  0.2342  0.0697
 3449SOL    HW111031   1.242   1.181   0.625 -0.0153 -0.9806  0.7502
 3449SOL    HW211032   1.366   1.164   0.710  1.3187  1.6355 -0.5468
 3450SOL     OW11033   2.899   1.839   1.172  0.3275  0.1220  0.5034
 3450SOL    HW111034   2.893   1.934   1.165 -1.6360  0.2776  2.7475
 3450SOL    HW211035   2.826   1.807   1.119  1.5316 -0.2590 -1.0049
 3451SOL     OW11036   1.521   1.075   3.458  0.3259 -0.0962  0.2130
 3451SOL    HW111037   1.479   1.077   3.544 -0.1853 -2.2701  0.0655
 3451SOL    HW211038   1.449   1.058   3.397  0.9871 -0.7167 -0.4054
 3452SOL     OW11039   3.645   2.668   4.493  0.0011  0.6048 -0.3083
 3452SOL    HW111040   3.710   2.603   4.467 -0.6638  0.1162 -0.7939
 3452SOL    HW211041   3.684   2.713   4.568  0.4113 -0.4436  0.1229
 3453SOL     OW11042   3.363   4.825   5.329  0.0275  0.1674 -0.4065
 3453SOL    HW111043   3.425   4.861   5.392  0.3282 -1.6963  0.4373
 3453SOL    HW211044   3.357   4.732   5.352 -1.4168 -0.1411 -1.8573
 3454SOL     OW11045   1.235   0.685   1.902 -0.6642  0.4226 -0.2292
 3454SOL    HW111046   1.306   0.644   1.853  0.4342  1.5864  0.3050
 3454SOL    HW211047   1.162   0.624   1.896  0.8088 -1.5064  0.3778
 3455SOL     OW11048   1.531   5.951   3.970 -0.7807 -0.1888 -0.2512
 3455SOL    HW111049   1.564   6.040   3.985 -0.6492 -0.2704 -0.0491
 3455SOL    HW211050   1.575   5.898   4.037 -1.5839 -0.2415  0.2485
 3456SOL     OW11051   3.624   3.454   3.845  0.0752  0.4880  0.1542
 3456SOL    HW111052   3.627   3.398   3.923  0.2218 -1.5652 -1.2393
 3456SOL    HW211053   3.574   3.403   3.782  1.0920  1.5046 -1.5381
 3457SOL     OW11054   1.594   6.241   0.721  0.3349 -0.3423  0.0159
 3457SOL    HW111055   1.522   6.183   0.745  1.3432 -1.2644  0.9770
 3457SOL    HW211056   1.598   6.237   0.625 -1.3244  0.3128 -0.1026
 3458SOL     OW11057   1.290   4.697   3.342  0.0315 -0.1172  0.3085
 3458SOL    HW111058   1.289   4.755   3.266  2.4436 -0.7475 -0.3020
 3458SOL    HW211059   1.223   4.733   3.401 -2.6825 -0.2070 -2.4817
 3459SOL     OW11060   6.257   5.014   6.056 -0.2406 -0.2902  0.2070
 3459SOL    HW111061   6.274   5.074   5.983  0.9311 -0.6602  0.1533
 3459SOL    HW211062   6.180   5.051   6.099  1.2213  2.0976  1.0160
 3460SOL     OW11063   0.515   6.140   2.004 -0.0006 -0.1171 -0.1198
 3460SOL    HW111064   0.438   6.177   2.048 -0.5970  0.2453 -1.4095
 3460SOL    HW211065   0.496   6.150   1.911  3.0855  3.1818 -0.6135
 3461SOL     OW11066   2.612   3.331   2.069  0.4676  0.4729  0.1383
 3461SOL    HW111067   2.657   3.254   2.104  1.2135  0.4698 -0.7880
 3461SOL    HW211068   2.592   3.308   1.979  0.8121  1.4166 -0.1887
 3462SOL     OW11069   5.930   6.265   5.410 -0.7572  0.2842  0.0741
 3462SOL    HW111070   5.982   6.242   5.487  0.0909  0.5278 -0.4078
 3462SOL    HW211071   5.979   6.336   5.368 -1.5028  0.5436 -0.3840
 3463SOL     OW11072   3.002   3.580   2.559 -0.3282  0.1504 -0.0691
 3463SOL    HW111073   3.080   3.527   2.578  0.3748  1.2844  0.3712
 3463SOL    HW211074   2.931   3.536   2.604  0.4382  0.1408  1.1754
 3464SOL     OW11075   3.067   2.472   4.556 -0.0097 -0.0191 -0.1516
 3464SOL    HW111076   3.143   2.458   4.612 -0.3809 -2.7675 -0.1962
 3464SOL    HW211077   3.022   2.387   4.555 -0.8424  0.3370 -3.3829
 3465SOL     OW11078   1.462   6.121   6.003  0.7956 -0.0649 -0.1325
 3465SOL    HW111079   1.420   6.171   5.933  1.2414 -1.0947 -1.1746
 3465SOL    HW211080   1.412   6.040   6.009 -0.5942  0.8929  2.2963
 3466SOL     OW11081   3.954   5.363   4.275 -0.2459 -0.0554  0.1890
 3466SOL    HW111082   3.991   5.302   4.211  2.0549  0.4838  0.9171
 3466SOL    HW211083   4.005   5.443   4.264  0.0022  0.1487  2.4916
 3467SOL     OW11084   2.599   2.639   4.084 -0.0733 -0.4936  0.0995
 3467SOL    HW111085   2.599   2.617   3.991 -0.3228  2.9475 -0.8392
 3467SOL    HW211086   2.672   2.699   4.095 -1.5615  1.1608  1.5366
 3468SOL     OW11087   4.205   3.308   6.422  0.2877 -0.1591  0.3382
 3468SOL    HW111088   4.235   3.234   6.370  0.8221  1.4341 -1.7513
 3468SOL    HW211089   4.110   3.304   6.418  0.2995 -0.9076  0.5745
 3469SOL     OW11090   2.971   5.843   1.451  0.2029  0.0004 -0.5535
 3469SOL    HW111091   2.950   5.844   1.544  0.1887  0.5734 -0.5615
 3469SOL    HW211092   2.896   5.884   1.408  0.9151  1.2283 -0.6637
 3470SOL     OW11093   4.450   6.413   2.710  0.0371 -0.8361 -0.0160
 3470SOL    HW111094   4.419   6.372   2.791 -1.2901  1.8227  0.9353
 3470SOL    HW211095   4.541   6.384   2.702  0.0571 -1.5700  2.1664
 3471SOL     OW11096   5.026   3.503   4.185  0.2496  0.6413 -0.0672
 3471SOL    HW111097   4.948   3.448   4.189 -0.1974  0.9912 -2.5619
 3471SOL    HW211098   5.047   3.521   4.277 -1.4949 -0.9731  0.7167
 3472SOL     OW11099   0.566   4.802   0.158  0.1491 -0.3479 -0.6934
 3472SOL    HW111100   0.498   4.830   0.097  0.2257  1.0423 -0.1778
 3472SOL    HW211101   0.560   4.707   0.159 -0.3352 -0.3553 -2.3006
 3473SOL     OW11102   1.887   2.866   3.040 -0.0825  0.0538 -0.0407
 3473SOL    HW111103   1.829   2.940   3.026 -1.9725 -0.7192  2.8266
 3473SOL    HW211104   1.975   2.903   3.035 -0.9474  2.4294  0.8068
 3474SOL     OW11105   4.325   2.006   4.353  0.0685 -0.5143 -0.2421
 3474SOL    HW111106   4.408   2.035   4.315  0.6933  0.3781  1.6417
 3474SOL    HW211107   4.351   1.944   4.422 -0.4408  2.2921  2.7131
 3475SOL     OW11108   4.100   4.366   3.851  0.3130 -0.5411 -0.3597
 3475SOL    HW111109   4.154   4.358   3.772  1.1032 -1.3626  0.2336
 3475SOL    HW211110   4.163   4.375   3.922 -0.3995  0.5832  0.1586
 3476SOL     OW11111   2.719   3.867   2.261  0.5145 -0.4546  0.3073
 3476SOL    HW111112   2.809   3.874   2.230  0.8279 -0.1727  1.2542
 3476SOL    HW211113   2.670   3.838   2.184  0.7657  2.9046 -1.2909
 3477SOL     OW11114   3.854   4.631   3.424 -0.2978  0.4748  0.1292
 3477SOL    HW111115   3.851   4.580   3.343 -1.0203 -0.0111  0.4488
 3477SOL    HW211116   3.782   4.597   3.476 -0.7892  1.8277  0.3644
 3478SOL     OW11117   4.015   2.210   5.605 -0.4553  0.1712  0.0064
 3478SOL    HW111118   4.012   2.247   5.516  0.9011  0.7729  0.1768
 3478SOL    HW211119   4.092   2.154   5.604  0.0690  0.8470  1.0304
 3479SOL     OW11120   4.976   4.641   3.239  0.0195 -0.0342  0.7005
 3479SOL    HW111121   4.987   4.552   3.206  0.5394  0.2211  0.1692
 3479SOL    HW211122   4.925   4.686   3.171  0.3876  0.2696  0.6241
 3480SOL     OW11123   1.459   5.009   2.571  0.4688  0.1424  0.1469
 3480SOL    HW111124   1.443   4.932   2.627  1.3396 -0.6134 -0.5955
 3480SOL    HW211125   1.537   5.049   2.609  0.5233  0.1571  0.0169
 3481SOL     OW11126   2.337   3.472   2.183 -0.3355  0.2390 -0.1796
 3481SOL    HW111127   2.330   3.381   2.153  0.3323 -0.5363  1.8440
 3481SOL    HW211128   2.413   3.506   2.136  0.7183 -0.9480  0.5789
 3482SOL     OW11129   0.757   2.301   2.398 -0.0214  0.2999  0.1100
 3482SOL    HW111130   0.692   2.231   2.400  0.0832  0.2037  0.1452
 3482SOL    HW211131   0.709   2.377   2.364  0.2412 -0.2025 -1.5108
 3483SOL     OW11132   2.090   2.389   0.230  0.2599 -0.3390 -0.1218
 3483SOL    HW111133   2.086   2.358   0.139 -0.5544 -1.3456  0.2361
 3483SOL    HW211134   2.141   2.322   0.275 -1.1106 -0.9633  0.5663
 3484SOL     OW11135   3.303   5.864   1.385 -0.0900 -0.2919 -0.1610
 3484SOL    HW111136   3.316   5.777   1.348  0.0245 -0.0860 -0.6112
 3484SOL    HW211137   3.208   5.878   1.382 -0.0529 -0.1351 -0.7102
 3485SOL     OW11138   4.752   1.035   1.190 -0.3102 -0.1196 -0.0276
 3485SOL    HW111139   4.844   1.044   1.215 -0.3353 -0.6308  0.2437
 3485SOL    HW211140   4.703   1.057   1.269 -0.4331  0.2937 -0.2109
 3486SOL     OW11141   4.757   3.406   4.249 -0.1047 -0.0295 -0.2661
 3486SOL    HW111142   4.782   3.406   4.342  3.9102  1.2691 -1.1417
 3486SOL    HW211143   4.747   3.498   4.227 -2.2214 -0.3783 -0.9367
 3487SOL     OW11144   3.613   3.288   1.078 -0.2800 -0.6843  0.2733
 3487SOL    HW111145   3.584   3.258   0.992  1.3774 -1.1986 -0.1463
 3487SOL    HW211146   3.567   3.231   1.140 -0.5699 -1.1145 -0.3291
 3488SOL     OW11147   4.593   5.010   3.626  0.4275  0.8363 -0.1167
 3488SOL    HW111148   4.530   4.956   3.579 -0.2532  1.8536 -0.4005
 3488SOL    HW211149   4.648   4.947   3.673 -1.6755 -0.0666  1.2720
 3489SOL     OW11150   2.988   5.357   3.853  0.6117  0.2950  0.1304
 3489SOL    HW111151   3.038   5.390   3.779  0.7452 -0.0578  0.0576
 3489SOL    HW211152   2.931   5.290   3.816  1.1134 -0.3209  0.4267
 3490SOL     OW11153   5.884   3.939   1.951  0.5711  0.2255 -0.3737
 3490SOL    HW111154   5.873   3.937   2.046  0.7752 -0.7339 -0.3647
 3490SOL    HW211155   5.834   4.016   1.923 -2.3359 -1.3414  0.1276
 3491SOL     OW11156   5.365   2.692   4.256 -0.6824  0.7159  0.4304
 3491SOL    HW111157   5.307   2.737   4.194  0.1983 -0.5026 -1.3723
 3491SOL    HW211158   5.453   2.717   4.228 -0.2301  2.0087  2.7073
 3492SOL     OW11159   1.422   3.194   4.668 -0.2212 -0.4080  0.4732
 3492SOL    HW111160   1.414   3.194   4.763 -4.5352 -0.0174  0.3033
 3492SOL    HW211161   1.415   3.286   4.643 -0.4324 -0.6168 -0.2650
 3493SOL     OW11162   3.734   3.938   1.368  0.2294 -0.1869  0.2182
 3493SOL    HW111163   3.684   4.017   1.391 -1.2837 -1.2212  0.6593
 3493SOL    HW211164   3.781   3.915   1.448 -1.3829 -1.1576  0.9422
 3494SOL     OW11165   4.701   1.603   3.312  0.4669  0.1282 -0.0670
 3494SOL    HW111166   4.734   1.513   3.308 -0.0643 -0.0923  0.3981
 3494SOL    HW211167   4.779   1.657   3.323  0.7888 -0.2773 -0.3320
 3495SOL     OW11168   6.019   2.564   1.104 -0.4085  0.1050 -0.2695
 3495SOL    HW111169   5.930   2.586   1.131 -0.7569  2.3773 -2.7815
 3495SOL    HW211170   6.075   2.618   1.160 -0.6880 -0.2042  0.3126
 3496SOL     OW11171   3.732   2.154   0.486 -0.1244 -0.3111 -0.1580
 3496SOL    HW111172   3.726   2.110   0.401 -0.9722  1.4757 -1.0842
 3496SOL    HW211173   3.826   2.161   0.503  0.0436 -1.2613 -0.6037
 3497SOL     OW11174   0.197   0.656   2.869 -0.0963 -0.5606  0.2008
 3497SOL    HW111175   0.251   0.593   2.821 -1.0891  0.5169 -2.5755
 3497SOL    HW211176   0.248   0.737   2.868 -0.4520 -0.3320  0.2974
 3498SOL     OW11177   2.898   2.841   2.084 -0.0257 -0.1453 -0.4830
 3498SOL    HW111178   2.950   2.787   2.143 -1.1201 -0.7742 -0.0697
 3498SOL    HW211179   2.904   2.796   1.999 -2.2019 -1.8612  0.1956
 3499SOL     OW11180   2.836   5.947   1.714 -0.5980 -0.1442 -0.3794
 3499SOL    HW111181   2.789   5.911   1.789  0.8282  0.0589  0.6648
 3499SOL    HW211182   2.818   6.041   1.717  2.4432  0.5586  2.1382
 3500SOL     OW11183   1.003   1.884   5.634  0.1943  0.1378 -0.1196
 3500SOL    HW111184   0.925   1.837   5.604  0.9505 -0.8764 -0.5207
 3500SOL    HW211185   1.051   1.821   5.687  0.5491  0.8850  0.4708
 3501SOL     OW11186   3.205   1.365   5.939 -0.4031  0.2701  0.1506
 3501SOL    HW111187   3.245   1.416   5.868  0.9094  0.4152  0.9469
 3501SOL    HW211188   3.112   1.385   5.934 -0.2966  0.5436 -1.3042
 3502SOL     OW11189   3.349   1.271   4.347  0.6084 -0.2273  0.0682
 3502SOL    HW111190   3.423   1.322   4.379 -0.2188  1.3799 -0.4704
 3502SOL    HW211191   3.312   1.323   4.277 -1.5552 -0.5571  0.8716
 3503SOL     OW11192   5.604   6.159   4.473  0.1507  0.0687 -0.7014
 3503SOL    HW111193   5.643   6.245   4.486  0.3034 -0.1385  0.3100
 3503SOL    HW211194   5.676   6.098   4.487 -0.0770 -0.2416 -0.8623
 3504SOL     OW11195   2.517   2.693   2.897 -0.2067 -0.5109  0.4434
 3504SOL    HW111196   2.467   2.650   2.828  0.0716  1.4314 -1.0408
 3504SOL    HW211197   2.602   2.713   2.856 -0.1842  1.0448  1.1742
 3505SOL     OW11198   5.532   2.550   2.054 -0.0761 -0.3328  0.1458
 3505SOL    HW111199   5.596   2.487   2.021  0.7964  0.0784  0.9953
 3505SOL    HW211200   5.451   2.500   2.064  0.5102 -1.2344  0.4775
 3506SOL     OW11201   3.821   1.907   2.444  0.0526 -0.5148  0.9799
 3506SOL    HW111202   3.787   1.818   2.443  0.3060 -0.6713 -2.1061
 3506SOL    HW211203   3.805   1.941   2.356  1.7088  1.8136  1.4527
 3507SOL     OW11204   6.188   0.458   0.918 -0.0356  0.2325  0.2965
 3507SOL    HW111205   6.128   0.474   0.991 -0.5399 -0.6966  0.0983
 3507SOL    HW211206   6.243   0.536   0.915 -0.2289  0.4312  1.4539
 3508SOL     OW11207   5.630   5.403   0.030  0.8116  0.3638  0.4269
 3508SOL    HW111208   5.710   5.455   0.024  1.5005 -0.5019  1.6477
 3508SOL    HW211209   5.649   5.336   0.096 -0.7206 -0.2284  0.3254
 3509SOL     OW11210   5.151   1.825   2.929  0.5817 -0.4456  0.0499
 3509SOL    HW111211   5.198   1.862   2.855 -0.5399 -0.6760 -0.8158
 3509SOL    HW211212   5.137   1.734   2.905 -0.5408 -0.3120  0.1432
 3510SOL     OW11213   6.195   3.519   3.528  0.0680 -0.4332  0.8618
 3510SOL    HW111214   6.150   3.598   3.498  1.4652  0.5597  1.2393
 3510SOL    HW211215   6.187   3.457   3.456  1.9358  1.3008 -0.9562
 3511SOL     OW11216   6.489   4.967   6.316 -0.1075  0.3585 -0.3015
 3511SOL    HW111217   6.518   5.058   6.310  1.2667 -0.0555 -0.4258
 3511SOL    HW211218   6.499   4.933   6.226 -0.3034  0.0086 -0.1917
 3512SOL     OW11219   0.941   3.436   2.684 -0.2680  0.0377 -0.0170
 3512SOL    HW111220   0.901   3.394   2.608 -1.0902  0.1085  0.3695
 3512SOL    HW211221   0.867   3.461   2.740  0.3497 -0.5904  1.1143
 3513SOL     OW11222   5.381   5.482   3.839 -0.2125 -0.1343 -0.2923
 3513SOL    HW111223   5.387   5.561   3.893 -1.5884  0.3381 -0.7791
 3513SOL    HW211224   5.318   5.505   3.770  0.4812 -1.1718 -1.3056
 3514SOL     OW11225   4.490   2.063   6.179 -0.4025 -0.3852 -0.2999
 3514SOL    HW111226   4.509   2.085   6.088 -2.3397  2.1683 -0.1895
 3514SOL    HW211227   4.551   2.116   6.229 -0.5009 -0.4643 -0.0963
 3515SOL     OW11228   1.239   5.301   5.659  0.1218 -0.2475  0.6163
 3515SOL    HW111229   1.282   5.257   5.586 -0.2325 -0.4418  0.5216
 3515SOL    HW211230   1.284   5.385   5.666 -0.5908  0.2604 -0.5768
 3516SOL     OW11231   0.187   5.138   3.587 -0.0683 -0.3598  0.8118
 3516SOL    HW111232   0.206   5.044   3.581 -0.6486 -0.4448  0.2048
 3516SOL    HW211233   0.136   5.148   3.667 -0.0813 -0.5702  0.8291
 3517SOL     OW11234   2.791   6.205   5.040  0.5532  0.0832  0.0170
 3517SOL    HW111235   2.771   6.167   4.954 -0.7269  0.2728  0.2034
 3517SOL    HW211236   2.715   6.261   5.059 -0.2493 -1.6002  2.2359
 3518SOL     OW11237   4.319   1.780   1.197 -0.9519  0.2208 -0.2268
 3518SOL    HW111238   4.314   1.836   1.120 -0.0055 -0.7911 -1.0686
 3518SOL    HW211239   4.367   1.832   1.262 -0.6474  0.6242 -0.7697
 3519SOL     OW11240   5.980   3.980   5.564  0.0071  0.0045  0.0916
 3519SOL    HW111241   5.943   3.946   5.482 -1.8997 -1.2013  1.4040
 3519SOL    HW211242   6.000   4.072   5.544 -0.0645 -0.3429 -1.8240
 3520SOL     OW11243   0.313   0.707   4.257 -0.6155 -0.1693 -0.0711
 3520SOL    HW111244   0.332   0.799   4.238  0.1028 -0.7336 -2.3789
 3520SOL    HW211245   0.283   0.671   4.173 -2.0257 -1.7886  1.0649
 3521SOL     OW11246   6.113   2.925   2.234 -0.0174 -0.1677 -0.0001
 3521SOL    HW111247   6.135   2.833   2.248 -2.0148 -0.8817 -1.1316
 3521SOL    HW211248   6.054   2.946   2.306  1.4957  0.6754  1.0346
 3522SOL     OW11249   0.673   1.825   1.725 -0.0668 -0.0229  0.5862
 3522SOL    HW111250   0.738   1.891   1.698 -0.2161 -0.7540 -1.8317
 3522SOL    HW211251   0.658   1.774   1.646 -1.4687 -1.7020  1.8763
 3523SOL     OW11252   3.309   0.464   6.157  0.0787  0.0322 -0.1022
 3523SOL    HW111253   3.249   0.472   6.083  2.2231 -1.6663 -2.1828
 3523SOL    HW211254   3.391   0.501   6.126  1.0754 -0.7984  1.4024
 3524SOL     OW11255   4.819   2.636   0.136  0.2240  0.4706 -0.3901
 3524SOL    HW111256   4.788   2.648   0.046  1.7254  0.8420 -0.8824
 3524SOL    HW211257   4.914   2.631   0.128  0.5557  2.5892  1.3932
 3525SOL     OW11258   2.178   2.439   5.322 -0.6104 -0.2955 -0.0645
 3525SOL    HW111259   2.089   2.416   5.297 -0.7125  0.1781 -0.1355
 3525SOL    HW211260   2.210   2.494   5.251 -0.8121  0.8371  0.6853
 3526SOL     OW11261   4.600   0.142   6.360  0.1245 -0.4440  0.6786
 3526SOL    HW111262   4.658   0.123   6.287  0.0554 -0.9284  0.7490
 3526SOL    HW211263   4.535   0.072   6.358 -0.6452  0.2578  0.4118
 3527SOL     OW11264   1.819   1.651   0.075 -0.6609  0.0718 -0.1181
 3527SOL    HW111265   1.865   1.736   0.074 -0.5387  0.0057 -0.5300
 3527SOL    HW211266   1.842   1.613   0.160  0.1701 -0.0198 -0.3722
 3528SOL     OW11267   1.728   2.432   1.008  0.4306  0.3389 -0.2470
 3528SOL    HW111268   1.673   2.474   0.943  0.7112 -1.4515 -1.7252
 3528SOL    HW211269   1.811   2.479   1.005  0.4983  0.1615 -1.3352
 3529SOL     OW11270   4.696   2.448   4.023 -0.3694 -0.1935 -0.1177
 3529SOL    HW111271   4.611   2.460   4.064 -0.1610  1.6149 -0.1243
 3529SOL    HW211272   4.746   2.394   4.085 -1.7864 -2.1389 -0.5702
 3530SOL     OW11273   0.795   6.105   2.049  0.5911  0.1630  0.6745
 3530SOL    HW111274   0.842   6.183   2.021 -0.9199  0.2308 -1.9605
 3530SOL    HW211275   0.702   6.128   2.038 -0.0873 -0.7438  3.5094
 3531SOL     OW11276   3.516   4.302   0.960  0.3215 -0.0506  0.7026
 3531SOL    HW111277   3.463   4.283   0.882 -2.1343  4.5846  0.9280
 3531SOL    HW211278   3.563   4.382   0.938  1.5863 -0.0446  3.1346
 3532SOL     OW11279   3.334   3.788   1.318 -0.0688  0.1417 -0.3882
 3532SOL    HW111280   3.417   3.776   1.273  0.2428 -1.2940  0.4863
 3532SOL    HW211281   3.270   3.802   1.247  0.1904 -3.2278 -1.5039
 3533SOL     OW11282   1.965   0.608   3.321 -0.0987 -0.2966 -0.2992
 3533SOL    HW111283   2.020   0.655   3.258 -1.5597  0.0478 -1.3665
 3533SOL    HW211284   1.993   0.517   3.314 -0.4557 -0.3284 -1.7379
 3534SOL     OW11285   5.755   2.051   1.960  0.3976 -0.5288  0.8577
 3534SOL    HW111286   5.759   2.072   1.867  1.1799  3.2356  1.5720
 3534SOL    HW211287   5.815   1.977   1.971 -2.1874 -3.3297 -1.9686
 3535SOL     OW11288   0.246   5.366   5.566 -0.5432  0.5141 -0.2217
 3535SOL    HW111289   0.167   5.406   5.602 -0.5609  0.3365 -0.0605
 3535SOL    HW211290   0.312   5.379   5.634 -0.7042 -0.2650  0.0985
 3536SOL     OW11291   3.982   1.986   4.799  0.2342  0.1579  0.5940
 3536SOL    HW111292   3.900   2.015   4.838  0.5773  0.6698  0.9532
 3536SOL    HW211293   4.025   2.067   4.770  1.5588  0.1331  2.3168
 3537SOL     OW11294   2.612   2.796   4.876 -0.3317 -0.2904 -0.3599
 3537SOL    HW111295   2.518   2.815   4.880 -0.0462  1.1330  2.1124
 3537SOL    HW211296   2.642   2.843   4.799 -1.2335  1.7450  0.4496
 3538SOL     OW11297   3.232   2.652   1.746 -0.1607 -0.1433 -0.4439
 3538SOL    HW111298   3.265   2.737   1.718 -0.0803  0.3921  1.1445
 3538SOL    HW211299   3.172   2.672   1.818 -0.7943 -1.3767 -0.6063
 3539SOL     OW11300   1.769   0.204   1.326  0.2508  0.8680  0.2331
 3539SOL    HW111301   1.844   0.155   1.362  0.0647  1.1224  0.9838
 3539SOL    HW211302   1.806   0.289   1.301  0.0279  1.3791  1.5639
 3540SOL     OW11303   0.541   2.793   5.537  0.6343  0.1284 -0.4147
 3540SOL    HW111304   0.569   2.844   5.613  0.9612 -3.8148  2.4245
 3540SOL    HW211305   0.622   2.760   5.499  0.3769 -1.5022  0.3604
 3541SOL     OW11306   2.917   0.031   5.174 -0.2218  0.4255  0.0338
 3541SOL    HW111307   2.936   0.077   5.255  0.5626  0.8033 -0.3551
 3541SOL    HW211308   2.991  -0.029   5.162 -2.1736 -2.5214  1.6048
 3542SOL     OW11309   3.693   1.438   3.811  0.1444 -0.1147  0.0494
 3542SOL    HW111310   3.702   1.462   3.719 -1.8941  1.9592  0.3089
 3542SOL    HW211311   3.671   1.344   3.809  2.8976 -0.8590 -1.3212
 3543SOL     OW11312   1.599   6.335   3.439 -0.0719 -0.2202 -0.5257
 3543SOL    HW111313   1.520   6.321   3.387 -0.0623 -1.0621 -0.3351
 3543SOL    HW211314   1.671   6.325   3.377 -0.1216  1.5749 -0.9160
 3544SOL     OW11315   4.536   0.416   2.331 -0.0520  0.3730  0.0096
 3544SOL    HW111316   4.462   0.381   2.379 -0.7768  0.6069 -0.9060
 3544SOL    HW211317   4.554   0.501   2.371  0.9225 -0.4696  1.4334
 3545SOL     OW11318   2.967   5.809   4.925 -0.0177 -0.0344 -0.8893
 3545SOL    HW111319   2.973   5.873   4.996 -1.2730  0.4797 -1.2165
 3545SOL    HW211320   3.055   5.770   4.920 -0.2325 -1.0748  1.8177
 3546SOL     OW11321   3.324   4.162   4.980 -0.1682 -0.7196  0.4746
 3546SOL    HW111322   3.248   4.216   4.999  0.8846  1.1656 -0.3808
 3546SOL    HW211323   3.328   4.099   5.052  0.5289  2.5593  3.5317
 3547SOL     OW11324   1.132   1.010   5.244 -0.1644 -0.0912 -0.4847
 3547SOL    HW111325   1.169   0.922   5.254  1.5186  0.4682 -1.2351
 3547SOL    HW211326   1.165   1.039   5.159 -1.4775  0.9083 -0.6702
 3548SOL     OW11327   0.368   6.197   1.130  0.0818 -0.0455 -0.4290
 3548SOL    HW111328   0.425   6.237   1.196 -1.7569  0.1726  1.1218
 3548SOL    HW211329   0.353   6.108   1.163 -1.0502  0.1422 -0.4094
 3549SOL     OW11330   6.174   4.829   4.500 -0.1624  0.8647  0.1859
 3549SOL    HW111331   6.199   4.863   4.414 -0.9689  1.4029  0.1477
 3549SOL    HW211332   6.078   4.834   4.500 -0.1409  1.7891  1.4801
 3550SOL     OW11333   1.607   2.094   4.434 -0.0210 -0.2528  0.0207
 3550SOL    HW111334   1.623   2.162   4.500 -0.5916  0.9415 -1.0428
 3550SOL    HW211335   1.680   2.033   4.445  1.3180  1.2885  0.0556
 3551SOL     OW11336   3.191   4.820   3.158 -0.2148 -0.2345 -0.1852
 3551SOL    HW111337   3.184   4.813   3.063  0.1056 -0.9662 -0.1627
 3551SOL    HW211338   3.107   4.858   3.185  0.0621  0.8849 -0.8331
 3552SOL     OW11339   0.550   2.809   0.012  0.3358  0.4810  0.0101
 3552SOL    HW111340   0.598   2.767  -0.060 -1.6556  0.6778 -1.5402
 3552SOL    HW211341   0.517   2.891  -0.025 -2.4799 -0.3573  0.3954
 3553SOL     OW11342   1.785   3.475   4.715  0.0920 -0.0912 -0.3245
 3553SOL    HW111343   1.762   3.484   4.622  0.5333  1.8930 -0.2685
 3553SOL    HW211344   1.831   3.555   4.737  3.1664 -1.9704  0.7363
 3554SOL     OW11345   5.926   5.518   4.304 -0.4930  0.3148 -0.1147
 3554SOL    HW111346   5.912   5.423   4.311 -0.2431  0.2916  0.0885
 3554SOL    HW211347   6.009   5.533   4.350 -1.3393  0.8629  1.2705
 3555SOL     OW11348   0.999   6.509   3.563 -0.2141 -0.3045  0.4374
 3555SOL    HW111349   1.066   6.576   3.552 -0.9085  0.4654  0.7819
 3555SOL    HW211350   0.976   6.513   3.656 -2.0525  0.7508 -0.0142
 3556SOL     OW11351   1.959   1.828   5.522 -0.8785  0.0828  0.0305
 3556SOL    HW111352   1.893   1.808   5.589  1.2645 -1.0137  1.9630
 3556SOL    HW211353   2.038   1.785   5.553  0.5808  0.6649 -2.5995
 3557SOL     OW11354   0.611   1.408   6.235  0.4678 -0.2434  0.5883
 3557SOL    HW111355   0.607   1.319   6.200  0.5748  0.3649 -1.0711
 3557SOL    HW211356   0.688   1.447   6.193 -0.2554  0.9913  0.3502
 3558SOL     OW11357   4.152   5.409   0.917  0.4457 -0.0197 -0.3104
 3558SOL    HW111358   4.126   5.483   0.863 -1.7544 -0.7584 -0.3655
 3558SOL    HW211359   4.181   5.448   0.999  1.7452  0.9993 -1.2142
 3559SOL     OW11360   0.455   0.165   1.873 -0.0315  0.2232 -0.0226
 3559SOL    HW111361   0.416   0.190   1.957  4.3761  0.2688  2.2999
 3559SOL    HW211362   0.480   0.248   1.833 -0.0804  0.1095 -0.2905
 3560SOL     OW11363   0.211   2.101   0.261 -0.6265  0.1685 -0.0738
 3560SOL    HW111364   0.159   2.181   0.265  0.3053  0.8074 -0.3680
 3560SOL    HW211365   0.226   2.088   0.167 -1.5375 -0.8703 -0.0896
 3561SOL     OW11366   4.091   4.473   3.478  0.3677 -0.1672 -0.1968
 3561SOL    HW111367   4.001   4.504   3.486  0.7616  0.9348  0.2150
 3561SOL    HW211368   4.108   4.470   3.384  0.2576  0.7171 -0.2470
 3562SOL     OW11369   3.652   3.328   5.306 -0.1274 -0.1919 -0.5394
 3562SOL    HW111370   3.734   3.284   5.284 -0.9093 -3.2338  1.9133
 3562SOL    HW211371   3.678   3.404   5.359  1.1397  0.7592 -2.4196
 3563SOL     OW11372   2.941   1.455   5.238  0.3804 -0.0974 -0.4377
 3563SOL    HW111373   2.974   1.405   5.313 -0.1879  0.8244  0.4620
 3563SOL    HW211374   2.858   1.414   5.215 -0.7220  1.1168  1.1120
 3564SOL     OW11375   6.405   4.444   4.108  0.1621  0.4523  0.3325
 3564SOL    HW111376   6.443   4.357   4.111 -0.1090  0.2885 -0.6443
 3564SOL    HW211377   6.361   4.448   4.023 -3.6168 -0.0477  2.0481
 3565SOL     OW11378   3.850   3.205   4.550 -0.3771  0.1692 -0.1699
 3565SOL    HW111379   3.942   3.206   4.576  0.4380 -0.1626 -2.7413
 3565SOL    HW211380   3.803   3.244   4.624  1.7173 -0.3548  1.5113
 3566SOL     OW11381   4.429   2.901   5.333 -0.4374  0.4712 -0.2754
 3566SOL    HW111382   4.513   2.855   5.331  0.0331  0.9493  3.1062
 3566SOL    HW211383   4.453   2.994   5.328 -0.6689  0.6349  1.2251
 3567SOL     OW11384   2.913   6.246   1.010 -0.0796  0.1824 -0.1068
 3567SOL    HW111385   2.954   6.315   1.062  0.4783  0.0343 -0.3420
 3567SOL    HW211386   2.910   6.280   0.921 -0.0289 -0.0006 -0.1796
 3568SOL     OW11387   4.704   0.848   2.287  0.2237 -0.0635 -0.5783
 3568SOL    HW111388   4.729   0.915   2.351  1.2252 -2.1205  1.3477
 3568SOL    HW211389   4.769   0.855   2.218  0.6196  0.6233 -0.1502
 3569SOL     OW11390   5.943   1.781   0.377 -0.4004  0.1033 -0.1096
 3569SOL    HW111391   5.990   1.859   0.406 -0.9336  1.2171 -2.0475
 3569SOL    HW211392   5.889   1.811   0.304  0.1101 -2.2605 -1.5846
 3570SOL     OW11393   5.614   3.726   1.302  0.1135 -0.2323 -0.0621
 3570SOL    HW111394   5.540   3.779   1.271  0.6955  1.2642  0.9492
 3570SOL    HW211395   5.691   3.780   1.282  0.6854 -0.4368  1.4921
 3571SOL     OW11396   4.127   4.722   5.638 -0.0968 -0.4406  0.5007
 3571SOL    HW111397   4.140   4.797   5.580  1.0470 -2.1560 -1.6167
 3571SOL    HW211398   4.189   4.736   5.710  0.3955  0.4246 -0.0756
 3572SOL     OW11399   1.172   1.830   2.184  0.5329 -0.2091  0.1468
 3572SOL    HW111400   1.209   1.771   2.250  0.5549 -0.3088  0.0457
 3572SOL    HW211401   1.221   1.810   2.104 -0.8665 -1.5456 -0.4387
 3573SOL     OW11402   4.782   0.387   1.377 -0.4860 -0.2602 -0.2836
 3573SOL    HW111403   4.791   0.366   1.470 -0.3418 -1.6173 -0.5777
 3573SOL    HW211404   4.870   0.413   1.349  0.3740 -3.3444 -0.8032
 3574SOL     OW11405   4.421   2.544   0.626 -0.5530  0.7306 -0.5511
 3574SOL    HW111406   4.417   2.605   0.552 -0.7512  1.9495  0.4362
 3574SOL    HW211407   4.351   2.573   0.685 -1.4825 -1.2408 -0.6221
 3575SOL     OW11408   6.209   3.216   5.730 -0.2808 -0.3516 -0.2894
 3575SOL    HW111409   6.266   3.184   5.800 -0.3494  0.6300  0.2271
 3575SOL    HW211410   6.159   3.138   5.703 -1.1645 -0.4971  1.6214
 3576SOL     OW11411   2.087   3.863   0.350  0.0991  0.7172 -0.0187
 3576SOL    HW111412   1.994   3.861   0.372 -0.2012 -0.6513 -1.1816
 3576SOL    HW211413   2.132   3.832   0.429 -0.6535 -0.8858 -0.1831
 3577SOL     OW11414   2.146   2.257   2.524  0.0445  0.9116 -0.3545
 3577SOL    HW111415   2.092   2.179   2.509  0.9447 -0.4649  2.7700
 3577SOL    HW211416   2.089   2.330   2.501 -1.8081 -0.5613 -0.7557
 3578SOL     OW11417   5.038   2.232   5.583 -0.2220  0.2307 -0.4071
 3578SOL    HW111418   5.074   2.207   5.498  0.9955  1.3564 -0.2461
 3578SOL    HW211419   5.091   2.185   5.647 -1.2911 -0.8044 -0.2433
 3579SOL     OW11420   3.339   1.953   2.820 -0.2407  0.3443  0.5256
 3579SOL    HW111421   3.346   1.858   2.814 -0.3653  0.3903 -0.4981
 3579SOL    HW211422   3.369   1.985   2.735 -0.8072  1.1824  0.6248
 3580SOL     OW11423   1.165   3.032   1.794  0.6401 -0.2210 -0.4900
 3580SOL    HW111424   1.135   3.087   1.867 -0.6150  1.3649 -2.1345
 3580SOL    HW211425   1.256   3.059   1.781  0.1246  1.3597 -1.0979
 3581SOL     OW11426   4.017   3.552   6.514  0.6509  0.2435  0.2221
 3581SOL    HW111427   4.001   3.640   6.549 -0.1504  0.4612 -0.6609
 3581SOL    HW211428   4.112   3.547   6.503  0.5832  1.5930 -1.2082
 3582SOL     OW11429   3.172   5.252   3.270 -0.2559  0.0063 -0.2785
 3582SOL    HW111430   3.077   5.263   3.277 -0.3382 -0.7243 -0.1901
 3582SOL    HW211431   3.193   5.187   3.336  0.1386 -0.7394 -1.1245
 3583SOL     OW11432   3.688   0.883   2.546  0.5203 -0.0920  0.1016
 3583SOL    HW111433   3.621   0.949   2.562  0.1107 -0.5361  0.2210
 3583SOL    HW211434   3.762   0.933   2.510  0.5048  0.5470  0.9106
 3584SOL     OW11435   2.691   6.321   3.761  0.2632  0.6773  0.7235
 3584SOL    HW111436   2.673   6.331   3.667 -1.0075  0.1788  0.8861
 3584SOL    HW211437   2.770   6.267   3.765  0.0467  0.2912 -0.0595
 3585SOL     OW11438   5.099   1.582   2.813 -0.0191 -0.7895  0.0998
 3585SOL    HW111439   5.170   1.559   2.753 -0.8500 -2.1782 -0.3965
 3585SOL    HW211440   5.022   1.591   2.757 -0.1596  1.3053  0.5539
 3586SOL     OW11441   3.585   4.490   3.955  0.1458  0.4028  0.4665
 3586SOL    HW111442   3.557   4.535   4.035 -0.0716 -0.8288  1.1097
 3586SOL    HW211443   3.601   4.561   3.892  0.6694  1.4304  1.6934
 3587SOL     OW11444   2.445   3.093   4.790 -0.3038 -0.6639  0.3582
 3587SOL    HW111445   2.473   3.041   4.715  1.7694  0.4545  0.2763
 3587SOL    HW211446   2.403   3.030   4.849 -1.7769 -1.5927 -1.6015
 3588SOL     OW11447   5.426   0.477   3.841 -0.3205  0.4321  0.1507
 3588SOL    HW111448   5.494   0.540   3.816 -0.4799 -0.0575 -1.6058
 3588SOL    HW211449   5.473   0.414   3.897 -0.0537  1.7872  1.5158
 3589SOL     OW11450   1.033   3.981   1.754  0.3572  0.9134  0.1278
 3589SOL    HW111451   0.946   3.996   1.718  0.1796 -1.2382 -0.4764
 3589SOL    HW211452   1.047   4.054   1.814 -1.3180  1.9917 -0.7083
 3590SOL     OW11453   2.590   5.203   2.820 -0.1432 -0.2701 -0.2111
 3590SOL    HW111454   2.664   5.147   2.797 -0.9432 -1.7721  0.6338
 3590SOL    HW211455   2.545   5.218   2.738  1.3660  1.1234 -0.8290
 3591SOL     OW11456   3.794   5.918   3.720  0.1320 -0.4182  0.7848
 3591SOL    HW111457   3.745   5.992   3.757 -0.4423 -0.3638 -0.0591
 3591SOL    HW211458   3.885   5.936   3.744 -0.2762 -0.8533  2.9480
 3592SOL     OW11459   3.672   4.133   2.507 -0.1210  0.0923 -0.1551
 3592SOL    HW111460   3.731   4.057   2.514  0.2058  0.4822  1.7975
 3592SOL    HW211461   3.728   4.203   2.473  0.5196  0.3882  1.4319
 3593SOL     OW11462   6.129   0.043   0.853 -0.0135  0.0974 -0.1273
 3593SOL    HW111463   6.151   0.067   0.943  1.0532 -2.5082  0.4032
 3593SOL    HW211464   6.038   0.069   0.842  0.7060  3.2583  0.6106
 3594SOL     OW11465   3.532   2.818   2.614 -0.2315 -0.7146  0.1987
 3594SOL    HW111466   3.560   2.743   2.666  0.8382  0.3728  1.2497
 3594SOL    HW211467   3.436   2.814   2.615 -0.2040 -1.4540  1.1562
 3595SOL     OW11468   4.714   2.259   0.080 -0.5640  0.5589 -0.1062
 3595SOL    HW111469   4.639   2.249   0.140 -0.9305  1.3038 -0.4282
 3595SOL    HW211470   4.675   2.252  -0.008 -0.1992  0.5925 -0.2720
 3596SOL     OW11471   5.203   2.765   2.905 -0.2911 -0.7102 -0.3997
 3596SOL    HW111472   5.159   2.843   2.872 -2.4524 -2.3208 -1.5446
 3596SOL    HW211473   5.158   2.745   2.987  0.4033 -0.6717  0.0023
 3597SOL     OW11474   5.272   5.848   0.938 -0.2755 -0.0821 -1.0126
 3597SOL    HW111475   5.210   5.919   0.921 -1.1647 -0.7806 -0.7480
 3597SOL    HW211476   5.244   5.811   1.022  0.4089 -0.5055 -0.9621
 3598SOL     OW11477   5.484   1.561   6.193 -0.8849 -0.4286 -0.1033
 3598SOL    HW111478   5.571   1.525   6.207  0.5229  2.4704 -0.7358
 3598SOL    HW211479   5.459   1.599   6.277 -1.3525 -0.8360 -0.0531
 3599SOL     OW11480   4.094   2.849   0.531 -0.0446 -0.1035 -0.0625
 3599SOL    HW111481   4.132   2.877   0.614 -0.4774 -0.9603  0.4404
 3599SOL    HW211482   4.003   2.828   0.552 -0.1994 -0.1801 -0.7852
 3600SOL     OW11483   3.305   5.617   1.284 -0.3430 -0.2403 -0.0124
 3600SOL    HW111484   3.338   5.568   1.360 -1.4713 -2.8136 -1.0493
 3600SOL    HW211485   3.375   5.613   1.219  0.7419  2.2163  0.8674
 3601SOL     OW11486   3.277   2.537   4.173  0.2071  0.1898  0.1503
 3601SOL    HW111487   3.196   2.566   4.216 -2.0248 -2.3960 -1.9683
 3601SOL    HW211488   3.317   2.476   4.235  0.7415  1.5919  1.2711
 3602SOL     OW11489   5.407   5.620   0.823  0.2967 -0.1665  0.4346
 3602SOL    HW111490   5.313   5.618   0.842 -0.0594 -2.0320 -1.1919
 3602SOL    HW211491   5.432   5.711   0.834 -1.3779  0.1462  2.3288
 3603SOL     OW11492   4.400   0.369   0.648 -0.2619  0.7278 -0.0470
 3603SOL    HW111493   4.442   0.327   0.723 -1.4229  3.2600  2.1796
 3603SOL    HW211494   4.307   0.353   0.660 -0.4851  1.3464 -0.8560
 3604SOL     OW11495   0.188   3.998   5.625 -0.5105  0.2180 -0.6161
 3604SOL    HW111496   0.258   3.940   5.654  0.0612  1.4493  0.5822
 3604SOL    HW211497   0.217   4.030   5.540 -0.6650 -0.9374 -1.1274
 3605SOL     OW11498   5.977   4.141   3.773  0.0742  0.4606  0.3166
 3605SOL    HW111499   5.886   4.162   3.793  0.1751  0.1408  1.1718
 3605SOL    HW211500   5.972   4.065   3.714 -0.2148 -0.6799  1.7361
 3606SOL     OW11501   5.536   1.695   2.638 -0.7517  0.6545 -0.3702
 3606SOL    HW111502   5.540   1.789   2.658  1.3186  0.4071  0.7230
 3606SOL    HW211503   5.622   1.675   2.601 -0.7611 -1.0184  0.4289
 3607SOL     OW11504   1.027   2.961   5.244  0.2812  0.6477  0.1475
 3607SOL    HW111505   1.072   3.044   5.229  0.9010  0.0633 -1.5492
 3607SOL    HW211506   1.057   2.905   5.172  0.7723 -1.4234  1.8668
 3608SOL     OW11507   5.500   5.694   5.132 -0.2751  0.3220  0.0597
 3608SOL    HW111508   5.596   5.689   5.123 -0.1655  1.7609  0.0886
 3608SOL    HW211509   5.472   5.751   5.060 -0.8615  1.4686  1.1377
 3609SOL     OW11510   4.081   4.837   3.174  0.2168 -0.3983 -0.4264
 3609SOL    HW111511   4.019   4.773   3.138  0.9632 -0.9182 -0.8215
 3609SOL    HW211512   4.143   4.853   3.103  0.6838 -0.0863  0.0381
 3610SOL     OW11513   6.282   6.117   3.998  0.0285  0.2637  0.5898
 3610SOL    HW111514   6.358   6.077   3.956  0.6156  1.1419  0.7700
 3610SOL    HW211515   6.283   6.207   3.966 -2.3754 -0.3077 -1.3347
 3611SOL     OW11516   4.242   4.438   4.434  0.1482  0.0639 -0.5224
 3611SOL    HW111517   4.212   4.509   4.377  0.5842 -0.0477 -0.8911
 3611SOL    HW211518   4.214   4.465   4.522  1.2794  1.2232 -0.4938
 3612SOL     OW11519   4.095   6.117   2.506 -0.5062  0.1882  0.6363
 3612SOL    HW111520   4.114   6.109   2.413 -1.5394  0.4794  0.3807
 3612SOL    HW211521   4.143   6.195   2.534  0.0630 -0.0805  0.4266
 3613SOL     OW11522   1.909   3.569   5.355 -0.7668 -0.4633 -0.4339
 3613SOL    HW111523   1.815   3.570   5.336 -0.7631 -0.0687 -0.4426
 3613SOL    HW211524   1.924   3.485   5.398 -1.1423 -0.4836 -0.3369
 3614SOL     OW11525   0.915   5.447   3.399 -0.0136 -0.2195 -0.0841
 3614SOL    HW111526   0.881   5.361   3.374 -1.1443  0.1900 -0.0255
 3614SOL    HW211527   0.950   5.435   3.487 -1.6732 -0.2734  0.6168
 3615SOL     OW11528   3.372   0.625   1.992  0.2136  1.0043 -0.0426
 3615SOL    HW111529   3.459   0.588   2.003  0.6348  2.0462  0.2370
 3615SOL    HW211530   3.326   0.604   2.073 -0.2690 -0.7136 -0.7114
 3616SOL     OW11531   5.989   5.578   3.736 -0.1720 -0.2797  0.5527
 3616SOL    HW111532   6.039   5.586   3.655 -0.9031 -0.6022  0.0553
 3616SOL    HW211533   5.937   5.657   3.740  0.7021  0.2779  1.3128
 3617SOL     OW11534   6.187   4.797   3.637 -0.2160  0.1858 -0.3722
 3617SOL    HW111535   6.125   4.727   3.659 -1.0177  1.3925  1.5443
 3617SOL    HW211536   6.140   4.852   3.574 -0.1907 -0.1394 -0.6779
 3618SOL     OW11537   6.335   5.910   4.438 -0.0997 -0.0742  0.7543
 3618SOL    HW111538   6.325   5.990   4.490  1.5891 -0.3559  1.5958
 3618SOL    HW211539   6.396   5.934   4.368 -2.7890  0.4611 -1.5796
 3619SOL     OW11540   2.211   4.701   6.012 -0.3024 -0.5695  0.3469
 3619SOL    HW111541   2.217   4.625   6.070  1.1218 -0.3621  0.4990
 3619SOL    HW211542   2.137   4.680   5.954 -0.3307 -1.7922  0.7817
 3620SOL     OW11543   3.632   6.428   5.918  0.2544  0.3808  0.3641
 3620SOL    HW111544   3.675   6.460   5.997  2.1660 -1.2068  0.0325
 3620SOL    HW211545   3.665   6.484   5.848 -0.5737  1.0613  0.4932
 3621SOL     OW11546   3.003   1.318   2.122 -0.4443 -0.0086  0.2755
 3621SOL    HW111547   3.025   1.240   2.071 -0.0517  1.0728 -1.2772
 3621SOL    HW211548   3.085   1.367   2.128 -1.4485  2.2727 -2.4052
 3622SOL     OW11549   0.506   5.594   5.805  0.2786  0.0867 -0.6491
 3622SOL    HW111550   0.484   5.567   5.715  0.4348 -1.2217 -0.3138
 3622SOL    HW211551   0.499   5.689   5.803 -1.7596 -0.0349 -1.5181
 3623SOL     OW11552   5.769   1.406   5.311 -0.0852  0.1091 -0.0957
 3623SOL    HW111553   5.822   1.362   5.378  0.7132 -0.6723 -1.2017
 3623SOL    HW211554   5.680   1.378   5.329  0.2391 -0.8410  0.0826
 3624SOL     OW11555   2.076   3.053   3.300 -0.8589 -0.5819 -0.0021
 3624SOL    HW111556   2.167   3.081   3.303 -0.8004 -0.5491 -1.4114
 3624SOL    HW211557   2.065   3.014   3.213 -1.1978 -4.0924  1.4531
 3625SOL     OW11558   0.049   0.717   3.395  0.0535 -0.4957 -0.5052
 3625SOL    HW111559   0.026   0.682   3.309  1.6811  0.5302 -1.3987
 3625SOL    HW211560   0.129   0.768   3.380  1.0043 -1.1708  1.8053
 3626SOL     OW11561   1.928   2.144   1.641 -0.3836  0.1442 -0.0396
 3626SOL    HW111562   1.958   2.235   1.635  0.3347 -0.0182  0.7828
 3626SOL    HW211563   1.951   2.105   1.557 -2.3670  1.1703 -1.1330
 3627SOL     OW11564   0.827   2.591   3.546 -0.0610  0.3206  0.2119
 3627SOL    HW111565   0.808   2.623   3.634  2.5718 -0.0807  1.0191
 3627SOL    HW211566   0.810   2.497   3.550  0.9394  0.1438  0.6067
 3628SOL     OW11567   4.949   5.430   6.506  0.5077  0.1730 -0.5012
 3628SOL    HW111568   5.006   5.438   6.582 -1.8552 -1.5811  1.6510
 3628SOL    HW211569   4.919   5.520   6.489  1.2772  0.6446  0.5011
 3629SOL     OW11570   2.730   2.485   4.269 -0.5843 -0.3280 -0.4376
 3629SOL    HW111571   2.672   2.533   4.210 -0.7980  1.3482  1.0502
 3629SOL    HW211572   2.727   2.534   4.351 -0.4516 -2.6820  1.0675
 3630SOL     OW11573   0.687   6.304   3.010  0.7892 -0.0962 -0.2076
 3630SOL    HW111574   0.655   6.311   3.100 -0.3349  2.1607 -0.7057
 3630SOL    HW211575   0.625   6.245   2.967 -0.5087  1.2096 -0.2042
 3631SOL     OW11576   2.230   2.493   0.902  0.5246  0.5231  0.6840
 3631SOL    HW111577   2.301   2.475   0.840 -0.0044  0.3231  0.1247
 3631SOL    HW211578   2.220   2.412   0.950 -1.3487 -0.5309 -1.3176
 3632SOL     OW11579   5.467   3.295   0.070  0.4336  0.1735 -0.8649
 3632SOL    HW111580   5.431   3.330  -0.011 -1.6031 -0.3960 -0.2677
 3632SOL    HW211581   5.494   3.372   0.120 -1.1162  0.7503 -0.8573
 3633SOL     OW11582   5.299   4.460   3.769  0.1444 -0.3243  0.7469
 3633SOL    HW111583   5.229   4.524   3.757  0.0819 -0.7425 -1.4003
 3633SOL    HW211584   5.369   4.490   3.712  0.0820 -2.1746 -0.3863
 3634SOL     OW11585   2.269   2.276   5.546  0.2088 -0.0704  0.2661
 3634SOL    HW111586   2.235   2.312   5.464  1.8036 -2.5960 -1.6825
 3634SOL    HW211587   2.357   2.312   5.553  0.5460 -0.8324  0.1228
 3635SOL     OW11588   5.457   2.227   6.122 -0.1738 -0.4226  0.0570
 3635SOL    HW111589   5.369   2.192   6.136  0.2189 -1.4278  0.1349
 3635SOL    HW211590   5.443   2.319   6.098 -1.3546 -0.9743 -1.6035
 3636SOL     OW11591   1.811   4.775   2.494 -0.1988 -0.4069 -0.2057
 3636SOL    HW111592   1.723   4.751   2.464 -0.4550  1.4732 -1.1465
 3636SOL    HW211593   1.856   4.691   2.508 -1.7798 -1.3941 -0.8052
 3637SOL     OW11594   6.250   3.885   0.237  0.0020 -0.2447 -0.0273
 3637SOL    HW111595   6.317   3.840   0.290  1.3361  0.1567 -1.2944
 3637SOL    HW211596   6.167   3.856   0.274  0.8558 -1.5245  1.0027
 3638SOL     OW11597   1.942   2.919   1.489 -0.6101  0.3355  0.3079
 3638SOL    HW111598   1.977   2.948   1.574 -1.3379  1.2845  0.3018
 3638SOL    HW211599   1.995   2.965   1.425  0.1991 -0.6813  0.2115
 3639SOL     OW11600   1.547   2.029   4.177 -0.2839 -0.0278 -0.3578
 3639SOL    HW111601   1.593   2.074   4.247  1.0524 -1.4334 -0.2774
 3639SOL    HW211602   1.521   1.945   4.215  0.0136 -0.6043 -1.3787
 3640SOL     OW11603   2.937   4.405   6.331  0.0543  0.0694 -0.5440
 3640SOL    HW111604   2.943   4.413   6.236  1.0597  0.9955 -0.4364
 3640SOL    HW211605   3.010   4.459   6.363 -0.3682 -0.1060  0.7507
 3641SOL     OW11606   0.907   6.206   2.590  0.1643  0.8547  0.3121
 3641SOL    HW111607   0.987   6.156   2.574 -0.0632  0.4129  0.5213
 3641SOL    HW211608   0.836   6.144   2.571 -0.1343  1.3246 -0.1426
 3642SOL     OW11609   3.419   1.000   3.737 -0.6768 -0.2477 -0.0256
 3642SOL    HW111610   3.387   0.910   3.737  0.4561 -0.6576 -0.2418
 3642SOL    HW211611   3.342   1.053   3.714 -0.5213 -1.4491 -3.8656
 3643SOL     OW11612   0.368   5.760   1.423  0.0361  0.7898  0.2961
 3643SOL    HW111613   0.339   5.803   1.503 -1.1291 -0.9391  0.8683
 3643SOL    HW211614   0.325   5.809   1.353 -0.9373  0.8526  0.9072
 3644SOL     OW11615   6.225   5.181   2.526  0.0727 -0.2771 -0.6264
 3644SOL    HW111616   6.319   5.178   2.510  0.4762 -0.8120  1.4749
 3644SOL    HW211617   6.207   5.273   2.543  0.2684 -0.1997 -0.8383
 3645SOL     OW11618   0.292   5.625   5.263  0.2035 -0.2066  0.0934
 3645SOL    HW111619   0.257   5.537   5.266 -0.5621  0.0323 -1.0008
 3645SOL    HW211620   0.385   5.614   5.242 -0.3417 -0.7182 -2.3147
 3646SOL     OW11621   4.875   3.160   5.451 -0.2697 -0.1668 -0.3431
 3646SOL    HW111622   4.946   3.104   5.418  0.2201  0.7846 -0.9562
 3646SOL    HW211623   4.846   3.210   5.374 -0.7138  0.3976  0.1802
 3647SOL     OW11624   1.295   0.649   4.129 -0.1691 -0.2030  0.4094
 3647SOL    HW111625   1.292   0.571   4.073  0.6644  0.4935 -0.6315
 3647SOL    HW211626   1.383   0.684   4.116 -0.3962  0.6946  1.1987
 3648SOL     OW11627   3.383   3.390   5.382  0.3614  0.2308 -0.0042
 3648SOL    HW111628   3.365   3.373   5.290  2.1597 -1.0440 -0.1688
 3648SOL    HW211629   3.477   3.375   5.392  0.4131  1.4068  1.8246
 3649SOL     OW11630   2.479   2.225   0.957 -0.2193  0.0995  0.3767
 3649SOL    HW111631   2.399   2.223   1.010 -0.1496 -2.7093  0.5280
 3649SOL    HW211632   2.454   2.181   0.876  1.0954 -0.5755  0.3253
 3650SOL     OW11633   0.193   5.750   0.864  0.9276  0.2816  0.5778
 3650SOL    HW111634   0.180   5.763   0.770  0.8636 -1.6457  0.2804
 3650SOL    HW211635   0.279   5.709   0.871  0.4165 -0.7178  1.2247
 3651SOL     OW11636   6.230   3.570   5.234 -0.0974 -0.4195 -0.1268
 3651SOL    HW111637   6.184   3.599   5.313 -1.0622  0.5168 -0.9916
 3651SOL    HW211638   6.162   3.568   5.167  0.7662 -0.8912 -1.0092
 3652SOL     OW11639   2.526   1.279   2.128  0.6998  0.0405  0.0952
 3652SOL    HW111640   2.458   1.265   2.194  1.0607 -1.0366  0.2498
 3652SOL    HW211641   2.599   1.318   2.177  0.0838  1.5423 -0.1381
 3653SOL     OW11642   4.348   5.207   0.938 -0.4264  0.5443  0.0305
 3653SOL    HW111643   4.263   5.163   0.933 -0.1705  0.1955 -1.8069
 3653SOL    HW211644   4.410   5.137   0.959 -0.2050  0.2454 -1.5554
 3654SOL     OW11645   5.445   5.719   3.494  0.4550 -0.7678  0.5594
 3654SOL    HW111646   5.458   5.812   3.513 -0.7519 -0.6864  1.0758
 3654SOL    HW211647   5.433   5.716   3.399  2.7275 -0.7015  0.2177
 3655SOL     OW11648   4.221   6.320   1.588  0.1507  0.5332  0.6315
 3655SOL    HW111649   4.262   6.386   1.532 -0.0850  0.4654  0.3786
 3655SOL    HW211650   4.209   6.364   1.672 -2.2858  1.6521 -0.2169
 3656SOL     OW11651   1.193   0.776   2.326  0.3787 -0.4347 -0.1825
 3656SOL    HW111652   1.141   0.828   2.387 -0.8634 -1.2501 -0.5186
 3656SOL    HW211653   1.191   0.826   2.244  1.0055  0.0393  0.0792
 3657SOL     OW11654   3.762   0.488   0.563  0.1547 -0.1302  0.2345
 3657SOL    HW111655   3.747   0.469   0.471 -0.0622  1.3128 -0.0580
 3657SOL    HW211656   3.709   0.566   0.581  0.4236 -0.2109  1.4989
 3658SOL     OW11657   2.687   1.839   2.138  0.5587 -0.9813  0.0600
 3658SOL    HW111658   2.639   1.921   2.126 -2.2012 -2.4435  0.2707
 3658SOL    HW211659   2.669   1.814   2.229  2.4817 -1.2230  0.4279
 3659SOL     OW11660   5.985   6.275   4.623  0.0180  0.4489 -0.0598
 3659SOL    HW111661   6.032   6.331   4.685 -0.6357  0.3942  0.4960
 3659SOL    HW211662   5.968   6.194   4.671  1.8222 -0.6531 -1.1769
 3660SOL     OW11663   5.038   3.936   0.615 -0.0914 -0.1857 -0.3419
 3660SOL    HW111664   4.995   3.891   0.687 -0.3174 -0.8054 -0.8594
 3660SOL    HW211665   5.035   3.875   0.542 -0.4037  0.6618 -1.0626
 3661SOL     OW11666   5.988   0.735   1.600 -0.1096 -0.7622 -0.3990
 3661SOL    HW111667   5.894   0.721   1.589 -0.1283 -0.9217 -0.0501
 3661SOL    HW211668   6.019   0.657   1.647  0.3259 -1.0562 -1.1630
 3662SOL     OW11669   3.343   4.272   6.127 -0.1628  0.5677 -0.2808
 3662SOL    HW111670   3.259   4.234   6.149 -0.9094  0.5154 -2.8891
 3662SOL    HW211671   3.339   4.361   6.162 -0.3242 -0.1396  1.6183
 3663SOL     OW11672   0.337   1.345   6.297  0.5343  0.1471  0.1067
 3663SOL    HW111673   0.422   1.385   6.281  0.3307  0.0225 -1.4935
 3663SOL    HW211674   0.318   1.363   6.389  1.6013  1.4974  0.0878
 3664SOL     OW11675   6.409   6.377   1.572 -0.4629 -0.1559  0.8979
 3664SOL    HW111676   6.500   6.378   1.542 -0.3287  0.0074  1.3026
 3664SOL    HW211677   6.361   6.429   1.507  0.0470  1.2910  1.6438
 3665SOL     OW11678   0.440   6.013   0.852 -0.1532  0.1422 -0.5591
 3665SOL    HW111679   0.445   6.107   0.869 -0.9037  0.3975 -1.6989
 3665SOL    HW211680   0.482   5.973   0.929  2.5954  1.4682 -1.2543
 3666SOL     OW11681   4.469   6.273   0.521  0.4412 -0.2676  0.3618
 3666SOL    HW111682   4.385   6.308   0.551  0.0914 -2.0543  1.6255
 3666SOL    HW211683   4.532   6.303   0.587  0.8357  1.0132 -0.5494
 3667SOL     OW11684   4.775   1.710   2.666 -0.5145 -0.2869  0.1624
 3667SOL    HW111685   4.729   1.744   2.742  0.0823 -0.9504  0.8430
 3667SOL    HW211686   4.759   1.774   2.597  0.6261  1.4373  1.4079
 3668SOL     OW11687   3.661   2.534   5.519 -0.1389  0.2680  0.1627
 3668SOL    HW111688   3.619   2.608   5.475 -0.4198  0.3148  0.5044
 3668SOL    HW211689   3.755   2.554   5.514 -0.1959  0.5141  0.0187
 3669SOL     OW11690   1.637   4.906   1.894  0.5253  0.9542  0.5768
 3669SOL    HW111691   1.598   4.826   1.929 -1.9555  2.4209  1.4238
 3669SOL    HW211692   1.581   4.930   1.821  0.6509  2.3872  0.9148
 3670SOL     OW11693   6.506   3.528   2.891 -0.1194 -0.4388  0.3046
 3670SOL    HW111694   6.593   3.524   2.932  0.0024  1.8474  0.3848
 3670SOL    HW211695   6.502   3.615   2.853 -2.1755 -0.7268 -0.2196
 3671SOL     OW11696   2.433   3.574   5.595  0.0202  0.6035  0.6371
 3671SOL    HW111697   2.507   3.531   5.552 -0.1434  0.2768  0.6717
 3671SOL    HW211698   2.397   3.632   5.528 -0.2456  0.0815  0.3232
 3672SOL     OW11699   0.510   4.198   4.167  0.2001  0.1160  0.4214
 3672SOL    HW111700   0.536   4.106   4.177 -0.1282  0.1413  1.8471
 3672SOL    HW211701   0.439   4.196   4.102  0.1461 -0.6542  0.4892
 3673SOL     OW11702   3.603   2.314   5.350  0.0885  0.5335 -0.5344
 3673SOL    HW111703   3.615   2.373   5.425 -0.9835  1.1743 -0.8413
 3673SOL    HW211704   3.657   2.352   5.281  0.1799  0.5927 -0.4317
 3674SOL     OW11705   3.222   0.153   5.207  0.2015  0.9378 -0.7306
 3674SOL    HW111706   3.265   0.178   5.125  0.4461  0.9108 -0.6140
 3674SOL    HW211707   3.223   0.057   5.206  0.1083  0.9368 -0.7452
 3675SOL     OW11708   5.848   3.626   5.622 -0.5491 -0.3742  0.0812
 3675SOL    HW111709   5.839   3.637   5.717  0.5351  0.9522  0.0635
 3675SOL    HW211710   5.794   3.696   5.585  1.0085  0.7474 -0.1911
 3676SOL     OW11711   6.093   1.814   5.652  0.0144  0.7204 -0.3255
 3676SOL    HW111712   6.118   1.744   5.592  1.5554  0.5208  0.5035
 3676SOL    HW211713   6.154   1.885   5.632  0.5314  0.6583  0.9428
 3677SOL     OW11714   2.641   1.140   3.437  0.1693  0.4676  0.5207
 3677SOL    HW111715   2.588   1.091   3.374  1.0153  0.2305 -0.0306
 3677SOL    HW211716   2.634   1.231   3.409  0.5776  0.3597  0.0249
 3678SOL     OW11717   1.523   5.737   3.605 -0.0450 -0.1671  0.0214
 3678SOL    HW111718   1.615   5.716   3.590 -0.1475 -1.5986  1.2875
 3678SOL    HW211719   1.479   5.653   3.610 -0.8637  0.3454  2.8696
 3679SOL     OW11720   3.381   0.047   4.315  0.5166 -0.0950 -0.0489
 3679SOL    HW111721   3.291   0.017   4.329 -0.1748  1.2344 -1.3014
 3679SOL    HW211722   3.434  -0.009   4.370 -1.0299 -1.3109  0.2782
 3680SOL     OW11723   0.608   1.140   5.603 -0.2611  0.0349 -0.1161
 3680SOL    HW111724   0.632   1.186   5.523 -2.6245  1.0421 -0.3365
 3680SOL    HW211725   0.541   1.077   5.576 -2.4074  1.5889  1.2171
 3681SOL     OW11726   0.573   6.270   5.451  0.0509 -0.2503 -0.2198
 3681SOL    HW111727   0.662   6.260   5.484 -0.3358 -2.0470  0.3977
 3681SOL    HW211728   0.534   6.183   5.462 -0.7763 -0.4166 -3.5431
 3682SOL     OW11729   4.205   0.099   4.208 -0.7202 -0.8695 -0.2548
 3682SOL    HW111730   4.121   0.066   4.239 -0.7391 -0.7080 -0.1371
 3682SOL    HW211731   4.200   0.194   4.219 -0.4235 -0.8802 -0.0015
 3683SOL     OW11732   0.835   4.771   4.149 -0.0284 -0.4482 -0.0676
 3683SOL    HW111733   0.848   4.813   4.235 -1.2914 -1.2169  0.5289
 3683SOL    HW211734   0.824   4.678   4.170 -0.0223 -0.6865 -1.1009
 3684SOL     OW11735   0.258   0.027   0.441  0.1980  0.5295 -0.6588
 3684SOL    HW111736   0.284   0.017   0.532 -0.5706 -0.7607 -0.5537
 3684SOL    HW211737   0.272   0.120   0.421 -0.4132  1.0087  1.0144
 3685SOL     OW11738   0.829   2.740   1.126  0.1844  0.3683 -0.0288
 3685SOL    HW111739   0.921   2.715   1.118  0.3094  0.5793  0.6561
 3685SOL    HW211740   0.789   2.715   1.043  0.9356  0.5973 -0.4582
 3686SOL     OW11741   3.976   4.626   5.988  0.6505 -0.3356  0.0202
 3686SOL    HW111742   4.038   4.692   6.019  0.3970 -0.2028  0.2468
 3686SOL    HW211743   3.986   4.627   5.892  0.3238  0.3550 -0.0141
 3687SOL     OW11744   2.951   4.576   0.309 -0.0676  0.6085  0.2915
 3687SOL    HW111745   3.020   4.641   0.325 -1.0206  1.5597  0.6114
 3687SOL    HW211746   2.944   4.573   0.213  1.0518 -0.2014  0.2102
 3688SOL     OW11747   5.726   4.670   0.536 -0.3700  0.3510  0.8182
 3688SOL    HW111748   5.709   4.760   0.562 -2.3760  0.8719 -1.8074
 3688SOL    HW211749   5.641   4.626   0.546 -0.0274 -0.5874 -0.1668
 3689SOL     OW11750   3.765   4.521   5.726  0.2193 -0.1256  0.1959
 3689SOL    HW111751   3.726   4.539   5.811  1.2972  1.8291  0.3276
 3689SOL    HW211752   3.755   4.426   5.715 -1.5784 -0.1628  1.6435
 3690SOL     OW11753   0.019   2.616   5.314 -0.6785  0.1919 -0.1097
 3690SOL    HW111754   0.074   2.554   5.266 -1.7139 -1.4372  0.7309
 3690SOL    HW211755   0.076   2.692   5.329  1.4755 -1.5306  1.0326
 3691SOL     OW11756   1.907   4.945   1.723  0.2859 -0.1172  0.1868
 3691SOL    HW111757   1.854   4.981   1.794 -0.5968 -3.7075  1.5176
 3691SOL    HW211758   1.850   4.949   1.646  0.3600  1.5190  0.1744
 3692SOL     OW11759   0.007   1.067   6.311 -0.2803 -0.0341  0.3600
 3692SOL    HW111760   0.026   1.099   6.399 -0.9064  1.2688  0.0611
 3692SOL    HW211761  -0.089   1.074   6.304 -0.2569 -0.3445 -0.3322
 3693SOL     OW11762   0.022   3.311   3.798  0.0656  0.1529  0.5282
 3693SOL    HW111763   0.004   3.217   3.793 -0.5989  0.2612  0.8223
 3693SOL    HW211764   0.115   3.316   3.820 -0.3505 -0.4867  2.7188
 3694SOL     OW11765   2.271   4.562   4.804  0.4283  0.2623 -0.7999
 3694SOL    HW111766   2.232   4.623   4.867  2.1590  0.1319  0.5000
 3694SOL    HW211767   2.202   4.500   4.784 -0.5856  1.1237 -0.0924
 3695SOL     OW11768   2.082   3.185   0.491 -0.5536  0.1431  0.0562
 3695SOL    HW111769   2.035   3.161   0.570 -1.6201  0.7128 -0.3868
 3695SOL    HW211770   2.048   3.271   0.467  1.6926  1.2302  0.4627
 3696SOL     OW11771   1.066   5.084   1.720 -0.5447 -0.1395  0.8429
 3696SOL    HW111772   1.118   5.028   1.661 -2.0156 -1.4992  0.7565
 3696SOL    HW211773   1.037   5.156   1.665  2.0464  1.2484  1.1466
 3697SOL     OW11774   3.103   3.318   6.218  0.3222  0.0048 -0.0200
 3697SOL    HW111775   3.023   3.267   6.208  0.1740 -0.1841  1.7842
 3697SOL    HW211776   3.120   3.354   6.131 -2.4829  1.1705 -0.2079
 3698SOL     OW11777   4.088   1.154   4.223  0.1250  0.8063  0.3611
 3698SOL    HW111778   4.163   1.213   4.223 -0.3762  1.5025 -1.0293
 3698SOL    HW211779   4.012   1.211   4.233 -0.2965  0.2572  0.3505
 3699SOL     OW11780   6.218   5.305   1.455 -0.0950 -0.3788 -0.0799
 3699SOL    HW111781   6.152   5.335   1.519  1.1884  0.0965  1.0797
 3699SOL    HW211782   6.236   5.215   1.480  2.2317  0.5265  1.9515
 3700SOL     OW11783   2.938   4.004   2.530  0.1838 -0.0296 -0.0754
 3700SOL    HW111784   3.015   3.979   2.581  0.2094 -0.0139 -0.1062
 3700SOL    HW211785   2.938   3.943   2.456 -0.6861 -1.0259  0.7214
 3701SOL     OW11786   2.101   1.452   3.620  0.0034 -0.0433 -0.1288
 3701SOL    HW111787   2.109   1.524   3.682 -0.0230 -1.0406  1.0755
 3701SOL    HW211788   2.057   1.383   3.669 -0.1561 -0.8135 -1.3138
 3702SOL     OW11789   1.434   4.215   5.188  0.3696 -0.4772  0.1396
 3702SOL    HW111790   1.404   4.246   5.103  0.0846  0.7079  0.6396
 3702SOL    HW211791   1.364   4.239   5.249  0.1371 -2.1541  0.5845
 3703SOL     OW11792   4.261   0.155   5.546  0.6562  0.0367  0.2924
 3703SOL    HW111793   4.354   0.141   5.564 -0.0401 -1.2640  3.9301
 3703SOL    HW211794   4.227   0.068   5.524  0.1320  0.2674  0.1600
 3704SOL     OW11795   3.348   2.027   0.490 -0.0441 -0.3160 -0.3727
 3704SOL    HW111796   3.265   2.064   0.521  0.6879 -0.3765  1.8818
 3704SOL    HW211797   3.414   2.090   0.520  0.8583 -1.2205 -0.4191
 3705SOL     OW11798   0.166   2.990   1.950  0.3441  0.2208  0.6509
 3705SOL    HW111799   0.157   3.071   2.000  0.4599  1.6210 -1.4916
 3705SOL    HW211800   0.246   3.002   1.898 -0.7937 -0.2952 -1.3261
 3706SOL     OW11801   5.129   2.558   5.803  0.2965 -0.6232  0.0902
 3706SOL    HW111802   5.165   2.601   5.880  1.8271  1.4712 -1.6608
 3706SOL    HW211803   5.134   2.624   5.734  2.1107 -3.3215 -2.6275
 3707SOL     OW11804   2.508   1.546   6.395  0.1058 -0.0712  0.4682
 3707SOL    HW111805   2.580   1.483   6.394 -0.8483 -1.1921  0.6777
 3707SOL    HW211806   2.478   1.547   6.486  0.2531  0.8880  0.5264
 3708SOL     OW11807   0.733   4.084   1.682 -0.1459  0.1422 -0.4590
 3708SOL    HW111808   0.712   4.166   1.638 -1.4682  0.2550  0.3136
 3708SOL    HW211809   0.681   4.018   1.636  0.5430 -0.1926 -0.7703
 3709SOL     OW11810   4.386   5.889   4.058  0.5494  0.2671 -0.6694
 3709SOL    HW111811   4.316   5.881   3.993 -0.0842  0.1057  0.0179
 3709SOL    HW211812   4.375   5.977   4.094 -0.4829 -0.4021  0.7383
 3710SOL     OW11813   6.069   4.573   1.273  0.0377 -0.4153  0.3957
 3710SOL    HW111814   5.989   4.523   1.254  0.7628 -2.1172  1.5726
 3710SOL    HW211815   6.140   4.509   1.264  1.1727  0.8101  0.3873
 3711SOL     OW11816   4.284   6.155   1.090 -0.0028  0.2914 -0.2003
 3711SOL    HW111817   4.236   6.237   1.102  1.0059  0.8324  0.2301
 3711SOL    HW211818   4.373   6.182   1.069  0.0775 -0.6940 -1.2379
 3712SOL     OW11819   2.274   2.647   2.069 -0.1450  0.3945 -0.1183
 3712SOL    HW111820   2.307   2.718   2.014 -0.0059 -0.0152 -0.5737
 3712SOL    HW211821   2.351   2.592   2.085 -0.2581  0.3305  0.2145
 3713SOL     OW11822   1.940   3.889   6.211  0.5450  0.1793  0.5411
 3713SOL    HW111823   2.016   3.907   6.157 -0.4888  1.0976 -0.6832
 3713SOL    HW211824   1.975   3.848   6.290  2.3876  1.4380  0.4311
 3714SOL     OW11825   3.287   4.816   4.790 -0.0180  0.4601 -1.0479
 3714SOL    HW111826   3.293   4.882   4.859 -2.6792 -1.5248  1.3523
 3714SOL    HW211827   3.363   4.759   4.804  0.5226  1.1754 -1.0456
 3715SOL     OW11828   5.401   4.505   5.166 -0.4583 -0.5824 -0.0431
 3715SOL    HW111829   5.328   4.505   5.104  0.0332 -0.5825 -0.6255
 3715SOL    HW211830   5.473   4.463   5.119  0.2408  0.3768  0.1348
 3716SOL     OW11831   5.593   0.251   0.081 -0.1852  0.1245 -0.2022
 3716SOL    HW111832   5.572   0.345   0.075 -0.2118  0.0542 -1.8100
 3716SOL    HW211833   5.517   0.212   0.123  0.3934  0.9650  1.7677
 3717SOL     OW11834   5.667   4.206   2.244 -0.3880  0.3671 -0.3368
 3717SOL    HW111835   5.668   4.113   2.267 -2.0838  0.6673  1.2186
 3717SOL    HW211836   5.758   4.234   2.254  0.0095 -0.9461 -0.0475
 3718SOL     OW11837   1.002   2.460   5.472 -0.0673 -0.2448 -0.1421
 3718SOL    HW111838   1.066   2.520   5.435  1.3606 -1.2705  0.5821
 3718SOL    HW211839   1.019   2.463   5.567 -0.1277 -1.6169 -0.0808
 3719SOL     OW11840   3.188   3.576   0.485 -0.2247 -0.0604 -0.2363
 3719SOL    HW111841   3.123   3.552   0.420 -1.1333 -0.7183  0.8677
 3719SOL    HW211842   3.169   3.667   0.507 -0.8683 -0.2809  0.1561
 3720SOL     OW11843   4.501   1.195   2.003  0.5555 -0.6180 -0.1820
 3720SOL    HW111844   4.409   1.201   1.977 -0.0116 -1.5995  1.4814
 3720SOL    HW211845   4.499   1.194   2.098  2.2551 -1.3536 -0.1261
 3721SOL     OW11846   2.526   3.813   3.652  0.5157  0.2432  0.3892
 3721SOL    HW111847   2.468   3.755   3.700  1.5768 -0.8050  0.4531
 3721SOL    HW211848   2.563   3.758   3.582  1.5913  0.8112  0.4913
 3722SOL     OW11849   1.836   1.586   0.338  0.6844 -0.1967 -0.1518
 3722SOL    HW111850   1.763   1.579   0.398 -0.8594 -0.6303 -1.9839
 3722SOL    HW211851   1.908   1.539   0.381  0.1025  0.7098  1.9208
 3723SOL     OW11852   2.293   1.391   3.421 -0.3425 -0.2645  0.5452
 3723SOL    HW111853   2.228   1.414   3.488  0.2158  0.9765  0.6971
 3723SOL    HW211854   2.245   1.339   3.357 -0.6876 -2.3605  2.3754
 3724SOL     OW11855   0.211   6.017   0.121 -0.3304  0.0756 -0.4134
 3724SOL    HW111856   0.214   6.007   0.026 -1.1452  0.2294 -0.4614
 3724SOL    HW211857   0.119   6.007   0.144 -0.2834  1.0305  0.2522
 3725SOL     OW11858   4.293   1.823   2.180  0.2894  0.4367 -0.2217
 3725SOL    HW111859   4.251   1.901   2.142  1.7916  0.8828 -1.0612
 3725SOL    HW211860   4.296   1.841   2.274 -0.0698  1.0549 -0.3225
 3726SOL     OW11861   0.022   0.817   2.409 -0.0430  0.4246 -0.6281
 3726SOL    HW111862  -0.032   0.896   2.407 -0.4107  0.2007  0.0913
 3726SOL    HW211863   0.099   0.841   2.459  0.3940  0.6551 -1.3961
 3727SOL     OW11864   1.860   5.570   2.072 -0.5518  0.2235  0.1173
 3727SOL    HW111865   1.773   5.543   2.102 -0.1289  0.0203  1.2223
 3727SOL    HW211866   1.902   5.489   2.046 -0.3186  0.1832  0.6134
 3728SOL     OW11867   3.087   2.877   4.056 -0.3622  0.3032  0.6341
 3728SOL    HW111868   3.061   2.866   3.964 -0.8714 -2.0510  0.9845
 3728SOL    HW211869   3.183   2.879   4.054 -0.3754  1.4579 -0.0095
 3729SOL     OW11870   6.245   6.160   6.281  0.8924  0.3224  0.0728
 3729SOL    HW111871   6.210   6.179   6.194  2.7511  1.2691 -0.5177
 3729SOL    HW211872   6.224   6.238   6.332  1.5884  0.6506 -0.1258
 3730SOL     OW11873   3.769   0.236   2.601 -0.5612 -0.1792  0.5109
 3730SOL    HW111874   3.784   0.309   2.660 -1.0815  0.1543  0.2398
 3730SOL    HW211875   3.675   0.222   2.604 -0.5651 -0.3098 -0.0556
 3731SOL     OW11876   4.430   4.850   2.373 -0.0894 -0.2914 -0.0754
 3731SOL    HW111877   4.470   4.763   2.368 -0.6203 -0.6407  1.4326
 3731SOL    HW211878   4.448   4.880   2.462 -0.1742  1.0376 -0.4771
 3732SOL     OW11879   0.399   5.700   3.223 -0.4330 -0.3094 -0.6640
 3732SOL    HW111880   0.445   5.705   3.306 -0.5312 -0.5749 -0.5920
 3732SOL    HW211881   0.323   5.757   3.234 -1.3964 -1.6408  0.0511
 3733SOL     OW11882   5.798   0.422   5.494  0.0701  0.3048  0.1836
 3733SOL    HW111883   5.774   0.496   5.438 -1.5082 -0.0525  0.3543
 3733SOL    HW211884   5.809   0.462   5.581 -1.8589  0.2124  0.5044
 3734SOL     OW11885   0.655   4.514   0.350  0.4397 -0.0052 -0.3266
 3734SOL    HW111886   0.714   4.455   0.302  0.1356 -1.0497  0.5401
 3734SOL    HW211887   0.570   4.470   0.347  0.1601  0.4997  0.1409
 3735SOL     OW11888   1.110   0.658   1.603 -0.0301 -0.3753  0.5010
 3735SOL    HW111889   1.126   0.716   1.677  3.0712 -0.2679 -0.1393
 3735SOL    HW211890   1.108   0.716   1.527 -3.0813 -0.4947  0.3775
 3736SOL     OW11891   5.160   1.941   4.118 -0.4492 -0.4987 -0.2053
 3736SOL    HW111892   5.219   1.909   4.049 -0.4612 -1.2447  0.1151
 3736SOL    HW211893   5.131   2.026   4.086  1.0252  0.0328 -0.2331
 3737SOL     OW11894   2.508   2.463   1.733  0.0009  0.0365  0.1404
 3737SOL    HW111895   2.428   2.419   1.762  1.8168 -1.9054  2.6405
 3737SOL    HW211896   2.537   2.412   1.657 -0.1837 -0.4035  0.3621
 3738SOL     OW11897   4.953   3.442   1.113 -0.2907  0.2604 -0.7044
 3738SOL    HW111898   4.888   3.403   1.055  0.2547  0.7927 -1.7089
 3738SOL    HW211899   5.029   3.384   1.107 -0.4398 -0.0070 -0.0492
 3739SOL     OW11900   6.358   1.951   4.696  0.0491  0.2688  0.1287
 3739SOL    HW111901   6.312   1.891   4.754 -1.3667 -0.2365 -1.4565
 3739SOL    HW211902   6.303   2.029   4.694 -1.0502 -0.4905 -2.0995
 3740SOL     OW11903   3.617   3.045   4.476 -0.0157 -0.3735 -0.0574
 3740SOL    HW111904   3.697   3.087   4.507 -0.5949  0.2307  0.6663
 3740SOL    HW211905   3.566   3.117   4.439  0.0852 -0.8739 -1.2085
 3741SOL     OW11906   0.318   3.786   0.517 -0.2789 -0.4322 -0.4138
 3741SOL    HW111907   0.306   3.722   0.587  0.4371  0.4101  0.5117
 3741SOL    HW211908   0.374   3.853   0.555 -0.1382  0.2159 -1.7039
 3742SOL     OW11909   3.088   5.699   2.458 -0.9099  0.1730 -0.1563
 3742SOL    HW111910   3.116   5.744   2.538 -0.0617 -0.9299  0.1855
 3742SOL    HW211911   2.993   5.697   2.464 -0.9829  1.9882 -0.2297
 3743SOL     OW11912   6.080   2.681   2.426  0.3046 -0.5793 -0.2458
 3743SOL    HW111913   6.171   2.654   2.415  1.1707  1.5666  0.9701
 3743SOL    HW211914   6.062   2.667   2.519 -0.0773  0.4223 -0.1522
 3744SOL     OW11915   5.578   3.285   2.054  0.5882 -0.6464  0.2929
 3744SOL    HW111916   5.615   3.276   1.966 -2.3494 -1.4653 -0.9891
 3744SOL    HW211917   5.557   3.196   2.080 -1.3562 -0.1749  0.4670
 3745SOL     OW11918   6.112   4.498   5.487 -0.2635  0.0674  0.0698
 3745SOL    HW111919   6.206   4.513   5.498 -0.1962  1.3801 -1.8606
 3745SOL    HW211920   6.071   4.569   5.535 -0.1954  0.7652 -0.8863
 3746SOL     OW11921   3.031   5.712   0.303  0.2696  0.4484  0.3896
 3746SOL    HW111922   2.977   5.664   0.240  0.0055 -2.1176  2.4182
 3746SOL    HW211923   2.969   5.761   0.356  0.1518 -0.1901  0.8574
 3747SOL     OW11924   4.444   5.507   3.219  0.4547  0.3130  0.0164
 3747SOL    HW111925   4.497   5.544   3.149  2.5627 -2.7040 -0.1945
 3747SOL    HW211926   4.363   5.479   3.175  0.5608  0.9405 -0.5976
 3748SOL     OW11927   0.414   4.432   0.314  0.1368 -0.4969  0.3225
 3748SOL    HW111928   0.355   4.490   0.363 -0.8689  0.0953 -1.4830
 3748SOL    HW211929   0.393   4.344   0.347 -0.0006 -0.0647  1.4343
 3749SOL     OW11930   3.642   0.700   4.930  0.1350 -0.4052  0.0963
 3749SOL    HW111931   3.684   0.783   4.909  0.2540 -0.4344  0.2176
 3749SOL    HW211932   3.705   0.633   4.902 -0.8621 -0.5198 -2.0303
 3750SOL     OW11933   3.137   6.384   5.217 -0.1147 -0.4514 -0.0723
 3750SOL    HW111934   3.119   6.340   5.300 -1.5878 -0.6147 -0.4477
 3750SOL    HW211935   3.224   6.354   5.192  0.3358 -0.4373  1.3808
 3751SOL     OW11936   5.494   0.177   3.099  0.3592 -0.2505  0.5630
 3751SOL    HW111937   5.505   0.270   3.117 -1.9432  0.0345  0.7999
 3751SOL    HW211938   5.561   0.157   3.033  0.4161  1.7228 -0.0279
 3752SOL     OW11939   4.717   0.038   5.365 -0.5028  0.8080  0.0141
 3752SOL    HW111940   4.645   0.015   5.306 -1.6192  0.7356  1.3278
 3752SOL    HW211941   4.713  -0.029   5.434 -0.2691  1.7759  1.0003
 3753SOL     OW11942   4.194   0.087   0.862  0.2133  0.7428  0.0466
 3753SOL    HW111943   4.251   0.102   0.787  0.1367  2.2890  0.2478
 3753SOL    HW211944   4.253   0.086   0.937  0.1216  1.0553  0.1276
 3754SOL     OW11945   6.211   0.158   1.753 -0.3270 -0.0900  0.2712
 3754SOL    HW111946   6.258   0.095   1.807  1.4024  0.4199 -0.5598
 3754SOL    HW211947   6.220   0.241   1.800  0.0345  0.0938 -0.1059
 3755SOL     OW11948   1.804   0.032   2.687  0.1974  0.0594 -0.0268
 3755SOL    HW111949   1.743  -0.033   2.653 -1.9981  1.8113  0.3320
 3755SOL    HW211950   1.856  -0.016   2.752 -1.1931 -1.3752  0.0794
 3756SOL     OW11951   4.881   3.450   4.835  0.0677  0.0870  0.5071
 3756SOL    HW111952   4.933   3.531   4.836  0.7977 -0.3693  0.0192
 3756SOL    HW211953   4.859   3.436   4.743  1.4297 -1.1839  0.3296
 3757SOL     OW11954   0.928   1.229   3.414  0.2474  0.3009  0.3940
 3757SOL    HW111955   1.007   1.275   3.440  1.3210 -0.5775 -1.1089
 3757SOL    HW211956   0.885   1.205   3.496  1.4360  0.9729  1.2381
 3758SOL     OW11957   6.136   3.361   0.032 -0.9495 -0.2688 -0.0915
 3758SOL    HW111958   6.043   3.363   0.010 -1.0706 -0.7494  0.3551
 3758SOL    HW211959   6.142   3.297   0.102 -0.6759  1.5330  1.6432
 3759SOL     OW11960   0.389   2.243   3.790  0.1000  0.3396 -0.1563
 3759SOL    HW111961   0.460   2.257   3.727  1.1986  2.0738  1.3386
 3759SOL    HW211962   0.353   2.158   3.767  2.6150 -0.5742 -1.0841
 3760SOL     OW11963   1.603   6.256   0.104  0.3977  0.0617  0.7455
 3760SOL    HW111964   1.541   6.326   0.084  0.3578 -0.0798  0.3529
 3760SOL    HW211965   1.560   6.203   0.171 -0.3840 -0.6522 -0.2766
 3761SOL     OW11966   2.510   2.951   4.158  0.0828  0.5735  0.5065
 3761SOL    HW111967   2.546   2.947   4.070  1.2112 -0.5464  0.9870
 3761SOL    HW211968   2.416   2.961   4.146  0.2698  0.8758 -0.8028
 3762SOL     OW11969   6.061   4.207   1.534 -0.1645  0.5739 -0.5222
 3762SOL    HW111970   6.046   4.195   1.440  0.9808 -1.3268 -0.5039
 3762SOL    HW211971   6.137   4.265   1.539 -0.6792  1.2820 -0.7384
 3763SOL     OW11972   2.634   2.436   1.072 -0.1959 -0.0023  0.5685
 3763SOL    HW111973   2.600   2.353   1.039 -0.4176  1.0252 -1.9383
 3763SOL    HW211974   2.557   2.491   1.085  0.1248  0.7403 -0.5501
 3764SOL     OW11975   1.701   2.602   6.429  0.3749  0.3809 -0.0218
 3764SOL    HW111976   1.648   2.680   6.412 -0.4387 -0.5589 -2.1520
 3764SOL    HW211977   1.650   2.551   6.491  0.2171  0.8620  0.2485
 3765SOL     OW11978   0.786   3.990   1.955 -0.2797 -0.1309  0.5739
 3765SOL    HW111979   0.787   4.011   1.862  1.0034 -0.4467  0.4963
 3765SOL    HW211980   0.694   3.998   1.980 -0.6693 -0.1903 -0.7423
 3766SOL     OW11981   1.549   5.162   5.221 -0.7321  0.1723  0.5254
 3766SOL    HW111982   1.627   5.136   5.271 -0.2153 -0.0266 -0.3724
 3766SOL    HW211983   1.507   5.080   5.197 -0.8417  0.2617  0.4105
 3767SOL     OW11984   0.616   0.503   2.637 -0.0347 -0.6037 -0.7188
 3767SOL    HW111985   0.620   0.408   2.650  0.6000 -0.5252 -0.3211
 3767SOL    HW211986   0.529   0.528   2.668  0.7027 -0.6972  1.6088
 3768SOL     OW11987   3.353   0.333   3.107 -0.2137  0.3656 -0.3384
 3768SOL    HW111988   3.298   0.369   3.176 -2.4540  1.2437 -2.4212
 3768SOL    HW211989   3.357   0.239   3.126 -1.0421  0.5390  0.7955
 3769SOL     OW11990   2.142   0.848   0.191 -0.2564  0.0240  0.1085
 3769SOL    HW111991   2.061   0.886   0.224 -0.5197 -0.4000 -0.0524
 3769SOL    HW211992   2.120   0.814   0.105  0.1423  0.0818 -0.0204
 3770SOL     OW11993   1.060   0.616   4.520 -0.4214  0.7074  0.2057
 3770SOL    HW111994   1.133   0.629   4.580 -2.6329  0.6970  3.0731
 3770SOL    HW211995   1.057   0.522   4.505 -0.2990  0.6259  0.6940
 3771SOL     OW11996   3.240   1.910   5.647  0.3745  0.0715 -0.2524
 3771SOL    HW111997   3.216   1.990   5.601 -1.1074 -0.0700  0.2158
 3771SOL    HW211998   3.322   1.930   5.690 -0.3993  1.6419  0.5570
 3772SOL     OW11999   0.666   0.503   5.352 -0.4955 -0.2288  0.1738
 3772SOL    HW112000   0.740   0.444   5.344  0.0050  0.2906  0.8725
 3772SOL    HW212001   0.680   0.570   5.285 -0.7778 -0.5933 -0.2534
 3773SOL     OW12002   4.364   0.361   2.511  0.3606  0.1012 -0.3186
 3773SOL    HW112003   4.338   0.385   2.599 -1.5363  1.9079 -1.2805
 3773SOL    HW212004   4.378   0.267   2.514 -0.1893  0.0523  1.7748
 3774SOL     OW12005   5.806   1.112   6.443 -0.4534  0.1707  0.0288
 3774SOL    HW112006   5.883   1.167   6.430 -0.0644 -0.3639  0.0775
 3774SOL    HW212007   5.746   1.167   6.494 -0.0303  0.5176  0.1540
 3775SOL     OW12008   1.751   0.280   2.983  0.2352  0.3126 -0.4488
 3775SOL    HW112009   1.755   0.189   3.012 -1.1423 -0.1463 -1.5324
 3775SOL    HW212010   1.674   0.316   3.027 -0.5649  0.2488 -1.7184
 3776SOL     OW12011   1.954   0.168   3.143  0.6493 -0.0722  0.1434
 3776SOL    HW112012   1.975   0.077   3.126  0.9040 -0.2504  1.3182
 3776SOL    HW212013   1.966   0.212   3.059  3.9498 -0.4897  0.2677
 3777SOL     OW12014   4.823   5.618   2.573  0.1766 -0.6362  0.2278
 3777SOL    HW112015   4.764   5.547   2.599 -0.4458 -0.0297  0.5025
 3777SOL    HW212016   4.852   5.655   2.656  0.3273 -0.4307  0.0820
 3778SOL     OW12017   3.574   0.287   4.740  0.1061 -0.2391  0.2188
 3778SOL    HW112018   3.603   0.299   4.831  0.6509  1.8543 -0.1560
 3778SOL    HW212019   3.655   0.268   4.692  0.1494  0.6313 -0.0848
 3779SOL     OW12020   5.894   2.714   6.275  0.1393 -0.1691 -0.5626
 3779SOL    HW112021   5.867   2.734   6.364  0.5064 -0.9371 -0.2721
 3779SOL    HW212022   5.865   2.790   6.223 -0.8493 -0.1143  0.0509
 3780SOL     OW12023   2.648   3.792   1.266  0.2978 -0.6419 -0.1907
 3780SOL    HW112024   2.638   3.830   1.353  0.0991  0.8182 -0.8287
 3780SOL    HW212025   2.731   3.744   1.270 -0.3348 -1.7033  1.1710
 3781SOL     OW12026   4.190   1.259   3.924  0.0790  0.1738  0.2758
 3781SOL    HW112027   4.115   1.311   3.894 -1.8302 -1.3528  2.0856
 3781SOL    HW212028   4.189   1.269   4.019 -0.0163 -2.6147  0.6399
 3782SOL     OW12029   1.184   3.473   4.134 -0.7319 -0.1610  0.1188
 3782SOL    HW112030   1.227   3.392   4.163 -3.0679 -0.7939  2.2279
 3782SOL    HW212031   1.090   3.454   4.142 -1.3872  2.1519 -1.1871
 3783SOL     OW12032   2.428   0.129   4.890  0.5691 -0.2715 -0.3294
 3783SOL    HW112033   2.448   0.085   4.972  2.7058 -0.2337 -0.7705
 3783SOL    HW212034   2.486   0.206   4.890 -1.3411  1.2268 -0.6699
 3784SOL     OW12035   1.651   1.193   4.620  0.5147 -0.0749 -0.3192
 3784SOL    HW112036   1.576   1.138   4.599  0.3904  0.2831 -0.8217
 3784SOL    HW212037   1.726   1.133   4.620  0.3718 -0.2525 -0.8018
 3785SOL     OW12038   1.088   3.954   3.189 -0.2638 -0.0571 -0.3124
 3785SOL    HW112039   1.116   4.025   3.131 -0.1295  1.3352  1.3821
 3785SOL    HW212040   1.111   3.874   3.142 -0.0134  1.0114 -2.0897
 3786SOL     OW12041   2.643   5.083   6.437 -0.5282 -0.0534 -0.2165
 3786SOL    HW112042   2.603   5.146   6.377  1.1760  1.3857  0.0545
 3786SOL    HW212043   2.604   5.102   6.522 -0.5649  0.1536 -0.2784
 3787SOL     OW12044   3.450   3.011   3.294 -0.5027 -0.4053  0.3237
 3787SOL    HW112045   3.385   3.078   3.317 -1.6204 -1.2047 -0.4217
 3787SOL    HW212046   3.468   3.027   3.201 -0.1063 -0.6009  0.3649
 3788SOL     OW12047   0.847   3.479   5.225 -0.1231  0.2076  0.7316
 3788SOL    HW112048   0.765   3.501   5.268 -0.9369 -0.0583 -0.6119
 3788SOL    HW212049   0.820   3.442   5.141  1.4074  1.7634 -0.5105
 3789SOL     OW12050   0.858   6.185   3.562  0.4562 -0.0542  0.3654
 3789SOL    HW112051   0.849   6.155   3.653 -0.1245 -0.0729  0.3043
 3789SOL    HW212052   0.800   6.128   3.512 -0.9413  1.3592  0.2998
 3790SOL     OW12053   3.381   6.279   5.195  0.2562 -0.1778  0.0329
 3790SOL    HW112054   3.399   6.199   5.245 -0.8904 -1.6759 -1.7968
 3790SOL    HW212055   3.466   6.305   5.160  0.8635  0.1964  1.6817
 3791SOL     OW12056   4.025   4.975   2.380  0.5151 -0.1198  0.2979
 3791SOL    HW112057   4.089   5.046   2.388 -0.1115  0.5214 -0.2898
 3791SOL    HW212058   4.070   4.899   2.416  1.3436  0.4832  0.5749
 3792SOL     OW12059   0.707   0.973   3.931  0.3820 -0.1226 -0.1931
 3792SOL    HW112060   0.712   0.931   4.016 -0.0149 -0.4979 -0.3499
 3792SOL    HW212061   0.615   0.964   3.905  0.1469  1.3462  0.0205
 3793SOL     OW12062   3.534   5.779   2.610 -0.4939 -0.2074  0.6638
 3793SOL    HW112063   3.586   5.848   2.649 -1.0909  0.1672  0.8117
 3793SOL    HW212064   3.596   5.708   2.594  0.1085  0.3337  0.5720
 3794SOL     OW12065   4.416   4.859   6.284 -0.3258  0.3143  0.0396
 3794SOL    HW112066   4.477   4.834   6.354 -0.5173  0.8620  0.4118
 3794SOL    HW212067   4.436   4.951   6.266 -0.6102  0.3152 -0.2868
 3795SOL     OW12068   0.721   5.080   4.874  0.3104 -0.1145  0.1865
 3795SOL    HW112069   0.772   5.145   4.923  1.3809 -1.2366  0.6032
 3795SOL    HW212070   0.641   5.068   4.925  0.6383  0.0052  0.7330
 3796SOL     OW12071   4.240   4.621   3.733 -0.2697 -0.3707  0.1086
 3796SOL    HW112072   4.148   4.606   3.710 -0.6475  0.8657  0.7069
 3796SOL    HW212073   4.273   4.679   3.665  0.6231 -2.2323 -1.1219
 3797SOL     OW12074   4.382   3.527   3.720  0.6421 -0.0093  0.1176
 3797SOL    HW112075   4.384   3.604   3.777  0.4501 -1.4765  2.2030
 3797SOL    HW212076   4.319   3.550   3.652 -0.4036  1.2220  1.4306
 3798SOL     OW12077   0.012   0.394   2.940 -0.0148 -0.1781 -0.4287
 3798SOL    HW112078  -0.020   0.304   2.928 -0.8665  0.0398  0.1027
 3798SOL    HW212079   0.106   0.384   2.954 -0.1117 -0.9996 -0.2993
 3799SOL     OW12080   3.100   3.801   2.636  0.1813 -0.7156  0.0543
 3799SOL    HW112081   3.071   3.717   2.600  1.6440 -1.2414  0.0377
 3799SOL    HW212082   3.177   3.779   2.689  0.4857  0.5911  0.1804
 3800SOL     OW12083   2.589   1.908   0.582 -0.2635  0.2109 -0.0410
 3800SOL    HW112084   2.526   1.838   0.565  0.1427 -0.0836 -0.3322
 3800SOL    HW212085   2.666   1.885   0.531  0.2804  0.2956  0.7136
 3801SOL     OW12086   3.427   1.666   1.138  0.1842  0.5885  0.2221
 3801SOL    HW112087   3.483   1.720   1.082  3.3092  0.0490  2.5844
 3801SOL    HW212088   3.407   1.589   1.084  0.7546  1.3369 -1.1039
 3802SOL     OW12089   5.256   4.785   1.130  0.1607  0.4149 -0.3534
 3802SOL    HW112090   5.247   4.871   1.170  0.2887  0.6141 -0.7503
 3802SOL    HW212091   5.186   4.733   1.169 -0.6879  1.0380 -1.0060
 3803SOL     OW12092   3.430   2.020   6.278  0.1988  0.6011 -0.2071
 3803SOL    HW112093   3.485   2.014   6.200  0.8358 -0.8772  0.3203
 3803SOL    HW212094   3.346   1.983   6.251  1.1123 -2.0933  0.3594
 3804SOL     OW12095   6.271   0.463   3.640  0.0906 -0.2917  1.0274
 3804SOL    HW112096   6.247   0.438   3.729 -0.0779  0.9657  1.3512
 3804SOL    HW212097   6.216   0.409   3.584  0.9144 -1.8325  1.6504
 3805SOL     OW12098   4.666   2.080   4.927  0.0324 -0.5578  0.3745
 3805SOL    HW112099   4.675   2.173   4.911  0.5620 -0.3822  1.5665
 3805SOL    HW212100   4.574   2.061   4.906  0.5543 -0.3646 -2.4928
 3806SOL     OW12101   1.216   0.077   5.486 -0.6628  0.1579  0.2390
 3806SOL    HW112102   1.187   0.161   5.451  1.7112  1.0294  0.2010
 3806SOL    HW212103   1.298   0.096   5.531  0.7829 -2.3592 -1.0811
 3807SOL     OW12104   0.674   5.787   3.070 -0.6852  0.7827 -0.1832
 3807SOL    HW112105   0.723   5.734   3.006 -0.3413  0.6970  0.1480
 3807SOL    HW212106   0.663   5.728   3.145 -1.3988  0.7630 -0.2975
 3808SOL     OW12107   1.848   1.004   4.576  0.3252 -0.2715 -0.1715
 3808SOL    HW112108   1.916   1.071   4.573  0.7700 -0.5750  1.5874
 3808SOL    HW212109   1.896   0.922   4.592 -0.4265 -0.4507  1.3642
 3809SOL     OW12110   2.593   2.580   2.006 -0.3876  0.5314  0.1646
 3809SOL    HW112111   2.648   2.636   1.952  0.7261  0.9105  1.6183
 3809SOL    HW212112   2.597   2.494   1.965 -2.1534  1.4239 -2.1384
 3810SOL     OW12113   3.541   2.934   4.730  0.3520  0.0165 -0.1125
 3810SOL    HW112114   3.534   2.940   4.635 -1.1627 -2.1673 -0.2029
 3810SOL    HW212115   3.630   2.902   4.745  0.8433  1.0472 -0.7179
 3811SOL     OW12116   1.039   0.324   0.444 -0.0419  0.3301 -0.6250
 3811SOL    HW112117   1.039   0.244   0.391 -2.5461 -0.6478  0.6878
 3811SOL    HW212118   1.008   0.392   0.385  1.2280  0.1852 -1.5028
 3812SOL     OW12119   2.341   5.308   6.219 -0.2119  0.0329 -0.3025
 3812SOL    HW112120   2.326   5.213   6.227  0.1204 -0.1360 -1.4129
 3812SOL    HW212121   2.326   5.342   6.306  0.7100 -1.1980  0.3747
 3813SOL     OW12122   2.009   4.159   4.631 -0.4808 -0.6054 -0.4458
 3813SOL    HW112123   1.954   4.083   4.650  0.1878 -0.5112  2.4181
 3813SOL    HW212124   1.968   4.200   4.555 -2.6977 -2.0699 -0.1426
 3814SOL     OW12125   1.324   1.542   3.270  0.0350 -0.5806  0.0394
 3814SOL    HW112126   1.263   1.471   3.249  0.6554 -0.8494 -0.9164
 3814SOL    HW212127   1.297   1.571   3.357  0.2187 -2.4605  0.7724
 3815SOL     OW12128   2.419   6.388   2.371 -0.0230  0.1182 -0.6060
 3815SOL    HW112129   2.488   6.411   2.433 -0.2985 -0.6207 -0.0136
 3815SOL    HW212130   2.432   6.449   2.297  1.0222  0.2316 -0.3472
 3816SOL     OW12131   3.385   3.082   1.581  0.0963 -0.1694  0.1191
 3816SOL    HW112132   3.368   3.041   1.665  1.4320 -0.2397  0.3750
 3816SOL    HW212133   3.342   3.168   1.586 -1.4417 -0.9083  0.1333
 3817SOL     OW12134   3.417   2.353   0.303  0.0860 -0.7089  0.5852
 3817SOL    HW112135   3.455   2.267   0.286 -1.9560 -1.6124  0.2788
 3817SOL    HW212136   3.474   2.392   0.369  2.3942 -1.3005 -0.9293
 3818SOL     OW12137   4.868   5.557   5.237  0.0722  0.0163 -0.1336
 3818SOL    HW112138   4.777   5.529   5.241 -0.0176 -0.2082 -2.3984
 3818SOL    HW212139   4.880   5.610   5.316 -1.9617 -0.0469  0.2820
 3819SOL     OW12140   4.479   5.414   1.059 -0.0608 -0.7052 -0.3712
 3819SOL    HW112141   4.490   5.375   1.146 -0.1695  0.6609  0.2913
 3819SOL    HW212142   4.434   5.347   1.008 -0.0087 -1.5337  0.6278
 3820SOL     OW12143   1.401   1.702   0.401  0.5881  0.5671  0.5644
 3820SOL    HW112144   1.455   1.631   0.437  0.1658  0.1091  0.3228
 3820SOL    HW212145   1.430   1.711   0.310  0.5705  0.6285  0.5648
 3821SOL     OW12146   3.903   3.044   5.972 -0.3687 -1.0749  0.2020
 3821SOL    HW112147   3.818   3.035   6.014 -1.1219  0.7363 -0.7998
 3821SOL    HW212148   3.883   3.053   5.878  0.6265  1.8687  0.1526
 3822SOL     OW12149   2.791   4.412   5.806  0.1080 -0.0762  0.2185
 3822SOL    HW112150   2.748   4.492   5.835  1.0440  0.6432 -0.2869
 3822SOL    HW212151   2.876   4.412   5.850  0.7912  0.0848 -1.0275
 3823SOL     OW12152   4.988   2.855   2.454 -0.2265  0.0129  0.3630
 3823SOL    HW112153   5.003   2.932   2.400 -2.4019 -0.8371 -1.6480
 3823SOL    HW212154   4.925   2.885   2.520  0.2496  0.3630  0.6640
 3824SOL     OW12155   0.726   4.256   5.669  0.5561  0.0896  0.1904
 3824SOL    HW112156   0.668   4.180   5.666  0.6899 -0.0732  1.4028
 3824SOL    HW212157   0.802   4.231   5.616  1.2190 -1.1695  1.6666
 3825SOL     OW12158   1.738   2.220   3.954 -0.0765  0.0358 -0.3372
 3825SOL    HW112159   1.680   2.280   3.907 -1.5263  0.4036  1.8254
 3825SOL    HW212160   1.706   2.132   3.931 -0.7410  0.2095 -0.0889
 3826SOL     OW12161   1.471   0.330   4.725 -0.2734 -0.5341  0.3566
 3826SOL    HW112162   1.492   0.258   4.666  0.4888  0.2168 -0.3175
 3826SOL    HW212163   1.549   0.338   4.780  0.4447  0.9669 -0.8145
 3827SOL     OW12164   4.870   4.881   4.330 -0.1323  0.0016 -0.1359
 3827SOL    HW112165   4.869   4.975   4.345  0.0986 -0.3183  2.2985
 3827SOL    HW212166   4.947   4.850   4.378 -1.7982 -1.7331  1.6222
 3828SOL     OW12167   1.617   0.517   2.752 -0.5207 -0.4899  0.3167
 3828SOL    HW112168   1.587   0.561   2.672 -2.8801 -0.2087  1.2527
 3828SOL    HW212169   1.655   0.435   2.721 -1.6303 -0.5277 -1.1130
 3829SOL     OW12170   5.493   1.389   1.035  0.1133 -0.1044 -0.4007
 3829SOL    HW112171   5.402   1.360   1.036  0.3404 -0.8798 -1.2849
 3829SOL    HW212172   5.544   1.308   1.034  0.8219  0.3233  0.0839
 3830SOL     OW12173   5.302   0.685   2.570  0.0088  0.3437  0.9748
 3830SOL    HW112174   5.384   0.639   2.553  0.2665  1.2240 -0.3465
 3830SOL    HW212175   5.234   0.618   2.558  0.4408  0.0124  0.2589
 3831SOL     OW12176   2.875   1.829   0.726  0.2969  0.6806 -0.4928
 3831SOL    HW112177   2.812   1.791   0.788 -0.6519  0.5117 -1.5309
 3831SOL    HW212178   2.935   1.756   0.706 -0.3173  0.2834 -0.9350
 3832SOL     OW12179   0.782   6.246   4.682 -0.1858 -0.4714  0.0341
 3832SOL    HW112180   0.850   6.226   4.618 -0.5525  0.3399 -0.6236
 3832SOL    HW212181   0.745   6.328   4.653 -0.7674 -0.3872  0.9668
 3833SOL     OW12182   5.923   1.584   0.105 -0.1580  0.2715 -0.2832
 3833SOL    HW112183   5.949   1.663   0.151  0.7417 -1.0183  1.5636
 3833SOL    HW212184   5.830   1.573   0.127 -0.2055  0.6521 -0.2977
 3834SOL     OW12185   4.677   2.282   4.737  0.7576  0.0199 -0.1523
 3834SOL    HW112186   4.747   2.326   4.688  1.0766 -0.5676 -0.2377
 3834SOL    HW212187   4.622   2.243   4.670  0.9606 -0.4318 -0.0624
 3835SOL     OW12188   5.559   6.005   4.730  0.1028 -0.1638  0.1250
 3835SOL    HW112189   5.628   6.056   4.773 -0.6801  1.0854 -0.0428
 3835SOL    HW212190   5.486   6.066   4.721 -0.7370 -1.2141 -0.4608
 3836SOL     OW12191   0.812   4.201   3.878  0.1057  0.4287 -0.1370
 3836SOL    HW112192   0.815   4.130   3.942 -0.7163  1.8680  1.5936
 3836SOL    HW212193   0.904   4.214   3.853  0.4423 -0.2476  0.6901
 3837SOL     OW12194   5.181   5.415   0.189  0.5483 -0.0734  0.0202
 3837SOL    HW112195   5.223   5.442   0.270  3.3107  0.5196 -1.4744
 3837SOL    HW212196   5.247   5.360   0.145 -0.4286  0.4404 -2.2456
 3838SOL     OW12197   6.355   0.979   4.689 -0.3696  0.3880  0.3770
 3838SOL    HW112198   6.375   0.953   4.600  0.2300  2.4578 -0.1611
 3838SOL    HW212199   6.378   0.903   4.743  3.1687  0.4194 -0.8326
 3839SOL     OW12200   4.674   5.221   1.514 -0.1504  0.0464  0.5144
 3839SOL    HW112201   4.752   5.269   1.544 -1.0598  1.3284  0.8920
 3839SOL    HW212202   4.607   5.241   1.579 -1.9577  2.2529 -1.8882
 3840SOL     OW12203   3.417   1.702   5.903 -0.3198  0.3246 -0.1819
 3840SOL    HW112204   3.371   1.687   5.986 -1.2700 -0.3564 -0.8164
 3840SOL    HW212205   3.353   1.749   5.849  0.1574  0.4172 -0.6690
 3841SOL     OW12206   4.442   5.667   3.435 -0.0360 -0.2536  0.3688
 3841SOL    HW112207   4.482   5.608   3.499  0.4557 -1.6451 -1.1462
 3841SOL    HW212208   4.433   5.613   3.356  0.4652  1.7215 -1.1086
 3842SOL     OW12209   2.738   4.196   1.259  0.0387  0.6296 -0.0118
 3842SOL    HW112210   2.804   4.138   1.222  0.1241  1.8924 -1.9696
 3842SOL    HW212211   2.655   4.164   1.222 -0.1412  0.6833  0.3360
 3843SOL     OW12212   1.638   1.031   2.407  0.2979  0.0979 -0.0013
 3843SOL    HW112213   1.719   1.055   2.361  0.9413  0.0629  1.0748
 3843SOL    HW212214   1.570   1.039   2.341  1.2948 -0.7364 -1.1803
 3844SOL     OW12215   1.910   2.618   1.524 -0.1093  0.5574 -0.2237
 3844SOL    HW112216   1.845   2.587   1.461  2.5104  0.2676 -3.0233
 3844SOL    HW212217   1.897   2.713   1.526  0.9963  0.8534 -2.8975
 3845SOL     OW12218   3.787   5.134   2.237 -0.5574 -0.5013 -0.0877
 3845SOL    HW112219   3.854   5.160   2.301 -0.7501 -0.3012  0.0364
 3845SOL    HW212220   3.835   5.089   2.169  0.3666  3.1650 -2.1319
 3846SOL     OW12221   3.023   0.655   6.281  0.2908  0.4540 -0.3671
 3846SOL    HW112222   2.972   0.638   6.201  1.4887  0.9602 -1.2785
 3846SOL    HW212223   3.010   0.748   6.298  1.7416  0.8398 -1.2408
 3847SOL     OW12224   0.272   5.797   4.560 -0.2549 -0.4643 -0.1002
 3847SOL    HW112225   0.338   5.819   4.626 -0.3496  1.1345 -0.4999
 3847SOL    HW212226   0.203   5.862   4.572 -0.4233 -0.3421 -1.5715
 3848SOL     OW12227   1.601   4.494   0.390 -0.0601 -0.1887 -0.3923
 3848SOL    HW112228   1.589   4.536   0.305  2.6082  1.8038  0.0872
 3848SOL    HW212229   1.553   4.550   0.451 -1.6545 -1.4054 -0.4652
 3849SOL     OW12230   2.590   1.401   6.034  0.1765 -0.2156  0.1115
 3849SOL    HW112231   2.599   1.457   6.111 -1.0966  0.3138 -0.0931
 3849SOL    HW212232   2.501   1.417   6.004 -0.0086 -1.9089 -0.3181
 3850SOL     OW12233   2.377   0.380   3.727 -0.3576  0.6013  0.1973
 3850SOL    HW112234   2.340   0.292   3.735 -0.7637  0.5149 -2.0375
 3850SOL    HW212235   2.438   0.387   3.801 -1.8233 -0.7544  1.6286
 3851SOL     OW12236   4.517   6.030   4.395  0.2932  0.1107  0.7181
 3851SOL    HW112237   4.596   5.987   4.362  0.2251  0.7178 -0.2803
 3851SOL    HW212238   4.477   6.069   4.317 -0.9161 -0.0648  1.2319
 3852SOL     OW12239   2.595   0.495   6.460 -0.7015 -0.1741 -0.0936
 3852SOL    HW112240   2.649   0.570   6.435 -1.2695  0.0653 -0.6552
 3852SOL    HW212241   2.614   0.429   6.393 -2.1658  0.4370 -1.1827
 3853SOL     OW12242   5.763   2.600   2.395  0.7959 -0.3256 -0.1276
 3853SOL    HW112243   5.690   2.618   2.453  0.6072 -1.5717  0.0521
 3853SOL    HW212244   5.840   2.602   2.451  0.5634 -2.0083  0.2931
 3854SOL     OW12245   2.291   0.074   0.306  0.3406 -0.5853  0.3643
 3854SOL    HW112246   2.372   0.089   0.257 -0.7781  2.1711 -0.8790
 3854SOL    HW212247   2.289   0.145   0.370 -1.1643 -0.4713  0.2208
 3855SOL     OW12248   2.496   2.960   1.409 -0.2692 -0.1062 -0.3462
 3855SOL    HW112249   2.431   2.961   1.480 -0.8309 -1.5705 -0.7968
 3855SOL    HW212250   2.452   2.913   1.338  0.9719 -0.3429 -0.9755
 3856SOL     OW12251   0.813   5.852   1.081  0.1136 -0.1763  0.4135
 3856SOL    HW112252   0.837   5.759   1.090 -0.4116 -0.2855  0.7843
 3856SOL    HW212253   0.897   5.898   1.075  0.3735 -0.7459 -0.6148
 3857SOL     OW12254   3.316   5.441   3.948  0.2428  0.5621 -0.3107
 3857SOL    HW112255   3.405   5.465   3.975  0.3357  0.7524 -0.7838
 3857SOL    HW212256   3.261   5.510   3.984  0.4164  1.0541 -0.9709
 3858SOL     OW12257   0.193   0.753   4.820 -0.6527 -0.5282  0.4298
 3858SOL    HW112258   0.212   0.847   4.824 -3.5692  0.2243 -0.8770
 3858SOL    HW212259   0.226   0.727   4.734  1.0173 -0.9992  1.1648
 3859SOL     OW12260   2.429   3.301   0.735 -0.0953 -0.4533 -0.3429
 3859SOL    HW112261   2.401   3.382   0.779 -0.8413 -1.1529  0.4863
 3859SOL    HW212262   2.376   3.297   0.656 -0.0514 -0.1299 -0.3900
 3860SOL     OW12263   5.188   2.471   4.904 -0.8668  0.1664 -0.3552
 3860SOL    HW112264   5.151   2.541   4.850 -1.4002  0.5313  0.4653
 3860SOL    HW212265   5.256   2.513   4.956  0.1685 -0.3368 -1.2622
 3861SOL     OW12266   1.293   1.412   2.574 -0.2290  0.1626  0.0411
 3861SOL    HW112267   1.376   1.460   2.575 -0.0129 -0.2044 -0.1986
 3861SOL    HW212268   1.314   1.329   2.531 -0.8709  0.3470 -0.6365
 3862SOL     OW12269   1.629   3.659   2.501  0.5922 -0.3786 -0.0211
 3862SOL    HW112270   1.622   3.644   2.596  1.0262  0.5173  0.1666
 3862SOL    HW212271   1.584   3.743   2.487  1.8055  0.2434 -0.3593
 3863SOL     OW12272   2.099   5.067   5.601 -0.7162  0.1176  0.1360
 3863SOL    HW112273   2.177   5.033   5.558 -1.8204 -3.2100  0.4910
 3863SOL    HW212274   2.060   5.126   5.537  0.8345 -0.0017 -0.9750
 3864SOL     OW12275   0.837   1.858   4.202 -0.7509 -0.2325 -0.1381
 3864SOL    HW112276   0.837   1.898   4.115  0.8260  0.5039  0.1560
 3864SOL    HW212277   0.929   1.864   4.230 -1.0655 -1.3008  1.1898
 3865SOL     OW12278   3.407   3.490   4.099 -0.3671  0.3813 -0.5782
 3865SOL    HW112279   3.500   3.473   4.112 -0.3017  0.4407 -0.9646
 3865SOL    HW212280   3.390   3.570   4.150 -0.1057  0.6323 -0.8811
 3866SOL     OW12281   1.746   4.198   3.849 -1.2029  0.0183  0.1243
 3866SOL    HW112282   1.780   4.235   3.931 -0.1919  2.0301 -1.1047
 3866SOL    HW212283   1.825   4.172   3.801 -1.7451 -0.4952 -0.4981
 3867SOL     OW12284   5.852   6.053   4.352  0.4457 -0.4805 -0.6438
 3867SOL    HW112285   5.941   6.088   4.345 -1.1375  4.4030  0.1576
 3867SOL    HW212286   5.806   6.092   4.278 -0.8368 -4.3627 -2.1419
 3868SOL     OW12287   3.231   3.278   6.457 -0.3132  0.4258  0.2517
 3868SOL    HW112288   3.175   3.271   6.380  0.3259  0.3226 -0.2112
 3868SOL    HW212289   3.187   3.342   6.513 -0.9275  0.2887 -0.0718
 3869SOL     OW12290   2.886   3.665   1.289 -0.5315 -0.0552  0.0196
 3869SOL    HW112291   2.878   3.575   1.258  0.1066 -0.2515  0.3866
 3869SOL    HW212292   2.968   3.696   1.250 -0.1983  0.0020  0.7578
 3870SOL     OW12293   1.682   0.544   6.166 -0.2443 -0.1037  0.3593
 3870SOL    HW112294   1.622   0.556   6.093  1.3195  0.9756 -0.8161
 3870SOL    HW212295   1.739   0.472   6.139  0.6866  0.6520  0.2200
 3871SOL     OW12296   2.219   5.043   6.293 -0.8383  0.2226  0.4412
 3871SOL    HW112297   2.195   4.968   6.347 -1.5899  0.5934  0.6414
 3871SOL    HW212298   2.176   5.028   6.209  1.1743 -0.8723 -0.4713
 3872SOL     OW12299   0.145   3.217   0.813  0.3290 -0.2887  0.4122
 3872SOL    HW112300   0.193   3.280   0.867  0.8991 -0.4492  0.0924
 3872SOL    HW212301   0.097   3.163   0.877 -0.3489  0.6066  0.6760
 3873SOL     OW12302   1.927   4.083   1.249 -0.6430 -0.3376  0.0276
 3873SOL    HW112303   2.016   4.048   1.253 -0.5945 -0.1454  0.9415
 3873SOL    HW212304   1.914   4.107   1.158 -0.1353 -1.3459 -0.3267
 3874SOL     OW12305   6.187   3.639   1.480 -0.2675  0.1352  0.2370
 3874SOL    HW112306   6.216   3.550   1.501 -1.7646 -0.4666 -0.1485
 3874SOL    HW212307   6.248   3.696   1.528  2.0290 -1.0101 -1.1488
 3875SOL     OW12308   1.995   0.804   4.682 -0.2788  0.6351 -0.0036
 3875SOL    HW112309   1.914   0.782   4.728  0.0513 -1.6660 -0.3998
 3875SOL    HW212310   2.059   0.820   4.751 -0.7050  0.9869  0.3120
 3876SOL     OW12311   2.676   3.891   6.280  0.0996  0.0158  0.3658
 3876SOL    HW112312   2.696   3.798   6.280  0.4637  0.0829 -0.6172
 3876SOL    HW212313   2.581   3.896   6.280  0.0582 -0.3869 -1.1689
 3877SOL     OW12314   4.537   5.293   1.739  0.5027  0.4266 -0.3787
 3877SOL    HW112315   4.477   5.366   1.748  2.0873  1.7281  0.2388
 3877SOL    HW212316   4.612   5.317   1.793  0.0508 -2.8560  2.0079
 3878SOL     OW12317   1.695   2.710   4.455 -0.0671  0.2314  0.4296
 3878SOL    HW112318   1.711   2.686   4.547  1.5186  1.5988  0.5412
 3878SOL    HW212319   1.778   2.693   4.411 -0.7588 -0.2109 -0.7328
 3879SOL     OW12320   1.589   6.148   2.190  0.6608 -0.5988  0.2075
 3879SOL    HW112321   1.681   6.139   2.166  0.9205 -3.3323  1.8531
 3879SOL    HW212322   1.588   6.150   2.286 -1.0074 -0.6598  0.2316
 3880SOL     OW12323   2.260   3.924   2.643 -0.5121  0.2758  0.3041
 3880SOL    HW112324   2.309   3.872   2.707 -0.1794 -1.3754 -1.2138
 3880SOL    HW212325   2.309   4.006   2.635 -0.5364  0.5033  2.0881
 3881SOL     OW12326   5.042   3.345   6.301 -0.2318  0.1985 -0.1056
 3881SOL    HW112327   4.962   3.294   6.287 -0.9023  1.4320 -1.0147
 3881SOL    HW212328   5.024   3.395   6.381  0.0556 -0.2869  0.2675
 3882SOL     OW12329   2.053   4.768   4.807 -0.2154  0.0544 -0.0567
 3882SOL    HW112330   2.107   4.769   4.728 -0.0730  0.0389  0.0397
 3882SOL    HW212331   2.110   4.803   4.876 -0.8429  1.5704 -0.2763
 3883SOL     OW12332   0.138   0.067   2.435  0.1319  0.6638 -0.4092
 3883SOL    HW112333   0.095   0.026   2.509 -0.8342  0.3148 -1.1385
 3883SOL    HW212334   0.070   0.071   2.367  0.9102  1.2178 -1.1781
 3884SOL     OW12335   2.312   0.391   3.133 -0.1847  0.1610 -0.0088
 3884SOL    HW112336   2.309   0.300   3.164  0.7377 -0.8009 -2.5282
 3884SOL    HW212337   2.224   0.425   3.150 -0.8026 -1.4531  0.2089
 3885SOL     OW12338   5.828   5.020   2.968  0.2634  0.6862 -0.0814
 3885SOL    HW112339   5.878   4.994   2.890  1.4354  2.1060  0.1683
 3885SOL    HW212340   5.871   4.974   3.040 -0.7698 -0.5601 -0.2159
 3886SOL     OW12341   0.061   3.326   5.574  0.8726  0.3970  0.0629
 3886SOL    HW112342   0.004   3.362   5.506 -0.4734 -0.6115  0.6002
 3886SOL    HW212343   0.110   3.256   5.531 -2.8819 -3.0669  0.8176
 3887SOL     OW12344   4.771   5.620   5.818 -0.2419 -0.0818  0.2714
 3887SOL    HW112345   4.843   5.584   5.869 -1.1048 -0.8573  0.9785
 3887SOL    HW212346   4.806   5.700   5.779  0.2476  0.9364  2.6651
 3888SOL     OW12347   0.972   1.591   0.770 -0.4330 -0.0392 -0.1381
 3888SOL    HW112348   0.994   1.522   0.833  0.1830 -0.1700 -0.4892
 3888SOL    HW212349   0.912   1.649   0.818 -0.9005 -0.7713  0.1880
 3889SOL     OW12350   3.457   3.727   2.825  0.1445 -0.3769  0.1731
 3889SOL    HW112351   3.449   3.818   2.854  0.1173  0.2940 -1.8019
 3889SOL    HW212352   3.551   3.710   2.823  0.3642  0.7103 -2.4548
 3890SOL     OW12353   3.667   2.186   0.230  0.8079 -0.0777  0.0751
 3890SOL    HW112354   3.716   2.267   0.245  1.4044 -0.6604  1.4560
 3890SOL    HW212355   3.731   2.125   0.196  1.2808 -1.0204  2.4308
 3891SOL     OW12356   1.465   4.526   5.950 -0.7282 -0.5258 -0.4191
 3891SOL    HW112357   1.402   4.465   5.988 -0.9835 -0.4272 -0.6826
 3891SOL    HW212358   1.543   4.517   6.005 -1.7864  1.1919  1.4999
 3892SOL     OW12359   5.468   5.232   5.968 -0.3238 -0.0324  0.4788
 3892SOL    HW112360   5.394   5.231   5.909  0.3173 -0.1322 -0.3406
 3892SOL    HW212361   5.462   5.149   6.016 -1.0394  0.2047  0.8139
 3893SOL     OW12362   0.997   1.177   2.188  0.4922 -0.5769 -0.1141
 3893SOL    HW112363   0.952   1.103   2.230 -0.0611 -1.9817 -2.9255
 3893SOL    HW212364   0.936   1.250   2.199  0.2222 -0.9495  1.1454
 3894SOL     OW12365   6.446   0.633   5.509 -0.1383 -0.3224 -0.2688
 3894SOL    HW112366   6.434   0.599   5.598 -0.6596 -2.0367 -0.9544
 3894SOL    HW212367   6.520   0.583   5.474 -0.2405  0.0037 -0.9745
 3895SOL     OW12368   1.783   4.702   2.806  0.1760  0.0792  0.1665
 3895SOL    HW112369   1.691   4.727   2.799 -0.5489 -2.1301  0.8096
 3895SOL    HW212370   1.812   4.689   2.716 -0.1032  0.8496 -0.0438
 3896SOL     OW12371   0.023   2.420   3.131  0.4284 -0.3769 -0.1703
 3896SOL    HW112372   0.017   2.510   3.098 -2.0791 -0.2816  0.3328
 3896SOL    HW212373   0.035   2.367   3.052  1.9844  0.3645 -0.4671
 3897SOL     OW12374   0.245   1.163   6.121  0.4627 -0.3352 -1.0185
 3897SOL    HW112375   0.151   1.170   6.138  0.3304 -0.8780 -1.4793
 3897SOL    HW212376   0.286   1.223   6.184 -0.2228  0.3306 -1.1980
 3898SOL     OW12377   5.336   5.828   0.344 -0.8512  0.2074  0.3221
 3898SOL    HW112378   5.257   5.774   0.338  1.2442 -3.1347  0.1612
 3898SOL    HW212379   5.400   5.782   0.290  0.9391  3.4392 -0.5461
 3899SOL     OW12380   2.623   5.263   5.152  0.0658  0.1602 -0.0149
 3899SOL    HW112381   2.665   5.210   5.220 -0.4116 -0.7820 -0.4299
 3899SOL    HW212382   2.641   5.353   5.178 -0.3145 -0.1591  1.5027
 3900SOL     OW12383   2.958   3.133   3.105  0.0285 -0.6673  0.4263
 3900SOL    HW112384   2.973   3.152   3.198 -0.4918 -0.0659  0.4013
 3900SOL    HW212385   2.927   3.217   3.069  2.4800 -0.1961 -0.8109
 3901SOL     OW12386   2.093   4.942   6.072 -0.6168  0.0643  0.3246
 3901SOL    HW112387   2.131   4.969   5.988  0.2254  0.5011  0.8338
 3901SOL    HW212388   2.117   4.850   6.080 -0.5805  0.0577  0.1517
 3902SOL     OW12389   0.542   1.978   4.622 -0.4930 -0.1044  0.2406
 3902SOL    HW112390   0.547   2.070   4.645  0.4018 -0.0912  0.0044
 3902SOL    HW212391   0.582   1.932   4.695 -1.6371 -0.3714  0.7179
 3903SOL     OW12392   4.006   1.665   0.593 -0.4040 -0.5706 -0.5382
 3903SOL    HW112393   4.049   1.660   0.508  0.9079 -0.6926  0.1143
 3903SOL    HW212394   3.967   1.752   0.595 -3.1413 -1.6140 -2.4757
 3904SOL     OW12395   2.889   5.286   3.265 -0.1820 -0.0834  0.1829
 3904SOL    HW112396   2.808   5.245   3.236  0.3240 -1.8488  1.0638
 3904SOL    HW212397   2.867   5.329   3.347 -0.5250  0.6912 -0.3051
 3905SOL     OW12398   5.466   0.112   0.456  0.0339  0.5643 -0.2518
 3905SOL    HW112399   5.510   0.193   0.433  0.3406 -0.0808 -2.1023
 3905SOL    HW212400   5.537   0.053   0.483  0.0375  0.3582 -0.6902
 3906SOL     OW12401   3.106   5.427   2.408 -0.1719 -0.0993 -0.7852
 3906SOL    HW112402   3.184   5.435   2.353  0.4743  1.1560  0.2660
 3906SOL    HW212403   3.083   5.517   2.430 -1.9019 -0.4469 -1.0093
 3907SOL     OW12404   3.098   1.656   1.177 -0.2849  0.2095 -0.0257
 3907SOL    HW112405   3.174   1.709   1.204 -0.2152 -0.1018  0.3937
 3907SOL    HW212406   3.028   1.720   1.165 -0.5977  0.2783  1.8693
 3908SOL     OW12407   3.876   0.662   0.893 -0.1199 -0.0883  0.1938
 3908SOL    HW112408   3.954   0.701   0.853 -1.1449  1.2517 -0.5756
 3908SOL    HW212409   3.902   0.572   0.913  1.1445 -0.1306 -1.4284
 3909SOL     OW12410   5.445   1.872   1.146  0.3021  0.6138  0.2203
 3909SOL    HW112411   5.432   1.785   1.108 -1.0701  0.8465  0.1103
 3909SOL    HW212412   5.422   1.932   1.075 -0.6566  1.0519  0.8862
 3910SOL     OW12413   4.057   4.403   0.179 -0.3946 -0.5228  0.2855
 3910SOL    HW112414   3.998   4.466   0.220  0.5474 -0.5185  1.6750
 3910SOL    HW212415   4.142   4.418   0.220  0.7648 -0.1119 -2.1022
 3911SOL     OW12416   0.894   2.564   3.073 -0.5032  0.1877 -0.2016
 3911SOL    HW112417   0.902   2.476   3.110 -0.8259 -0.7246 -2.1796
 3911SOL    HW212418   0.815   2.561   3.019 -0.1055  1.4547 -0.9074
 3912SOL     OW12419   2.170   3.150   5.951 -0.2709 -0.2361  0.5042
 3912SOL    HW112420   2.159   3.177   6.042  0.5652 -0.8084  0.7877
 3912SOL    HW212421   2.171   3.054   5.954  1.2578 -0.2552  0.1050
 3913SOL     OW12422   3.083   6.001   1.792 -0.2524  0.1729  0.0281
 3913SOL    HW112423   2.997   5.976   1.757 -0.7634  0.9522  0.6960
 3913SOL    HW212424   3.125   6.048   1.721 -0.9647  1.0409  0.1540
 3914SOL     OW12425   0.995   6.105   3.120 -0.2179  0.1310 -0.4737
 3914SOL    HW112426   0.974   6.137   3.033  0.3930 -0.7250 -0.9543
 3914SOL    HW212427   1.057   6.169   3.155 -1.3380  1.1035 -0.1809
 3915SOL     OW12428   1.131   4.135   5.281 -0.7260  0.6949 -0.4867
 3915SOL    HW112429   1.183   4.121   5.361 -0.4790  1.1471 -0.5661
 3915SOL    HW212430   1.086   4.052   5.268  0.2741  0.1557 -0.6331
 3916SOL     OW12431   6.259   1.058   6.306 -0.1563  0.3200  0.1072
 3916SOL    HW112432   6.200   1.109   6.250  0.1440  1.4324  0.7707
 3916SOL    HW212433   6.207   1.039   6.384  0.3354  1.2954  0.6896
 3917SOL     OW12434   3.928   0.059   0.941  0.1901 -0.3089  0.0535
 3917SOL    HW112435   3.880   0.042   0.860 -0.4210  1.1227  0.0821
 3917SOL    HW212436   4.020   0.056   0.915  0.0312 -0.9516 -0.4596
 3918SOL     OW12437   1.337   2.577   1.617  0.1769 -0.2249 -0.7867
 3918SOL    HW112438   1.389   2.525   1.678 -0.6035 -0.7837 -0.5788
 3918SOL    HW212439   1.248   2.542   1.625 -0.1464  0.4008 -1.4691
 3919SOL     OW12440   3.974   1.807   1.346  0.3828 -0.0668 -0.1127
 3919SOL    HW112441   3.883   1.781   1.335  0.5029 -0.8553  0.6181
 3919SOL    HW212442   4.008   1.814   1.257 -0.4445  0.4586 -0.3945
 3920SOL     OW12443   0.418   0.972   5.516 -0.4896  0.1044  0.2465
 3920SOL    HW112444   0.324   0.983   5.505 -0.5608  0.7666  1.3337
 3920SOL    HW212445   0.447   0.931   5.435 -1.5152  1.0416 -0.6339
 3921SOL     OW12446   0.364   0.366   1.167  0.2394 -0.3269 -0.3262
 3921SOL    HW112447   0.439   0.425   1.160 -0.8194  1.1126  0.0213
 3921SOL    HW212448   0.386   0.307   1.240  1.0001  0.1140 -0.1977
 3922SOL     OW12449   6.246   6.388   0.676 -0.3328  0.1296  0.4315
 3922SOL    HW112450   6.205   6.454   0.732  1.4799  2.1988 -0.4932
 3922SOL    HW212451   6.174   6.351   0.625 -1.2476  3.0809 -0.6357
 3923SOL     OW12452   3.650   0.403   5.522  0.3167  0.0164  0.4942
 3923SOL    HW112453   3.720   0.339   5.512  0.5844  0.4312 -0.3240
 3923SOL    HW212454   3.693   0.488   5.511 -0.4210  0.2515 -0.7287
 3924SOL     OW12455   3.072   5.027   5.854 -0.2150  0.2004  0.7794
 3924SOL    HW112456   3.039   4.993   5.937  1.4794 -4.6431 -0.2264
 3924SOL    HW212457   3.164   5.048   5.872  0.1621 -0.8782  0.1743
 3925SOL     OW12458   6.000   2.342   6.431 -0.0002  0.2887 -0.0791
 3925SOL    HW112459   5.981   2.406   6.499 -0.2202  0.3575 -0.2054
 3925SOL    HW212460   6.092   2.356   6.410  0.7127 -1.1708  1.7456
 3926SOL     OW12461   1.777   5.849   2.276 -0.4615 -0.9432  0.0800
 3926SOL    HW112462   1.815   5.937   2.269 -0.9693 -0.8224 -1.6228
 3926SOL    HW212463   1.852   5.792   2.297  0.1400 -0.3101 -0.3022
 3927SOL     OW12464   3.352   1.763   3.317 -0.5179  0.1681 -0.2249
 3927SOL    HW112465   3.313   1.693   3.265 -0.1216  0.2321 -0.6133
 3927SOL    HW212466   3.313   1.753   3.404 -0.3581 -0.6134 -0.2379
 3928SOL     OW12467   0.327   3.965   1.482  0.2608  0.5723 -0.4813
 3928SOL    HW112468   0.272   4.008   1.416 -3.5186  0.3078  2.1882
 3928SOL    HW212469   0.346   4.035   1.545  1.2202  0.1596 -0.3108
 3929SOL     OW12470   6.470   5.645   3.570  0.1561  0.1193 -0.0776
 3929SOL    HW112471   6.487   5.597   3.651  0.0358 -0.7426 -0.5489
 3929SOL    HW212472   6.554   5.648   3.525  0.5306  1.7817  0.6786
 3930SOL     OW12473   1.709   3.431   3.369 -0.2284 -0.2653 -0.6838
 3930SOL    HW112474   1.747   3.359   3.419  0.2996  0.2673 -0.3044
 3930SOL    HW212475   1.778   3.457   3.308  0.0399  0.7115  0.0108
 3931SOL     OW12476   0.939   5.368   2.519  0.0335  0.0720 -0.6906
 3931SOL    HW112477   0.976   5.299   2.463  0.0513  0.7087 -1.4763
 3931SOL    HW212478   0.963   5.449   2.476 -0.9370  0.5469 -0.3512
 3932SOL     OW12479   3.883   0.749   5.956 -0.4636 -0.2133 -0.0896
 3932SOL    HW112480   3.832   0.784   6.029  1.0174  0.3147  0.7420
 3932SOL    HW212481   3.924   0.825   5.916 -1.0153 -0.5322 -1.3159
 3933SOL     OW12482   2.909   3.023   0.095  0.7712  0.6861  0.2354
 3933SOL    HW112483   2.876   2.963   0.028 -0.2246  1.7351 -0.2464
 3933SOL    HW212484   3.002   3.001   0.103 -0.0798 -2.9597  2.2533
 3934SOL     OW12485   0.410   3.762   4.473  0.4102 -0.4048 -0.2264
 3934SOL    HW112486   0.373   3.806   4.550  0.1175 -0.8588 -0.1014
 3934SOL    HW212487   0.367   3.676   4.472  1.6337 -1.0502  0.0668
 3935SOL     OW12488   3.988   5.914   5.546  0.4995 -0.0333 -0.4780
 3935SOL    HW112489   4.071   5.933   5.590 -0.6979  0.6640  1.5651
 3935SOL    HW212490   3.979   5.819   5.552 -0.4254  0.1522  2.4179
 3936SOL     OW12491   5.107   3.510   4.471  0.1792  0.1374  1.2967
 3936SOL    HW112492   5.120   3.566   4.548  0.0946  0.8977  0.7724
 3936SOL    HW212493   5.022   3.468   4.487  0.1617  0.2869  1.6151
 3937SOL     OW12494   6.143   0.969   1.701  0.4163 -0.0634 -0.4686
 3937SOL    HW112495   6.176   1.017   1.625  0.5530 -0.4413 -0.6485
 3937SOL    HW212496   6.090   0.899   1.664 -0.1571  0.2135 -0.1942
 3938SOL     OW12497   4.374   4.783   1.272  0.0844  0.0170  0.1587
 3938SOL    HW112498   4.325   4.731   1.209  0.6171 -1.1189  0.6555
 3938SOL    HW212499   4.319   4.784   1.350 -0.5161  1.3144 -0.2455
 3939SOL     OW12500   2.276   3.995   3.724 -0.0110  0.0867 -0.1749
 3939SOL    HW112501   2.369   3.979   3.737  0.0088  0.3399  0.0127
 3939SOL    HW212502   2.258   3.962   3.636 -0.1038 -1.4574  0.3900
 3940SOL     OW12503   5.477   6.310   3.148  0.2680 -0.2237 -0.1380
 3940SOL    HW112504   5.548   6.369   3.171  0.7086 -1.1638  1.0042
 3940SOL    HW212505   5.520   6.231   3.116 -0.1519 -1.3840  1.9718
 3941SOL     OW12506   2.639   3.957   2.500 -0.0581  0.2612 -0.1864
 3941SOL    HW112507   2.669   3.906   2.425  0.5510  0.1504  0.1215
 3941SOL    HW212508   2.718   3.970   2.553 -0.0887  1.8798 -0.4696
 3942SOL     OW12509   6.501   2.026   5.846 -0.4232  0.7864  0.4163
 3942SOL    HW112510   6.521   1.939   5.810 -0.8753  1.2542 -1.0343
 3942SOL    HW212511   6.441   2.009   5.919 -2.0930 -0.0357 -1.0673
 3943SOL     OW12512   3.637   1.644   4.253 -0.8542 -0.2737 -0.4531
 3943SOL    HW112513   3.602   1.649   4.164 -0.1358 -0.6407 -0.7692
 3943SOL    HW212514   3.683   1.727   4.266 -1.1786 -0.1118 -0.3222
 3944SOL     OW12515   4.835   1.965   0.196 -0.3855  0.4803 -0.8053
 3944SOL    HW112516   4.898   2.034   0.176 -1.4859  1.2755 -1.7176
 3944SOL    HW212517   4.868   1.888   0.150  1.5258 -0.0309  1.2318
 3945SOL     OW12518   5.641   1.647   1.472  0.1267  0.1834  0.1901
 3945SOL    HW112519   5.574   1.586   1.444 -0.1800  0.4565  0.3257
 3945SOL    HW212520   5.601   1.697   1.543  1.0780 -0.8680  1.5117
 3946SOL     OW12521   4.640   3.693   4.638 -1.2774 -0.6727  0.6113
 3946SOL    HW112522   4.652   3.756   4.567 -0.6651  0.1577  1.4117
 3946SOL    HW212523   4.664   3.609   4.601 -0.9467 -0.2482 -0.1566
 3947SOL     OW12524   4.276   1.972   3.909 -0.3041 -0.1962  0.2574
 3947SOL    HW112525   4.304   1.958   3.819 -2.1501 -3.0898 -0.0259
 3947SOL    HW212526   4.348   1.939   3.962  0.2582  0.3140 -0.1784
 3948SOL     OW12527   3.168   2.949   3.679  0.4046 -0.0207  0.1719
 3948SOL    HW112528   3.121   3.002   3.614  1.5307  1.6102  0.6275
 3948SOL    HW212529   3.156   2.996   3.761  0.6802 -0.9794  0.7695
 3949SOL     OW12530   4.156   3.691   1.523 -0.0792  0.1335  0.1602
 3949SOL    HW112531   4.243   3.651   1.514 -0.1916 -0.1635  0.3516
 3949SOL    HW212532   4.153   3.720   1.615 -0.3858 -0.3553  0.3095
 3950SOL     OW12533   2.702   4.203   0.219  0.4008  0.5466  0.2547
 3950SOL    HW112534   2.656   4.133   0.173  1.3850  0.4885 -0.6790
 3950SOL    HW212535   2.786   4.210   0.174  1.9655 -0.3479  2.7685
 3951SOL     OW12536   0.729   2.549   0.926 -0.1190 -0.2207 -0.2370
 3951SOL    HW112537   0.812   2.515   0.894 -1.1775 -2.2023 -1.0956
 3951SOL    HW212538   0.670   2.473   0.923 -1.2631  0.4105  2.9506
 3952SOL     OW12539   4.054   2.597   3.512  0.0598 -0.0671 -0.7048
 3952SOL    HW112540   4.041   2.503   3.499 -1.7138  0.0445 -0.0372
 3952SOL    HW212541   4.077   2.606   3.604  2.5309  0.0178 -1.2402
 3953SOL     OW12542   1.928   2.577   3.103 -0.0068  0.7358  0.2132
 3953SOL    HW112543   1.857   2.634   3.074 -1.1606 -0.8163 -0.2096
 3953SOL    HW212544   1.992   2.581   3.032 -0.5615  0.7141 -0.3018
 3954SOL     OW12545   6.225   5.540   6.365  0.3197 -0.1556 -0.1991
 3954SOL    HW112546   6.161   5.552   6.295  0.1928 -1.7943 -0.3968
 3954SOL    HW212547   6.219   5.620   6.417 -2.3925 -0.5256  0.1955
 3955SOL     OW12548   2.863   2.425   1.974 -0.0663 -0.4096  0.2513
 3955SOL    HW112549   2.848   2.397   2.064 -1.5204 -2.1447 -0.4618
 3955SOL    HW212550   2.830   2.353   1.920 -1.9044  1.6987 -1.7029
 3956SOL     OW12551   5.886   0.605   3.076 -0.3370  0.0872  0.6034
 3956SOL    HW112552   5.978   0.603   3.101 -0.7595  0.6894  2.3892
 3956SOL    HW212553   5.870   0.696   3.052 -0.8498  0.3877  2.0058
 3957SOL     OW12554   1.539   4.046   5.423  0.2148 -0.2182  0.3668
 3957SOL    HW112555   1.488   4.090   5.492  2.4954 -0.4787  2.3300
 3957SOL    HW212556   1.590   4.117   5.383 -0.9526 -0.1019 -0.9952
 3958SOL     OW12557   0.757   2.495   0.408 -0.0293 -0.9381  1.0967
 3958SOL    HW112558   0.697   2.545   0.463 -0.7402 -0.9890  0.4031
 3958SOL    HW212559   0.699   2.443   0.352  0.6303 -0.1463 -0.3708
 3959SOL     OW12560   4.541   5.402   4.303 -0.1225 -0.3233 -0.1992
 3959SOL    HW112561   4.615   5.342   4.300  0.5065  0.3219  1.1144
 3959SOL    HW212562   4.464   5.349   4.282  0.4766 -1.4752  0.4787
 3960SOL     OW12563   5.502   2.313   0.577  0.1260  0.0383  0.0170
 3960SOL    HW112564   5.549   2.389   0.610 -2.1722  0.6853  2.0794
 3960SOL    HW212565   5.450   2.346   0.504 -1.0475  0.5689  1.0578
 3961SOL     OW12566   4.541   3.531   2.374  0.5134 -0.1398  0.3659
 3961SOL    HW112567   4.520   3.597   2.308  0.4778 -0.3573  0.1612
 3961SOL    HW212568   4.513   3.570   2.457 -0.0229 -0.1297  0.1804
 3962SOL     OW12569   5.132   2.452   1.807 -0.6588  0.1962 -0.1356
 3962SOL    HW112570   5.114   2.537   1.766  1.7039  0.4534 -0.8099
 3962SOL    HW212571   5.138   2.472   1.900 -1.4075  0.5043 -0.1460
 3963SOL     OW12572   3.971   1.824   2.680 -0.0813 -0.0945 -0.3988
 3963SOL    HW112573   4.035   1.778   2.626 -0.8810  0.6016 -1.9883
 3963SOL    HW212574   3.905   1.855   2.618 -0.6251  1.4149  0.8839
 3964SOL     OW12575   0.159   3.938   5.896 -0.5768 -0.2503  0.6491
 3964SOL    HW112576   0.080   3.980   5.932 -1.4012  0.6233 -1.9361
 3964SOL    HW212577   0.167   3.975   5.808  1.4560 -2.0234  0.0172
 3965SOL     OW12578   6.101   1.016   5.862  0.3139  0.3979  0.2272
 3965SOL    HW112579   6.029   0.961   5.831  0.6212  0.1731 -0.0912
 3965SOL    HW212580   6.164   1.016   5.790 -0.5984  2.8971 -0.6789
 3966SOL     OW12581   5.684   5.149   4.189  0.0018  0.7020  0.1145
 3966SOL    HW112582   5.613   5.207   4.218 -0.3496 -0.1159  0.9351
 3966SOL    HW212583   5.764   5.193   4.219 -0.2984  0.4358  1.3728
 3967SOL     OW12584   1.874   2.518   2.262  0.1060 -1.0683 -0.1161
 3967SOL    HW112585   1.849   2.459   2.333  0.4405 -0.0595  0.8686
 3967SOL    HW212586   1.797   2.573   2.249  0.2678 -0.8350 -0.0923
 3968SOL     OW12587   3.065   6.088   0.155  0.7306 -0.2296  0.0802
 3968SOL    HW112588   3.003   6.025   0.118  0.4523  0.8671 -1.4278
 3968SOL    HW212589   3.090   6.143   0.080  0.6369  1.7007  1.4058
 3969SOL     OW12590   5.971   4.337   4.111 -0.0170  0.4833  0.1414
 3969SOL    HW112591   5.909   4.278   4.154  1.0385 -0.0002  1.0500
 3969SOL    HW212592   5.957   4.421   4.153  0.6741  0.1239  1.1280
 3970SOL     OW12593   4.143   2.342   2.708 -0.1507  0.5507  0.3688
 3970SOL    HW112594   4.234   2.312   2.708 -0.0769  0.7251 -0.9953
 3970SOL    HW212595   4.100   2.288   2.774  0.9563  0.5293  1.0939
 3971SOL     OW12596   5.831   1.485   3.274  0.0523  0.2879  0.7777
 3971SOL    HW112597   5.922   1.465   3.298  0.4341  1.7188  0.6135
 3971SOL    HW212598   5.826   1.466   3.180  1.6690  4.7072 -0.4824
 3972SOL     OW12599   3.511   4.897   0.878 -0.0113 -0.1033 -0.4061
 3972SOL    HW112600   3.421   4.919   0.901 -0.0867 -1.1120  0.3088
 3972SOL    HW212601   3.505   4.857   0.791 -0.5470 -2.0835  0.4916
 3973SOL     OW12602   5.325   6.161   5.208 -0.1450  0.4487 -0.0908
 3973SOL    HW112603   5.402   6.137   5.261  0.0096 -0.5050 -0.7153
 3973SOL    HW212604   5.361   6.213   5.136  0.0117 -0.4712 -0.6955
 3974SOL     OW12605   5.819   3.412   0.651 -0.0050  0.2657  0.3984
 3974SOL    HW112606   5.752   3.480   0.653 -1.9102 -1.5089 -0.3885
 3974SOL    HW212607   5.783   3.340   0.703  2.1861 -0.0086  1.6599
 3975SOL     OW12608   4.179   1.206   1.159  0.1167  0.1449 -0.4257
 3975SOL    HW112609   4.235   1.168   1.091 -0.7217  0.8939 -1.5732
 3975SOL    HW212610   4.144   1.285   1.119 -1.5910 -0.1897  0.3350
 3976SOL     OW12611   5.279   0.298   3.443  0.6651 -0.4508  0.0373
 3976SOL    HW112612   5.225   0.294   3.364 -0.8765  0.9162  0.9759
 3976SOL    HW212613   5.219   0.278   3.515  1.2364  1.6062  1.1703
 3977SOL     OW12614   3.470   4.472   1.404 -0.1034  0.4097  0.3778
 3977SOL    HW112615   3.504   4.522   1.330  0.1933  1.3804  1.1472
 3977SOL    HW212616   3.539   4.478   1.470  0.2501 -1.6247  0.2589
 3978SOL     OW12617   4.148   2.709   6.102 -0.3885  0.5750  0.2950
 3978SOL    HW112618   4.124   2.667   6.185 -1.4976 -2.4287 -1.3957
 3978SOL    HW212619   4.223   2.658   6.070  0.4123  2.0709 -0.3244
 3979SOL     OW12620   1.516   0.805   6.278  0.6851 -0.2762  0.0280
 3979SOL    HW112621   1.608   0.781   6.275  0.7124 -0.1616 -0.0315
 3979SOL    HW212622   1.480   0.774   6.195  1.5000  3.1420 -1.7833
 3980SOL     OW12623   3.235   3.018   1.178 -0.0435  0.3354  0.1242
 3980SOL    HW112624   3.184   2.956   1.230  0.8547  0.0657  0.7272
 3980SOL    HW212625   3.324   3.012   1.215  0.7422 -0.1932 -1.7056
 3981SOL     OW12626   1.250   1.251   2.033  0.3886 -0.1619  0.3236
 3981SOL    HW112627   1.184   1.206   2.086 -0.4010  0.5810 -0.0050
 3981SOL    HW212628   1.292   1.311   2.095  0.6847 -0.5566  0.5090
 3982SOL     OW12629   6.099   1.212   2.430  0.4502 -0.3164 -0.5573
 3982SOL    HW112630   6.058   1.265   2.498 -0.0746  0.0309 -1.1313
 3982SOL    HW212631   6.063   1.247   2.348  0.6179 -1.1192 -0.9779
 3983SOL     OW12632   5.307   0.482   2.867 -0.0017 -0.5903 -0.6459
 3983SOL    HW112633   5.219   0.515   2.882 -0.2934 -0.6006 -2.1855
 3983SOL    HW212634   5.358   0.561   2.846  0.2662 -0.6446 -0.2262
 3984SOL     OW12635   5.670   2.727   6.466  0.8257  0.0092 -0.0568
 3984SOL    HW112636   5.601   2.761   6.523  1.4728  0.6383  0.3548
 3984SOL    HW212637   5.644   2.636   6.450  0.0535  0.1525  0.3248
 3985SOL     OW12638   0.756   5.049   2.227  0.3497 -0.5166  0.0256
 3985SOL    HW112639   0.809   4.993   2.283  1.4599  0.6111  0.1519
 3985SOL    HW212640   0.723   5.117   2.285  0.3884 -0.1023 -0.4251
 3986SOL     OW12641   1.213   4.540   0.139 -0.5923  0.2851 -0.1077
 3986SOL    HW112642   1.193   4.446   0.142 -0.3488  0.2595  0.9594
 3986SOL    HW212643   1.305   4.546   0.166 -0.9785  0.9362  1.1363
 3987SOL     OW12644   4.462   5.651   4.820  0.3883 -0.1503  0.0295
 3987SOL    HW112645   4.491   5.722   4.877  1.3108 -0.9094  0.5379
 3987SOL    HW212646   4.464   5.687   4.732  0.6647  0.5081  0.3037
 3988SOL     OW12647   0.692   2.418   4.963  0.2903  0.4304  0.1417
 3988SOL    HW112648   0.758   2.485   4.982  0.0574  0.4395  0.9521
 3988SOL    HW212649   0.618   2.442   5.018  0.1593 -0.4315  0.3438
 3989SOL     OW12650   1.153   3.782   4.182  0.0275  0.2337  0.4516
 3989SOL    HW112651   1.061   3.797   4.160  0.4750  3.0906  0.1622
 3989SOL    HW212652   1.173   3.696   4.144 -2.0728  0.2740 -0.9071
 3990SOL     OW12653   3.167   6.183   1.611  0.1010 -0.0580 -0.6334
 3990SOL    HW112654   3.250   6.214   1.575  0.2112 -1.5150 -1.7525
 3990SOL    HW212655   3.100   6.223   1.554 -0.1440  2.4512  1.2578
 3991SOL     OW12656   5.238   5.351   2.373  0.5638  0.7286 -0.1773
 3991SOL    HW112657   5.295   5.405   2.317  2.3013 -0.4896  0.3467
 3991SOL    HW212658   5.189   5.415   2.424  0.6696  1.8472 -1.3943
 3992SOL     OW12659   1.164   4.090   2.913 -0.3229  0.4603 -0.3076
 3992SOL    HW112660   1.187   4.172   2.868 -0.1913  0.4739 -0.2183
 3992SOL    HW212661   1.217   4.024   2.869 -1.0485  0.2835 -0.9339
 3993SOL     OW12662   4.623   4.326   2.328 -0.0267  0.7197 -0.3494
 3993SOL    HW112663   4.614   4.231   2.321  0.7688  0.7361 -2.0086
 3993SOL    HW212664   4.627   4.357   2.238 -1.7515  2.5126  0.1114
 3994SOL     OW12665   4.534   2.668   2.131 -0.4840 -0.0396  0.1290
 3994SOL    HW112666   4.607   2.681   2.192 -0.0690  1.3915 -0.6289
 3994SOL    HW212667   4.490   2.753   2.128 -0.9802 -0.3238 -0.9333
 3995SOL     OW12668   4.050   1.000   3.235 -0.2290 -0.4057  0.0965
 3995SOL    HW112669   4.059   1.066   3.304 -2.2646 -0.2145  0.2246
 3995SOL    HW212670   3.970   1.023   3.189  0.2996 -1.4114 -1.4138
 3996SOL     OW12671   2.721   0.478   2.850  0.4006 -0.1139  0.5968
 3996SOL    HW112672   2.649   0.491   2.912 -0.1241 -0.3640  0.0481
 3996SOL    HW212673   2.800   0.493   2.902 -0.0478  3.1144  0.5972
 3997SOL     OW12674   3.327   6.089   6.381 -0.0972 -0.1907  0.0785
 3997SOL    HW112675   3.406   6.065   6.429 -0.2758 -0.9839 -0.0059
 3997SOL    HW212676   3.277   6.142   6.442  0.2766 -0.0911  0.3030
 3998SOL     OW12677   3.249   4.404   2.824  0.0530  0.0294  0.1825
 3998SOL    HW112678   3.186   4.358   2.768 -1.0457 -0.8418  1.9861
 3998SOL    HW212679   3.220   4.382   2.913 -0.1220  3.7037  1.1905
 3999SOL     OW12680   2.474   6.208   5.406 -0.1605 -0.6951 -0.5831
 3999SOL    HW112681   2.523   6.141   5.358  0.4278 -1.4144  0.9754
 3999SOL    HW212682   2.426   6.160   5.474 -1.2673  0.2621 -0.6491
 4000SOL     OW12683   4.289   1.183   2.781  0.5996 -0.1833 -0.8682
 4000SOL    HW112684   4.287   1.234   2.861  2.3974  0.0261 -0.9099
 4000SOL    HW212685   4.197   1.166   2.760  0.0785  0.5783  0.6940
 4001SOL     OW12686   5.083   5.547   4.618 -0.1606 -0.1850  0.6102
 4001SOL    HW112687   5.022   5.554   4.544 -1.1940 -1.6699  1.2701
 4001SOL    HW212688   5.152   5.610   4.598 -1.7670  1.3847 -0.3141
 4002SOL     OW12689   0.171   4.369   2.255 -0.1047  0.3092  0.2461
 4002SOL    HW112690   0.112   4.423   2.203  0.0563  1.3450  1.1032
 4002SOL    HW212691   0.220   4.431   2.309  1.2042 -0.5824  0.1482
 4003SOL     OW12692   5.094   1.443   1.700  0.1696 -0.4220  0.0458
 4003SOL    HW112693   5.080   1.538   1.695 -0.1186 -0.5286 -1.8054
 4003SOL    HW212694   5.185   1.431   1.670 -0.4784 -0.8589 -1.8971
 4004SOL     OW12695   1.391   5.893   0.363  0.0187  0.5155  0.4669
 4004SOL    HW112696   1.450   5.822   0.338  1.0256  1.2696  0.6270
 4004SOL    HW212697   1.363   5.870   0.452  0.4275  0.3674  0.5626
 4005SOL     OW12698   4.492   0.564   4.879  0.1288 -0.1132 -0.1917
 4005SOL    HW112699   4.404   0.534   4.857 -0.2203 -0.3220  1.3558
 4005SOL    HW212700   4.479   0.629   4.948  1.1056  1.0071 -1.0160
 4006SOL     OW12701   4.975   2.466   2.927  0.2508  0.4534  0.1541
 4006SOL    HW112702   5.019   2.437   3.007  0.5115  0.3691 -0.0190
 4006SOL    HW212703   4.900   2.517   2.958  0.1699  0.1536  0.4522
 4007SOL     OW12704   0.756   1.417   0.988 -0.3123  0.7888 -0.6048
 4007SOL    HW112705   0.718   1.337   1.025 -1.9982  1.5440 -0.6192
 4007SOL    HW212706   0.721   1.422   0.900  0.1684  1.3065 -0.7734
 4008SOL     OW12707   0.064   5.771   2.368 -0.2204 -0.0635  0.5638
 4008SOL    HW112708   0.071   5.715   2.291 -0.8867 -0.8349  1.0534
 4008SOL    HW212709  -0.021   5.750   2.406 -0.4884  1.2902  0.7594
 4009SOL     OW12710   4.394   1.548   2.501 -0.1050  0.3562  0.0230
 4009SOL    HW112711   4.342   1.489   2.447  2.1375  0.3524 -2.3258
 4009SOL    HW212712   4.481   1.509   2.502  0.9472  2.5499  0.0818
 4010SOL     OW12713   0.612   0.658   5.913  0.8604  0.4296  0.3922
 4010SOL    HW112714   0.524   0.676   5.880 -0.2865 -3.4606  0.9038
 4010SOL    HW212715   0.623   0.719   5.986 -1.1281  1.4373 -0.0799
 4011SOL     OW12716   1.881   1.008   3.730 -0.2978 -0.4061 -0.3252
 4011SOL    HW112717   1.921   0.922   3.711 -2.0799 -1.7785  1.6763
 4011SOL    HW212718   1.799   1.007   3.682 -1.0016 -0.4607  0.8574
 4012SOL     OW12719   3.131   4.088   2.267 -0.1255  0.3666 -0.1571
 4012SOL    HW112720   3.104   4.000   2.243 -1.2465  0.3801  0.9934
 4012SOL    HW212721   3.136   4.088   2.362 -1.1734  1.8133 -0.0611
 4013SOL     OW12722   4.600   3.211   3.897  0.2191 -0.3639  0.0950
 4013SOL    HW112723   4.623   3.155   3.823 -1.3261 -0.6027 -0.2371
 4013SOL    HW212724   4.628   3.299   3.872 -0.6273 -0.3754 -0.9610
 4014SOL     OW12725   5.986   3.873   2.726  0.1317 -0.5296  0.3031
 4014SOL    HW112726   5.992   3.956   2.773  1.0254  0.0421 -0.7808
 4014SOL    HW212727   5.985   3.806   2.795  2.6703  0.2073  1.1603
 4015SOL     OW12728   1.174   4.111   4.966  0.5839  0.0925  0.3183
 4015SOL    HW112729   1.140   4.123   5.055  0.1632 -2.1335  0.5352
 4015SOL    HW212730   1.096   4.093   4.913  1.0066 -0.8040 -0.0315
 4016SOL     OW12731   5.009   1.984   0.444 -0.1418  0.5267 -0.3013
 4016SOL    HW112732   5.075   2.048   0.416 -1.8779  2.8215  0.5043
 4016SOL    HW212733   4.931   2.005   0.392 -1.6294  1.0376  1.9833
 4017SOL     OW12734   6.402   5.850   3.089 -0.0379  0.5394  0.7115
 4017SOL    HW112735   6.309   5.855   3.111 -0.2482 -0.7027  0.1748
 4017SOL    HW212736   6.406   5.787   3.017  1.3655 -0.5428  1.6808
 4018SOL     OW12737   1.543   4.180   0.588  0.4042 -0.0722 -0.1397
 4018SOL    HW112738   1.595   4.203   0.511 -0.1976 -0.5753 -0.7092
 4018SOL    HW212739   1.503   4.096   0.566  1.4165 -0.9972  1.3300
 4019SOL     OW12740   4.609   4.587   3.992 -0.0303 -0.4715  0.3963
 4019SOL    HW112741   4.692   4.557   3.955  0.9682  0.6803  1.6060
 4019SOL    HW212742   4.630   4.614   4.081 -1.3428  1.3860  0.2268
 4020SOL     OW12743   3.951   4.813   3.908 -0.7061 -0.5587 -0.4968
 4020SOL    HW112744   3.958   4.849   3.997  1.3415  1.2979 -1.3198
 4020SOL    HW212745   3.911   4.884   3.857 -0.1967 -0.8942 -1.3861
 4021SOL     OW12746   2.612   5.520   5.213 -0.3154  0.1957  0.7592
 4021SOL    HW112747   2.636   5.567   5.293 -1.0779  0.8290  0.6373
 4021SOL    HW212748   2.659   5.566   5.143 -2.5405  2.1047  0.3856
 4022SOL     OW12749   2.899   0.024   1.632  0.1069 -0.1175 -0.6059
 4022SOL    HW112750   2.948  -0.038   1.685 -1.1714 -2.2223 -1.7063
 4022SOL    HW212751   2.839   0.066   1.693  0.6723 -0.3095  0.0932
 4023SOL     OW12752   4.989   2.275   4.892 -0.0488 -0.2397 -0.2807
 4023SOL    HW112753   5.063   2.333   4.910 -0.7467  0.3530  0.7775
 4023SOL    HW212754   4.957   2.303   4.807  1.3343 -0.9512 -1.0796
 4024SOL     OW12755   0.705   3.794   4.465 -0.2342  0.2060  1.0604
 4024SOL    HW112756   0.611   3.797   4.485 -0.2113  0.0226  1.2018
 4024SOL    HW212757   0.737   3.881   4.486 -0.3782  0.2782  0.9841
 4025SOL     OW12758   4.844   0.255   1.624  0.6351  0.1782 -0.3461
 4025SOL    HW112759   4.858   0.163   1.601 -1.1219 -0.1744 -0.1757
 4025SOL    HW212760   4.926   0.282   1.666  0.5492 -1.8850  1.3444
 4026SOL     OW12761   4.827   2.310   4.503  0.3417  0.5189  0.0508
 4026SOL    HW112762   4.845   2.326   4.410 -1.5306  2.2507 -0.0771
 4026SOL    HW212763   4.896   2.357   4.549  0.6562  0.5582 -0.4541
 4027SOL     OW12764   4.886   1.771   1.507 -0.1929 -0.3488 -0.3054
 4027SOL    HW112765   4.971   1.762   1.551 -0.3917 -1.7761 -0.1652
 4027SOL    HW212766   4.893   1.714   1.431 -1.0969 -0.6425 -0.1772
 4028SOL     OW12767   0.613   3.656   3.909  0.2995 -0.0502  0.3275
 4028SOL    HW112768   0.556   3.615   3.974  0.8831  0.2111  1.0082
 4028SOL    HW212769   0.578   3.625   3.825 -0.2741 -0.6303  0.7653
 4029SOL     OW12770   2.803   0.133   1.001  0.3560  0.3936 -0.0420
 4029SOL    HW112771   2.716   0.097   0.981  0.8373 -0.2457 -1.0700
 4029SOL    HW212772   2.792   0.177   1.086 -0.4747 -1.4947  0.8946
 4030SOL     OW12773   3.592   4.389   3.385  0.1821  0.2689  0.0063
 4030SOL    HW112774   3.536   4.320   3.420  0.8686 -0.1581  0.2959
 4030SOL    HW212775   3.612   4.445   3.460  0.2997  0.3039 -0.0504
 4031SOL     OW12776   0.820   6.118   3.850  0.4183  0.1395 -0.0775
 4031SOL    HW112777   0.833   6.023   3.846  2.2248  0.3651 -0.7913
 4031SOL    HW212778   0.854   6.144   3.935  0.3282  0.1928 -0.0577
 4032SOL     OW12779   6.019   4.704   5.742  0.4196  0.2407  0.4202
 4032SOL    HW112780   5.966   4.780   5.718 -2.6533 -1.5303  0.9886
 4032SOL    HW212781   6.100   4.741   5.777 -0.8292  3.2234  0.4818
 4033SOL     OW12782   0.456   3.095   5.884 -0.2916 -0.1180 -0.0019
 4033SOL    HW112783   0.526   3.052   5.836  0.6854  2.4863 -1.1038
 4033SOL    HW212784   0.375   3.061   5.846  0.4458 -0.0257 -1.7423
 4034SOL     OW12785   5.726   2.333   1.061  0.5515 -0.3958 -0.2459
 4034SOL    HW112786   5.734   2.241   1.036  1.7125 -0.5370  0.5975
 4034SOL    HW212787   5.640   2.360   1.026  0.6174 -1.5165 -1.3339
 4035SOL     OW12788   3.022   0.863   2.171 -0.4907 -0.4187 -0.1168
 4035SOL    HW112789   3.106   0.869   2.126  0.6012  1.4480  1.9982
 4035SOL    HW212790   2.975   0.942   2.143 -1.4849 -1.3212 -1.0805
 4036SOL     OW12791   4.266   6.186   6.331 -0.0567  0.3663 -0.1948
 4036SOL    HW112792   4.178   6.157   6.305 -0.0744  1.2281 -1.1342
 4036SOL    HW212793   4.306   6.107   6.369 -1.2933  0.0090  0.4382
 4037SOL     OW12794   4.369   6.486   1.406 -0.4077 -0.0261  0.3684
 4037SOL    HW112795   4.417   6.477   1.324 -1.5523  2.8350 -0.7509
 4037SOL    HW212796   4.382   6.578   1.431 -1.3230 -0.4412  2.6183
 4038SOL     OW12797   1.483   0.574   1.083  0.0281  0.5173  0.2470
 4038SOL    HW112798   1.407   0.628   1.061 -0.3645  0.7854  2.1065
 4038SOL    HW212799   1.448   0.499   1.131  0.8462  0.1777  0.3403
 4039SOL     OW12800   1.511   4.965   4.060 -0.1145 -0.4138 -0.6364
 4039SOL    HW112801   1.419   4.938   4.059 -0.1818 -0.3183  0.6673
 4039SOL    HW212802   1.514   5.037   4.123  0.7313  0.0792 -1.2204
 4040SOL     OW12803   3.643   3.021   3.648  0.0291  0.2681  0.3153
 4040SOL    HW112804   3.568   3.005   3.705  0.2800  0.7303  0.7875
 4040SOL    HW212805   3.707   3.064   3.705  0.3288  0.6357 -0.2895
 4041SOL     OW12806   1.504   4.834   4.561 -0.4561  0.1337  0.4741
 4041SOL    HW112807   1.538   4.889   4.631 -1.1672 -0.7485  1.5706
 4041SOL    HW212808   1.578   4.780   4.534 -0.5730 -0.8015  1.8694
 4042SOL     OW12809   1.535   1.622   1.958  0.0830 -0.3362 -0.4766
 4042SOL    HW112810   1.581   1.539   1.962 -0.2277 -0.5934 -1.6942
 4042SOL    HW212811   1.593   1.684   2.003 -0.3395 -1.4485  1.7450
 4043SOL     OW12812   4.222   2.512   4.269 -0.1243  0.4957 -0.4432
 4043SOL    HW112813   4.160   2.442   4.292 -0.7384  0.6541 -1.5733
 4043SOL    HW212814   4.207   2.579   4.335 -0.3746  0.0678 -0.0560
 4044SOL     OW12815   1.509   6.109   2.564 -0.0572 -0.1092  0.4025
 4044SOL    HW112816   1.526   6.015   2.558  1.0771  0.1141  0.0127
 4044SOL    HW212817   1.442   6.116   2.632 -0.5752 -1.2404  0.0382
 4045SOL     OW12818   5.057   0.433   6.485 -0.0047 -0.3997 -0.1588
 4045SOL    HW112819   4.982   0.410   6.539  0.0065  0.2765  0.1559
 4045SOL    HW212820   5.060   0.528   6.487  1.2585 -0.4214  0.3970
 4046SOL     OW12821   3.922   2.603   2.876 -0.3919  0.4159 -0.0673
 4046SOL    HW112822   3.846   2.653   2.906 -1.3443 -0.0984 -1.4920
 4046SOL    HW212823   3.912   2.517   2.916 -1.5505 -0.2037 -1.5656
 4047SOL     OW12824   3.825   1.922   0.141 -0.4481 -0.4093 -0.1205
 4047SOL    HW112825   3.740   1.878   0.133 -0.5477 -0.0996 -0.8163
 4047SOL    HW212826   3.841   1.960   0.055 -0.6187  1.3984  0.6092
 4048SOL     OW12827   1.466   2.428   6.017  0.1635 -0.1514  0.1502
 4048SOL    HW112828   1.562   2.435   6.016  0.2578 -0.9018 -1.8037
 4048SOL    HW212829   1.447   2.369   6.090  0.9670  1.8397  2.0793
 4049SOL     OW12830   4.517   2.840   3.487  0.1142  0.2022  0.4278
 4049SOL    HW112831   4.456   2.875   3.422  2.7304  1.1599 -1.6894
 4049SOL    HW212832   4.468   2.769   3.529 -1.9368 -0.1086 -2.1858
 4050SOL     OW12833   5.360   0.781   0.249 -0.1920 -0.0110  0.0711
 4050SOL    HW112834   5.371   0.812   0.159 -0.4045 -0.2444 -0.0376
 4050SOL    HW212835   5.448   0.784   0.287 -0.0753 -0.0552 -0.1925
 4051SOL     OW12836   3.447   4.576   0.678 -0.0464  0.0691  0.1844
 4051SOL    HW112837   3.532   4.533   0.690  0.2369 -0.1437 -2.0895
 4051SOL    HW212838   3.466   4.649   0.620 -1.3366  0.3794  0.1276
 4052SOL     OW12839   1.490   1.934   4.901 -0.5403  0.2057 -0.0032
 4052SOL    HW112840   1.409   1.979   4.925 -1.5765 -0.9581 -1.1809
 4052SOL    HW212841   1.508   1.963   4.812  0.6548  0.8461  0.4215
 4053SOL     OW12842   5.341   3.651   3.209 -0.2145 -0.2416 -0.4917
 4053SOL    HW112843   5.284   3.716   3.252  0.8654  0.5942 -0.2878
 4053SOL    HW212844   5.401   3.623   3.278  0.1048 -0.5596 -0.8951
 4054SOL     OW12845   5.216   0.069   4.776 -0.1320  0.0794 -0.1250
 4054SOL    HW112846   5.230   0.140   4.839 -0.3901 -1.7290  2.1074
 4054SOL    HW212847   5.128   0.038   4.795 -0.3228 -0.3472 -1.6182
 4055SOL     OW12848   4.530   4.173   1.422  0.3380 -0.4988 -0.5675
 4055SOL    HW112849   4.461   4.236   1.443  0.3337 -0.3752 -0.9475
 4055SOL    HW212850   4.486   4.088   1.424 -0.4023 -0.2561 -3.1193
 4056SOL     OW12851   1.906   6.404   0.634  0.3885  0.5840  0.2854
 4056SOL    HW112852   1.910   6.322   0.684 -2.2484  1.2196  1.6951
 4056SOL    HW212853   1.953   6.384   0.552 -0.5178 -2.4579  0.3752
 4057SOL     OW12854   0.330   3.497   4.462  0.3641  0.3972  0.0853
 4057SOL    HW112855   0.336   3.405   4.434  3.7812  0.3549  0.4878
 4057SOL    HW212856   0.368   3.498   4.550 -2.7435  1.7775  1.5352
 4058SOL     OW12857   3.054   6.387   3.117 -0.2464 -0.6925 -0.0918
 4058SOL    HW112858   3.086   6.348   3.198  0.4450 -1.5110 -0.7432
 4058SOL    HW212859   3.125   6.375   3.054 -0.1859  1.2297 -0.4492
 4059SOL     OW12860   0.831   5.757   0.508  0.1934 -0.3280  0.0677
 4059SOL    HW112861   0.847   5.758   0.602  1.8223 -1.1627 -0.1661
 4059SOL    HW212862   0.904   5.806   0.470 -1.1569  1.1823 -0.7119
 4060SOL     OW12863   6.478   2.953   3.219 -0.2284  0.3607  0.3328
 4060SOL    HW112864   6.478   2.988   3.308  0.8974 -0.4418  0.6782
 4060SOL    HW212865   6.473   2.858   3.230 -0.5975  0.2731 -0.4859
 4061SOL     OW12866   5.941   5.916   1.508  0.1011  0.1569 -0.1075
 4061SOL    HW112867   5.880   5.966   1.561 -0.0210  1.3548 -1.3265
 4061SOL    HW212868   5.911   5.825   1.515 -0.2910  0.3747  1.3069
 4062SOL     OW12869   1.471   1.780   6.267 -0.3061 -0.6429  0.3155
 4062SOL    HW112870   1.400   1.758   6.207 -0.6134 -0.5641  0.6476
 4062SOL    HW212871   1.427   1.802   6.349  0.0259  0.4770  0.2124
 4063SOL     OW12872   2.593   2.314   5.658 -0.7918 -0.1102  0.0186
 4063SOL    HW112873   2.586   2.351   5.747 -0.4283  0.7768 -0.3123
 4063SOL    HW212874   2.558   2.383   5.601  0.1412 -0.1681 -0.6424
 4064SOL     OW12875   5.144   5.971   1.445  0.8909 -0.0219  0.1966
 4064SOL    HW112876   5.140   6.063   1.417 -0.1056 -0.6152 -1.8197
 4064SOL    HW212877   5.151   5.975   1.540  2.0905  2.1462  0.0747
 4065SOL     OW12878   2.875   6.460   0.808  0.4069 -0.6699  0.0727
 4065SOL    HW112879   2.862   6.525   0.876  0.7196  0.5785 -1.0193
 4065SOL    HW212880   2.790   6.452   0.764  0.6162 -0.2717 -0.4111
 4066SOL     OW12881   0.828   3.494   3.047  0.3723  0.1095  0.6265
 4066SOL    HW112882   0.782   3.426   3.097 -0.9834 -0.7402 -1.6220
 4066SOL    HW212883   0.912   3.454   3.024  0.2572 -0.1851  0.7096
 4067SOL     OW12884   1.356   1.253   3.914  0.2123  0.5677  0.3295
 4067SOL    HW112885   1.389   1.340   3.937  0.0995  0.3518  1.3602
 4067SOL    HW212886   1.302   1.228   3.989 -0.5669  0.0267 -0.4012
 4068SOL     OW12887   1.802   2.012   4.674  0.4184  0.4299 -0.3552
 4068SOL    HW112888   1.772   1.969   4.594 -0.7561  1.0494 -0.2719
 4068SOL    HW212889   1.860   2.082   4.643  0.7055  0.0831 -0.6045
 4069SOL     OW12890   0.299   3.521   5.695  0.3375  0.0739 -0.1561
 4069SOL    HW112891   0.203   3.525   5.688  0.1169  0.4308  2.1923
 4069SOL    HW212892   0.316   3.445   5.750  1.1864  1.6770  1.9010
 4070SOL     OW12893   6.133   4.067   4.798 -0.0875  0.0251  0.0685
 4070SOL    HW112894   6.225   4.046   4.815 -0.0463 -1.6906 -1.7875
 4070SOL    HW212895   6.132   4.160   4.778  1.1705  0.1486  0.4987
 4071SOL     OW12896   2.824   4.598   3.727  0.7024 -0.0698  0.5067
 4071SOL    HW112897   2.897   4.598   3.790 -0.0189  0.9921  1.3928
 4071SOL    HW212898   2.846   4.530   3.664  1.1974 -1.5374  2.2041
 4072SOL     OW12899   0.522   1.926   6.488 -0.3525  0.1017 -0.7245
 4072SOL    HW112900   0.512   2.004   6.434 -2.2939 -1.2549 -2.4859
 4072SOL    HW212901   0.448   1.870   6.463 -0.8347 -1.0166  2.7248
 4073SOL     OW12902   1.784   2.139   0.955  0.3120 -0.0370  0.2514
 4073SOL    HW112903   1.757   2.231   0.957  1.8320  0.5167 -1.6442
 4073SOL    HW212904   1.770   2.113   0.863 -0.3041 -1.7939  0.8016
 4074SOL     OW12905   2.805   5.323   4.549 -0.3336  0.4189  0.5414
 4074SOL    HW112906   2.773   5.305   4.461  0.9915 -1.7867  0.4532
 4074SOL    HW212907   2.896   5.350   4.537 -0.5777  1.5842  1.1582
 4075SOL     OW12908   3.798   6.018   6.075  0.1217  0.3429  0.3080
 4075SOL    HW112909   3.737   5.945   6.065 -0.4686  0.7188  0.9747
 4075SOL    HW212910   3.847   6.021   5.993 -0.0157 -0.6399  0.1791
 4076SOL     OW12911   4.552   2.679   1.260 -0.6335  0.3204 -0.0267
 4076SOL    HW112912   4.464   2.686   1.296 -1.4948  0.0761 -1.9798
 4076SOL    HW212913   4.592   2.606   1.309 -1.4502  0.5071  0.9485
 4077SOL     OW12914   2.305   1.071   5.624  0.8089  0.5623 -0.2193
 4077SOL    HW112915   2.397   1.045   5.633  1.0824  2.0448  2.1250
 4077SOL    HW212916   2.258   1.016   5.686  0.0299 -0.2811 -1.4995
 4078SOL     OW12917   2.636   4.457   1.282  0.0487 -0.0755  0.1174
 4078SOL    HW112918   2.679   4.371   1.278 -4.3450 -2.5831  0.8338
 4078SOL    HW212919   2.594   4.458   1.368 -2.6836  1.3345 -1.1372
 4079SOL     OW12920   0.277   5.571   2.985 -0.2705 -0.1664  0.5980
 4079SOL    HW112921   0.237   5.622   2.914  0.3534 -0.6839 -0.1272
 4079SOL    HW212922   0.211   5.574   3.055  0.0802  2.3664  0.9259
 4080SOL     OW12923   2.485   2.382   4.874 -0.2774  0.7190 -0.2331
 4080SOL    HW112924   2.415   2.374   4.809 -0.7379  1.9707  0.0738
 4080SOL    HW212925   2.439   2.411   4.954  0.3366 -0.3452  0.5267
 4081SOL     OW12926   0.448   3.288   0.853 -0.0244 -0.2841  0.8380
 4081SOL    HW112927   0.471   3.215   0.910  2.0990  0.0998  0.5822
 4081SOL    HW212928   0.531   3.313   0.812 -0.9980  1.1856 -0.3667
 4082SOL     OW12929   1.079   3.121   2.724  0.0547 -0.2605 -0.1285
 4082SOL    HW112930   1.108   3.196   2.672 -1.2607  0.3973  0.0465
 4082SOL    HW212931   0.997   3.094   2.684  0.8946 -2.1365 -0.6707
 4083SOL     OW12932   2.683   4.684   4.398  0.4236 -0.1420  0.8853
 4083SOL    HW112933   2.722   4.750   4.340  0.2455  0.3307  1.2994
 4083SOL    HW212934   2.604   4.655   4.351 -0.0825  0.7191  1.1770
 4084SOL     OW12935   2.231   0.209   5.226 -0.5127 -0.7536 -0.4299
 4084SOL    HW112936   2.189   0.254   5.299  0.0836 -0.1305 -0.4669
 4084SOL    HW212937   2.182   0.127   5.219 -1.1402 -0.4449  0.1049
 4085SOL     OW12938   2.849   5.058   0.678  0.4472 -0.2622 -0.1564
 4085SOL    HW112939   2.862   4.996   0.605 -0.2088  0.3763 -0.8362
 4085SOL    HW212940   2.777   5.020   0.729  0.5819 -0.4661 -0.1171
 4086SOL     OW12941   2.912   0.003   4.893  0.0137 -0.3049  0.5355
 4086SOL    HW112942   2.970  -0.072   4.883  0.9571  0.5167 -0.4737
 4086SOL    HW212943   2.874  -0.006   4.980  0.7385 -1.5005  0.7392
 4087SOL     OW12944   5.332   5.858   1.237 -0.4627 -0.1738 -0.3292
 4087SOL    HW112945   5.388   5.823   1.307 -0.1904  1.6925  0.4382
 4087SOL    HW212946   5.324   5.951   1.256  0.6250  0.6964 -3.4689
 4088SOL     OW12947   4.213   0.232   3.829 -0.1453 -0.4369  0.0416
 4088SOL    HW112948   4.233   0.271   3.744  0.4389 -0.3827  0.1986
 4088SOL    HW212949   4.280   0.267   3.888  0.6729 -1.9815  0.0975
 4089SOL     OW12950   6.479   6.003   1.868  0.4528 -0.1139  0.4006
 4089SOL    HW112951   6.486   6.035   1.777  0.5976 -0.0294  0.4408
 4089SOL    HW212952   6.407   6.053   1.905 -0.1185 -0.7008  0.1022
 4090SOL     OW12953   1.025   0.528   5.872 -0.0169 -0.6907  0.1916
 4090SOL    HW112954   0.976   0.576   5.939  0.8433 -0.5224  0.7207
 4090SOL    HW212955   1.018   0.437   5.898 -0.7041 -0.7515 -0.1807
 4091SOL     OW12956   1.413   4.523   3.133 -0.0266 -0.4002  0.3536
 4091SOL    HW112957   1.365   4.557   3.209 -1.6094 -0.1883 -0.6795
 4091SOL    HW212958   1.347   4.520   3.064  0.8246 -2.6676 -0.4364
 4092SOL     OW12959   6.158   6.441   5.335 -0.4447  0.5488  0.2267
 4092SOL    HW112960   6.147   6.470   5.425 -0.0813 -0.0157  0.4583
 4092SOL    HW212961   6.220   6.503   5.297 -0.2101  0.4907  0.5145
 4093SOL     OW12962   2.686   5.940   5.646  0.4733 -0.2559 -0.2026
 4093SOL    HW112963   2.719   6.028   5.663 -2.6371  0.9556  0.3684
 4093SOL    HW212964   2.597   5.955   5.613 -0.0894 -3.2036 -0.2444
 4094SOL     OW12965   2.945   3.432   6.016  0.0124 -0.2460  0.0531
 4094SOL    HW112966   2.985   3.451   5.931 -1.3172  2.1591 -0.1234
 4094SOL    HW212967   2.903   3.514   6.041  0.2235 -0.9365  2.9894
 4095SOL     OW12968   3.841   2.537   4.706  0.6459 -0.4785 -0.2512
 4095SOL    HW112969   3.790   2.457   4.707  0.9176 -0.6664  1.3353
 4095SOL    HW212970   3.926   2.511   4.671 -0.1200 -0.2689 -2.4053
 4096SOL     OW12971   5.332   6.129   0.332  0.3352  0.1168 -0.2351
 4096SOL    HW112972   5.314   6.035   0.333  0.3544  0.1086  0.8410
 4096SOL    HW212973   5.427   6.135   0.326  0.5469 -0.0139  1.9896
 4097SOL     OW12974   4.271   4.369   4.102  0.4691 -0.1405 -0.6147
 4097SOL    HW112975   4.328   4.441   4.131 -0.0988  0.0182  0.1390
 4097SOL    HW212976   4.298   4.295   4.156  1.0245 -0.4894 -1.3619
 4098SOL     OW12977   2.467   0.514   4.530 -0.1077 -0.3392 -0.5454
 4098SOL    HW112978   2.379   0.551   4.536  0.1792  0.1676  0.9746
 4098SOL    HW212979   2.522   0.586   4.496  0.1718  0.1845  0.9627
 4099SOL     OW12980   1.787   3.802   3.013  0.0959  0.0917 -0.1909
 4099SOL    HW112981   1.708   3.828   3.061 -0.9452 -0.8898 -1.2854
 4099SOL    HW212982   1.853   3.866   3.039 -0.7885  0.3999  1.4747
 4100SOL     OW12983   5.169   4.364   6.083  0.4616 -0.6921 -0.0658
 4100SOL    HW112984   5.166   4.377   5.988  2.7282 -1.1915 -0.2541
 4100SOL    HW212985   5.214   4.281   6.095 -1.7181 -1.7586  1.4575
 4101SOL     OW12986   2.797   4.473   0.630  0.0074  0.6102  0.4597
 4101SOL    HW112987   2.880   4.459   0.585 -0.4656 -1.0200 -0.0045
 4101SOL    HW212988   2.735   4.493   0.559  0.1575  2.8446  0.8943
 4102SOL     OW12989   2.713   3.905   5.063  0.5096  0.0655 -0.1772
 4102SOL    HW112990   2.654   3.975   5.091 -1.6198 -1.6629 -0.0887
 4102SOL    HW212991   2.719   3.915   4.968  0.1236  0.3195 -0.1772
 4103SOL     OW12992   0.618   2.498   5.779  0.5965 -0.4754  0.2882
 4103SOL    HW112993   0.603   2.472   5.688 -0.5800  0.1092  0.2928
 4103SOL    HW212994   0.651   2.419   5.822  2.7934 -0.3225 -0.9929
 4104SOL     OW12995   1.769   3.702   0.330  0.1279  0.3761 -0.1712
 4104SOL    HW112996   1.737   3.676   0.416 -1.7018  1.1277 -0.5632
 4104SOL    HW212997   1.801   3.791   0.342  0.3349  0.3031 -0.1740
 4105SOL     OW12998   2.423   5.499   2.573  0.7639 -0.2262 -0.2623
 4105SOL    HW112999   2.448   5.407   2.565  1.8294  0.0376 -0.1532
 4105SOL    HW213000   2.473   5.530   2.648  0.2793  0.4052 -0.1943
 4106SOL     OW13001   2.128   4.267   2.802 -0.3551  0.0606  0.3071
 4106SOL    HW113002   2.098   4.351   2.768 -0.7856  0.0734  0.7055
 4106SOL    HW213003   2.212   4.251   2.758 -0.0692  0.9011  0.5340
 4107SOL     OW13004   2.071   4.850   2.560 -0.0121  0.0624  0.8245
 4107SOL    HW113005   2.116   4.769   2.586  2.0786  0.7099 -0.4560
 4107SOL    HW213006   1.985   4.821   2.529  0.6243 -1.6705  0.5350
 4108SOL     OW13007   3.379   1.366   3.902  0.0340  0.0269  0.2805
 4108SOL    HW113008   3.334   1.314   3.836  0.1283  0.8759 -0.4792
 4108SOL    HW213009   3.409   1.444   3.854  1.1003  0.1284  1.0701
 4109SOL     OW13010   6.397   1.379   6.307 -0.3219  0.1863  0.2705
 4109SOL    HW113011   6.389   1.307   6.370  1.2142  0.4773  0.8409
 4109SOL    HW213012   6.311   1.422   6.309 -0.8987 -0.9413  0.7517
 4110SOL     OW13013   4.553   5.304   3.028 -0.0451  0.0446 -0.7642
 4110SOL    HW113014   4.561   5.214   2.996 -0.8825  0.0781 -1.1057
 4110SOL    HW213015   4.643   5.333   3.043  0.2174 -0.9299 -0.4225
 4111SOL     OW13016   3.121   0.597   3.848 -0.3752  0.0621 -0.3678
 4111SOL    HW113017   3.146   0.505   3.847 -1.5224 -0.2960  0.7946
 4111SOL    HW213018   3.199   0.644   3.819  0.9985 -1.1153  1.2249
 4112SOL     OW13019   5.892   6.221   0.382  0.5390 -0.6337  0.1568
 4112SOL    HW113020   5.923   6.133   0.400  1.9400 -0.3610 -0.7474
 4112SOL    HW213021   5.891   6.227   0.286  2.5012  0.9555  0.1640
 4113SOL     OW13022   6.364   2.497   2.124  0.1478 -0.1775  0.4290
 4113SOL    HW113023   6.393   2.571   2.177  1.2947 -0.4201  0.1566
 4113SOL    HW213024   6.295   2.533   2.068  0.5711  0.6444  0.4288
 4114SOL     OW13025   1.695   2.381   5.406  0.7698  0.4698  0.2116
 4114SOL    HW113026   1.611   2.405   5.365  0.3410  0.5630  1.1203
 4114SOL    HW213027   1.674   2.306   5.461  1.3282  0.3647  0.2846
 4115SOL     OW13028   0.363   3.587   1.278  1.0143  0.0570 -0.0023
 4115SOL    HW113029   0.420   3.510   1.282 -0.2409 -1.0378 -1.6280
 4115SOL    HW213030   0.339   3.605   1.368  2.2993 -0.7095  0.5163
 4116SOL     OW13031   0.437   5.243   0.543 -0.0513 -0.8851  0.2757
 4116SOL    HW113032   0.385   5.302   0.597  0.0872 -1.3172  0.8918
 4116SOL    HW213033   0.379   5.169   0.525 -0.2599 -0.5327 -0.5820
 4117SOL     OW13034   0.424   5.667   3.884 -0.0030  0.2464 -0.0653
 4117SOL    HW113035   0.387   5.661   3.972  1.9974 -0.7850  0.7736
 4117SOL    HW213036   0.453   5.578   3.864  1.5451  0.8835 -0.8378
 4118SOL     OW13037   5.003   0.413   3.871  0.0391 -0.8141  0.0395
 4118SOL    HW113038   4.930   0.354   3.855 -0.1916 -0.6847  0.5709
 4118SOL    HW213039   4.968   0.477   3.935  0.3199 -0.1904 -0.4201
 4119SOL     OW13040   4.303   0.894   1.702 -0.4985  0.2645  0.4902
 4119SOL    HW113041   4.370   0.962   1.693 -0.1529 -0.1029  0.1995
 4119SOL    HW213042   4.341   0.832   1.765  1.3562 -2.1162 -2.6015
 4120SOL     OW13043   3.873   2.961   1.446 -0.2690 -0.1593  0.1354
 4120SOL    HW113044   3.803   3.002   1.497  1.2329 -0.9091  3.0535
 4120SOL    HW213045   3.827   2.910   1.379 -2.3585  1.3112  0.3369
 4121SOL     OW13046   3.191   5.746   3.754  0.2926 -0.3798 -0.4742
 4121SOL    HW113047   3.104   5.766   3.789  1.0268  4.3372 -0.7084
 4121SOL    HW213048   3.178   5.735   3.660 -0.1196 -0.7262 -0.3806
 4122SOL     OW13049   5.655   3.395   3.873  0.4182 -0.4157 -0.0091
 4122SOL    HW113050   5.709   3.320   3.847  0.6174  0.3273 -1.9112
 4122SOL    HW213051   5.611   3.422   3.792  0.6955  1.7760  0.4966
 4123SOL     OW13052   6.463   5.526   0.684  0.1471  0.1738 -0.5304
 4123SOL    HW113053   6.497   5.472   0.755 -0.4628 -0.7288 -0.9017
 4123SOL    HW213054   6.532   5.590   0.667  1.3191 -1.0941 -0.7218
 4124SOL     OW13055   3.340   5.275   5.604 -0.1285 -0.3206 -0.0340
 4124SOL    HW113056   3.426   5.311   5.583  0.3520 -1.6117 -0.3404
 4124SOL    HW213057   3.285   5.299   5.530 -0.3760  1.5674  0.7161
 4125SOL     OW13058   5.052   1.129   6.430 -0.7875  0.0100 -0.1899
 4125SOL    HW113059   4.983   1.186   6.463 -2.4933 -0.1206 -3.2109
 4125SOL    HW213060   5.007   1.048   6.407  0.7445 -0.7821 -0.4966
 4126SOL     OW13061   4.983   1.353   2.398 -0.1705 -0.2371 -1.0350
 4126SOL    HW113062   4.900   1.310   2.377  0.4056 -1.3259 -1.1736
 4126SOL    HW213063   5.022   1.298   2.466  1.4482 -1.0617 -2.5350
 4127SOL     OW13064   5.277   5.166   0.643  0.2716 -0.3366  0.0605
 4127SOL    HW113065   5.295   5.251   0.604  0.4910 -1.0272 -1.3962
 4127SOL    HW213066   5.362   5.134   0.673 -0.0636  0.7407  2.3586
 4128SOL     OW13067   5.534   3.381   3.634 -0.3544  0.0595 -0.3894
 4128SOL    HW113068   5.481   3.454   3.602 -0.7852  0.4655  1.1346
 4128SOL    HW213069   5.470   3.313   3.656 -0.0981 -0.1114 -0.1634
 4129SOL     OW13070   0.439   2.888   1.588 -0.1294 -0.3237  0.8023
 4129SOL    HW113071   0.434   2.841   1.505 -0.9351  3.6452 -1.7013
 4129SOL    HW213072   0.349   2.916   1.605  0.1157 -0.5736  2.7968
 4130SOL     OW13073   5.981   6.374   0.597  0.3430 -0.9029  0.1179
 4130SOL    HW113074   5.957   6.317   0.524 -2.2319 -0.8024  0.7693
 4130SOL    HW213075   5.970   6.320   0.675 -0.2422 -0.1006  0.6145
 4131SOL     OW13076   5.788   4.783   5.970 -0.1472 -0.6661 -0.3351
 4131SOL    HW113077   5.703   4.747   5.945  0.1106 -2.0738  0.6939
 4131SOL    HW213078   5.842   4.773   5.892 -1.4642  2.3387 -1.7945
 4132SOL     OW13079   2.647   2.907   5.386  0.0698 -0.4732  0.8140
 4132SOL    HW113080   2.678   2.874   5.301  1.9771  0.0582  1.2422
 4132SOL    HW213081   2.689   2.849   5.450 -0.2623 -0.0400  1.4268
 4133SOL     OW13082   3.316   2.778   3.354  0.6872  0.0912  0.3370
 4133SOL    HW113083   3.363   2.858   3.331 -0.0082  0.4493  0.1128
 4133SOL    HW213084   3.355   2.711   3.299  1.7986  0.1103  1.0821
 4134SOL     OW13085   4.699   6.514   1.491  0.6281  0.2054  0.6772
 4134SOL    HW113086   4.790   6.501   1.516  0.2101 -0.8644  1.7735
 4134SOL    HW213087   4.694   6.606   1.465  2.2004  0.0541 -0.3129
 4135SOL     OW13088   2.149   2.966   3.024 -0.0360 -0.4850 -0.7167
 4135SOL    HW113089   2.195   2.896   3.069 -0.6903 -0.0155  0.7401
 4135SOL    HW213090   2.217   3.029   3.000  0.2995 -0.6323 -0.1539
 4136SOL     OW13091   2.979   5.265   5.759  0.3767 -0.1635  0.2693
 4136SOL    HW113092   3.020   5.198   5.814  0.0424 -1.3441 -0.8717
 4136SOL    HW213093   3.037   5.341   5.766 -0.2728  0.1944  3.2033
 4137SOL     OW13094   6.176   3.863   0.627 -0.4451 -0.0340  0.3540
 4137SOL    HW113095   6.089   3.847   0.663 -0.6390  0.3185  0.0463
 4137SOL    HW213096   6.187   3.795   0.561 -1.4621  1.3298 -1.2902
 4138SOL     OW13097   3.798   4.463   3.219  0.4255 -0.2546  0.2761
 4138SOL    HW113098   3.727   4.429   3.275  0.4629  0.0678  0.5244
 4138SOL    HW213099   3.755   4.481   3.135 -0.5832  2.9709  1.3227
 4139SOL     OW13100   5.911   1.077   5.528 -0.1613  0.4549 -0.5308
 4139SOL    HW113101   5.923   1.169   5.552  0.7142 -0.4459  3.0943
 4139SOL    HW213102   5.841   1.046   5.586  1.2482 -1.7110  0.1264
 4140SOL     OW13103   0.686   3.459   4.729 -0.1545 -0.2750  0.0422
 4140SOL    HW113104   0.699   3.431   4.819 -0.6070  1.5366  0.7149
 4140SOL    HW213105   0.755   3.524   4.714  0.4565 -1.1704 -1.2287
 4141SOL     OW13106   1.992   3.097   4.103 -0.0109  0.5745  0.3568
 4141SOL    HW113107   1.947   3.013   4.116 -0.3029  0.2976 -1.9866
 4141SOL    HW213108   1.929   3.162   4.133 -0.2572  0.0191  1.0905
 4142SOL     OW13109   0.387   1.469   0.025  0.1823  0.1806 -0.4656
 4142SOL    HW113110   0.340   1.539   0.070 -0.5612  0.3834 -1.5258
 4142SOL    HW213111   0.372   1.391   0.078  1.9026  0.9724  1.3365
 4143SOL     OW13112   0.926   4.254   0.420 -0.3850  0.0492  0.1432
 4143SOL    HW113113   0.919   4.308   0.342  1.7744  0.2641  0.0301
 4143SOL    HW213114   0.897   4.310   0.492 -1.2401  0.2473 -0.3455
 4144SOL     OW13115   5.934   4.956   1.513  0.1842  0.4538  0.5430
 4144SOL    HW113116   5.856   4.901   1.525  0.9154 -0.4342  1.4369
 4144SOL    HW213117   5.968   4.931   1.427  0.3697 -0.3184  0.8357
 4145SOL     OW13118   0.971   6.176   4.871 -0.5576 -0.1790 -0.2656
 4145SOL    HW113119   0.923   6.128   4.938 -0.6005 -0.2026 -0.3132
 4145SOL    HW213120   0.904   6.223   4.821 -0.3347  2.2180  1.5204
 4146SOL     OW13121   4.633   6.360   5.971  0.2805 -0.3902  0.3068
 4146SOL    HW113122   4.627   6.272   5.932 -3.4862  0.4259 -1.3489
 4146SOL    HW213123   4.567   6.360   6.039 -0.7970  1.5586 -0.6783
 4147SOL     OW13124   0.100   1.132   1.891  0.0912 -0.3335 -0.5019
 4147SOL    HW113125   0.015   1.106   1.853  0.1325  0.3662 -1.0840
 4147SOL    HW213126   0.144   1.180   1.821  1.1714 -1.0712 -0.3614
 4148SOL     OW13127   1.696   5.741   6.216  0.0627  0.2039 -0.6255
 4148SOL    HW113128   1.656   5.764   6.300  1.2961 -0.6593  0.2436
 4148SOL    HW213129   1.756   5.813   6.198 -1.5949  1.3698 -1.7997
 4149SOL     OW13130   1.278   3.273   3.152  0.0309 -0.2979 -0.2019
 4149SOL    HW113131   1.301   3.255   3.244  0.8631  0.8005 -0.1732
 4149SOL    HW213132   1.314   3.198   3.104 -1.9980 -1.8247  0.5212
 4150SOL     OW13133   2.717   6.020   0.494 -0.0369  0.0492  0.5494
 4150SOL    HW113134   2.628   5.992   0.516 -0.2806 -1.2592 -1.8024
 4150SOL    HW213135   2.752   5.948   0.440  1.6954  1.4590 -0.2987
 4151SOL     OW13136   3.203   1.164   2.348 -0.3669  0.5063  0.6045
 4151SOL    HW113137   3.218   1.248   2.306  0.5612 -0.1176 -0.3628
 4151SOL    HW213138   3.249   1.101   2.293 -0.3252 -0.5298  1.7827
 4152SOL     OW13139   3.253   0.416   5.260  0.1724 -0.4369  0.1217
 4152SOL    HW113140   3.255   0.440   5.167  0.6208  0.3784  0.3379
 4152SOL    HW213141   3.228   0.324   5.260 -1.1090 -0.1186 -0.7565
 4153SOL     OW13142   2.218   1.622   5.194 -0.0934  0.1946 -0.4191
 4153SOL    HW113143   2.266   1.646   5.114 -1.9595  1.5760 -1.1984
 4153SOL    HW213144   2.149   1.564   5.164  0.1871 -0.6009  0.4644
 4154SOL     OW13145   6.468   2.971   1.777 -0.5236 -0.4791  0.1423
 4154SOL    HW113146   6.537   2.987   1.840  0.3121  2.6491 -1.3853
 4154SOL    HW213147   6.387   2.984   1.826  0.0976  1.4802  0.7192
 4155SOL     OW13148   0.205   0.433   4.455  0.1723  0.2085  0.1984
 4155SOL    HW113149   0.153   0.353   4.446  2.1973 -1.2728  1.0793
 4155SOL    HW213150   0.193   0.478   4.371 -0.3691 -1.4215 -0.6503
 4156SOL     OW13151   3.178   1.909   4.302 -0.1707 -0.4404  0.7433
 4156SOL    HW113152   3.089   1.938   4.281  0.3325  1.7131  1.2798
 4156SOL    HW213153   3.221   1.988   4.336  1.7963 -1.5524  0.9855
 4157SOL     OW13154   2.157   1.508   0.262 -0.1262 -0.0836  0.4754
 4157SOL    HW113155   2.128   1.582   0.209  0.2052 -0.5278 -0.3353
 4157SOL    HW213156   2.252   1.505   0.251  0.0585  0.2933  1.7289
 4158SOL     OW13157   1.736   1.754   5.656  0.6236  0.7315  0.7542
 4158SOL    HW113158   1.698   1.709   5.581  0.3428  2.9228 -0.4985
 4158SOL    HW213159   1.661   1.795   5.700  1.1248  2.4583  0.0843
 4159SOL     OW13160   1.108   5.730   1.369  0.1575  0.1661  0.0928
 4159SOL    HW113161   1.031   5.781   1.344  0.0897  0.3659  0.7077
 4159SOL    HW213162   1.180   5.792   1.364  0.1450  0.2032  0.3951
 4160SOL     OW13163   5.621   5.281   1.283 -0.0940 -0.7263  0.0325
 4160SOL    HW113164   5.555   5.329   1.234  0.6161  0.6370  0.3311
 4160SOL    HW213165   5.697   5.278   1.225 -0.7540 -3.3621 -0.7964
 4161SOL     OW13166   2.133   2.202   4.308  0.1551  0.2956 -0.1485
 4161SOL    HW113167   2.065   2.265   4.283  0.6147  0.9800  0.3030
 4161SOL    HW213168   2.185   2.247   4.374  0.5534 -0.5294  0.1186
 4162SOL     OW13169   5.774   6.361   4.489  0.2268 -0.5596 -0.0326
 4162SOL    HW113170   5.811   6.392   4.406  1.1005 -1.7407 -0.1054
 4162SOL    HW213171   5.849   6.327   4.537 -0.3679 -0.4314  0.9985
 4163SOL     OW13172   5.860   0.407   6.314  0.3249  0.2811  0.2858
 4163SOL    HW113173   5.854   0.376   6.404  1.1001 -0.7135  0.0138
 4163SOL    HW213174   5.769   0.425   6.289 -0.2180 -1.8620  0.4631
 4164SOL     OW13175   4.197   3.955   5.785 -0.0151 -0.4913 -0.3272
 4164SOL    HW113176   4.254   3.892   5.830 -0.5393 -1.0732 -0.4746
 4164SOL    HW213177   4.256   4.027   5.763  0.9489 -1.5633 -1.4737
 4165SOL     OW13178   4.719   0.590   0.747  0.0947 -0.1243  0.2111
 4165SOL    HW113179   4.684   0.634   0.669  0.4979 -1.6682 -0.8927
 4165SOL    HW213180   4.643   0.575   0.803 -0.0004  2.2886  0.8359
 4166SOL     OW13181   5.597   2.291   1.977 -0.9006 -0.0348  0.1716
 4166SOL    HW113182   5.629   2.201   1.970  0.2954  0.2324  1.5086
 4166SOL    HW213183   5.515   2.284   2.025 -2.1085 -0.6025 -1.8942
 4167SOL     OW13184   5.404   5.393   1.002  0.4310 -0.6551 -0.0957
 4167SOL    HW113185   5.315   5.422   0.980  0.3926  0.7668  1.7357
 4167SOL    HW213186   5.457   5.424   0.928 -0.1882  0.9938  0.0997
 4168SOL     OW13187   1.615   1.223   0.229  0.1566  0.2595 -0.4128
 4168SOL    HW113188   1.659   1.197   0.149 -0.3242 -0.2466 -0.5160
 4168SOL    HW213189   1.590   1.141   0.271  0.9127  0.5066  0.5445
 4169SOL     OW13190   4.334   4.454   1.967  0.8079  0.0500  0.5134
 4169SOL    HW113191   4.243   4.432   1.984  0.9608 -1.0767 -0.0733
 4169SOL    HW213192   4.381   4.371   1.975  1.3972  0.1094 -1.7540
 4170SOL     OW13193   2.676   3.806   0.696  0.4275  0.6826 -0.4750
 4170SOL    HW113194   2.650   3.879   0.752  0.8396  1.2978 -1.0673
 4170SOL    HW213195   2.619   3.814   0.619  2.9644  2.7452 -2.3435
 4171SOL     OW13196   2.850   2.421   5.659  0.1167  0.4275 -0.3871
 4171SOL    HW113197   2.758   2.400   5.644 -0.2759  2.0530 -0.4027
 4171SOL    HW213198   2.898   2.345   5.624 -1.1937 -0.4076 -0.4415
 4172SOL     OW13199   0.877   1.196   2.762  0.7185 -0.1906 -0.0312
 4172SOL    HW113200   0.939   1.267   2.745  2.2424 -1.8201 -1.7974
 4172SOL    HW213201   0.894   1.133   2.693 -0.8887 -2.0971  1.2075
 4173SOL     OW13202   2.602   2.157   1.247  0.1764 -0.1557 -0.0268
 4173SOL    HW113203   2.579   2.086   1.188  1.1914  0.4425 -1.1817
 4173SOL    HW213204   2.697   2.149   1.260  0.4388  1.3847 -0.7557
 4174SOL     OW13205   0.608   4.061   3.115 -0.2308 -0.5802  0.2083
 4174SOL    HW113206   0.633   4.144   3.073  0.9909 -1.0255  0.0168
 4174SOL    HW213207   0.637   4.070   3.205  0.7323 -1.1362 -0.0361
 4175SOL     OW13208   1.491   4.362   0.782  0.3159  0.3007  0.4146
 4175SOL    HW113209   1.397   4.376   0.774  0.0511 -0.8529  1.2910
 4175SOL    HW213210   1.512   4.299   0.714  0.5572  0.9228 -0.0983
 4176SOL     OW13211   3.198   4.077   2.732 -0.7515 -0.3882 -0.9331
 4176SOL    HW113212   3.246   4.033   2.661  0.6450  0.0319 -0.2842
 4176SOL    HW213213   3.155   4.151   2.688 -0.4416 -0.5112 -1.4613
 4177SOL     OW13214   4.866   0.590   4.055  0.2044 -0.2999  0.2937
 4177SOL    HW113215   4.808   0.536   4.109  0.5214 -0.4578  0.4796
 4177SOL    HW213216   4.838   0.680   4.070 -0.6866 -0.4362 -0.4282
 4178SOL     OW13217   4.982   4.063   5.588 -0.3957  0.0796 -0.0916
 4178SOL    HW113218   4.955   4.126   5.656 -0.0038 -1.6997  1.8177
 4178SOL    HW213219   4.903   4.013   5.570 -0.1906 -0.2874  0.0173
 4179SOL     OW13220   0.470   3.753   3.468 -0.1762  0.0985  0.5168
 4179SOL    HW113221   0.548   3.761   3.413 -0.1351  1.1375  0.7022
 4179SOL    HW213222   0.417   3.687   3.425  1.3199 -1.5172  1.0202
 4180SOL     OW13223   5.889   3.073   6.371 -0.3775  0.4151 -0.7630
 4180SOL    HW113224   5.857   3.022   6.296 -0.3770  0.7039 -0.9584
 4180SOL    HW213225   5.852   3.028   6.447 -0.4892  0.2009 -0.9411
 4181SOL     OW13226   0.475   4.073   5.693  0.3808 -0.1146  0.3765
 4181SOL    HW113227   0.427   4.117   5.622  0.1585 -1.2854 -0.2207
 4181SOL    HW213228   0.428   4.099   5.772 -0.9206 -0.7689 -0.1453
 4182SOL     OW13229   1.163   5.572   0.136  0.1466 -0.2547  0.0193
 4182SOL    HW113230   1.145   5.584   0.229  1.1134 -0.1168  0.1983
 4182SOL    HW213231   1.233   5.506   0.133 -0.1483 -0.5503 -0.6286
 4183SOL     OW13232   2.769   0.167   0.333  0.2657  0.3440 -0.5791
 4183SOL    HW113233   2.705   0.168   0.404  0.4447  0.3724 -0.4183
 4183SOL    HW213234   2.836   0.105   0.362  0.7835  1.0145 -0.3318
 4184SOL     OW13235   1.270   5.392   2.467 -0.3631  0.2481  0.1468
 4184SOL    HW113236   1.319   5.371   2.388  0.9820  2.5144  0.2749
 4184SOL    HW213237   1.189   5.434   2.436 -0.4814 -0.1157 -0.0339
 4185SOL     OW13238   4.794   0.029   0.915  0.0433  0.0498  0.5525
 4185SOL    HW113239   4.812  -0.065   0.921 -1.5050 -0.2637  0.8850
 4185SOL    HW213240   4.793   0.059   1.006  1.3161  0.5725  0.4112
 4186SOL     OW13241   4.309   4.120   0.557  0.1316 -0.3846 -0.3226
 4186SOL    HW113242   4.247   4.149   0.490 -0.2145 -0.9853 -0.2673
 4186SOL    HW213243   4.395   4.137   0.518 -0.0121  1.9600  0.2359
 4187SOL     OW13244   5.309   5.695   3.021 -0.1773  0.1118  0.8658
 4187SOL    HW113245   5.231   5.745   3.045 -0.1728  1.6225 -1.8527
 4187SOL    HW213246   5.276   5.625   2.964  0.4627  1.6000 -1.4770
 4188SOL     OW13247   4.872   5.779   4.715  0.2368  0.0961  0.3039
 4188SOL    HW113248   4.874   5.797   4.809 -0.8254 -0.2012  0.3935
 4188SOL    HW213249   4.843   5.688   4.708  0.2687  0.1298 -0.3120
 4189SOL     OW13250   1.929   0.976   5.938  0.0119 -0.1954 -0.4855
 4189SOL    HW113251   2.009   0.962   5.889 -0.6297  0.5313 -1.7987
 4189SOL    HW213252   1.872   1.024   5.878 -1.7822 -1.5490  0.0400
 4190SOL     OW13253   2.106   1.263   0.135 -0.0067  0.4305 -0.3844
 4190SOL    HW113254   2.084   1.329   0.201 -0.0027  1.4450 -1.3468
 4190SOL    HW213255   2.070   1.299   0.054  1.3358 -0.0268 -1.2101
 4191SOL     OW13256   5.144   2.623   2.606  0.0602  0.0129 -1.0609
 4191SOL    HW113257   5.113   2.695   2.552 -1.3632 -0.1967 -0.5570
 4191SOL    HW213258   5.112   2.643   2.694 -0.4900 -1.3043 -0.9382
 4192SOL     OW13259   4.151   3.070   4.022 -0.2814 -0.1197 -0.0522
 4192SOL    HW113260   4.161   3.015   3.944  1.3207 -0.1738  0.1607
 4192SOL    HW213261   4.236   3.113   4.032 -0.8787  0.8723  0.9388
 4193SOL     OW13262   0.201   2.090   1.011 -0.1720  0.6655 -0.0621
 4193SOL    HW113263   0.162   2.143   1.080  1.5805 -0.1638  1.6856
 4193SOL    HW213264   0.295   2.107   1.018  0.0652  0.7603 -2.4803
 4194SOL     OW13265   3.376   0.428   2.482  0.5545 -0.4366  0.1714
 4194SOL    HW113266   3.288   0.441   2.516  0.1831  0.1776 -0.9903
 4194SOL    HW213267   3.421   0.511   2.496  0.7120 -0.4985  0.0398
 4195SOL     OW13268   5.293   4.120   2.608  0.3312 -0.6739 -0.5054
 4195SOL    HW113269   5.334   4.035   2.595 -1.5354 -1.4906 -1.5489
 4195SOL    HW213270   5.360   4.184   2.584  1.9145 -1.8034  0.7194
 4196SOL     OW13271   3.907   1.402   3.026 -0.5387 -0.2968 -0.1633
 4196SOL    HW113272   3.901   1.307   3.012 -0.2946 -0.2340 -0.7340
 4196SOL    HW213273   3.837   1.438   2.972  0.0278 -0.0876 -0.7726
 4197SOL     OW13274   1.724   0.481   0.949  0.1033  0.0504 -0.1267
 4197SOL    HW113275   1.660   0.510   1.014  0.2461 -1.0807  0.5384
 4197SOL    HW213276   1.671   0.453   0.874 -0.0507  1.6377 -0.6459
 4198SOL     OW13277   0.269   3.901   4.668  0.3312  0.6577  0.4538
 4198SOL    HW113278   0.176   3.918   4.653  0.0536 -1.5873 -0.9656
 4198SOL    HW213279   0.286   3.933   4.757 -2.5400 -1.4232  1.9071
 4199SOL     OW13280   5.083   2.684   4.777 -0.3873  0.0699 -0.0878
 4199SOL    HW113281   4.999   2.725   4.796  0.0924  0.7112  0.7372
 4199SOL    HW213282   5.148   2.751   4.800  0.3666 -0.6039 -0.1929
 4200SOL     OW13283   1.913   0.295   6.489  0.0784  0.1258 -0.1282
 4200SOL    HW113284   1.975   0.360   6.521  1.3147 -1.4928  0.9362
 4200SOL    HW213285   1.963   0.242   6.427  0.0361 -1.5627  1.1722
 4201SOL     OW13286   2.635   0.659   1.897 -0.2135  0.1356  0.4209
 4201SOL    HW113287   2.572   0.694   1.960  0.0221 -0.8733  1.2452
 4201SOL    HW213288   2.674   0.584   1.942  0.6270 -0.0443 -0.5849
 4202SOL     OW13289   3.241   4.570   6.167 -0.3308 -0.3853 -0.2646
 4202SOL    HW113290   3.289   4.609   6.094  0.3993  0.9195  0.8691
 4202SOL    HW213291   3.155   4.610   6.163 -0.3280 -0.3943 -0.4558
 4203SOL     OW13292   4.247   2.917   0.769 -0.1178 -0.5930 -0.4119
 4203SOL    HW113293   4.200   2.989   0.811 -0.2475 -0.8696 -0.0809
 4203SOL    HW213294   4.280   2.864   0.842 -0.3673 -1.0918 -0.6607
 4204SOL     OW13295   5.776   6.129   5.685  0.6451  0.2768 -0.3359
 4204SOL    HW113296   5.834   6.204   5.696  2.0330 -0.1750 -3.5450
 4204SOL    HW213297   5.692   6.168   5.660  0.6796  0.8092  0.3462
 4205SOL     OW13298   3.868   3.189   2.227  0.9457 -0.9889 -0.1728
 4205SOL    HW113299   3.804   3.243   2.181  0.2599 -0.5939  1.2047
 4205SOL    HW213300   3.925   3.252   2.272  1.1620 -1.3753  0.1011
 4206SOL     OW13301   2.783   0.588   5.398  0.0206 -0.1213  0.2055
 4206SOL    HW113302   2.762   0.679   5.378  1.7877 -0.0247 -1.4290
 4206SOL    HW213303   2.862   0.570   5.348 -0.5505 -2.7187  0.1312
 4207SOL     OW13304   6.300   2.230   5.702  0.2944  0.0005  0.1343
 4207SOL    HW113305   6.326   2.240   5.794  2.7099  1.0644 -0.5728
 4207SOL    HW213306   6.274   2.318   5.674  1.8933  0.2216 -0.7835
 4208SOL     OW13307   4.150   2.430   0.543 -0.2753  0.0756 -0.4914
 4208SOL    HW113308   4.181   2.521   0.552 -0.4205  0.0092  0.9292
 4208SOL    HW213309   4.146   2.416   0.448 -0.1788  1.5268 -0.7427
 4209SOL     OW13310   5.593   0.511   4.730  0.1878 -0.3820 -0.1397
 4209SOL    HW113311   5.586   0.433   4.676  0.2218 -0.2993 -0.2648
 4209SOL    HW213312   5.521   0.567   4.701 -1.3362 -1.3284  1.5506
 4210SOL     OW13313   3.939   0.084   5.852 -0.6637  1.0052 -0.4381
 4210SOL    HW113314   3.920   0.063   5.943 -1.9255  0.7888 -0.7321
 4210SOL    HW213315   3.860   0.125   5.819 -0.1982  1.1612 -1.4175
 4211SOL     OW13316   5.826   5.871   5.658  0.3438 -0.3995 -0.2358
 4211SOL    HW113317   5.832   5.960   5.693 -0.5319 -0.9390  1.3634
 4211SOL    HW213318   5.797   5.883   5.568 -0.1883  0.9123  0.0886
 4212SOL     OW13319   2.247   5.431   5.170  0.2692 -0.2331 -0.8032
 4212SOL    HW113320   2.285   5.508   5.128  1.7948 -0.8788 -0.6672
 4212SOL    HW213321   2.244   5.454   5.263  2.1029 -0.8256 -0.5511
 4213SOL     OW13322   1.586   6.472   5.052 -0.0542 -0.1110  0.2218
 4213SOL    HW113323   1.669   6.507   5.085 -0.2913  2.4719 -1.5778
 4213SOL    HW213324   1.520   6.507   5.112 -0.0380 -0.0863  0.2253
 4214SOL     OW13325   0.396   1.519   3.557 -0.4126  0.1342  0.4002
 4214SOL    HW113326   0.356   1.438   3.588  0.4390 -0.3733  0.2311
 4214SOL    HW213327   0.429   1.498   3.470 -1.0346  0.9620 -0.0566
 4215SOL     OW13328   0.796   2.871   6.019  0.6879 -0.6544  0.4802
 4215SOL    HW113329   0.870   2.814   6.037  0.4890 -0.8662  0.6372
 4215SOL    HW213330   0.728   2.813   5.984  0.3254 -0.5988  1.0646
 4216SOL     OW13331   5.983   1.852   2.560  0.1485 -0.1756  0.1730
 4216SOL    HW113332   6.040   1.928   2.575 -1.0783  1.2729 -1.9648
 4216SOL    HW213333   5.895   1.889   2.552 -0.6008 -1.9340 -0.1478
 4217SOL     OW13334   2.238   5.974   5.527  0.2001  0.0404  0.4328
 4217SOL    HW113335   2.261   5.894   5.575  4.7001 -0.2266 -1.6306
 4217SOL    HW213336   2.212   5.943   5.440 -0.4223  0.7626  0.3545
 4218SOL     OW13337   3.991   3.292   3.127 -0.0264  0.4067  0.3721
 4218SOL    HW113338   3.994   3.226   3.196 -2.4078  0.7623  0.8923
 4218SOL    HW213339   3.947   3.249   3.054  1.9496  0.2201 -0.7828
 4219SOL     OW13340   0.094   6.471   1.985  0.1905  0.2841  0.0337
 4219SOL    HW113341   0.063   6.380   1.991 -0.1859  0.4631  1.0364
 4219SOL    HW213342   0.188   6.463   1.974 -0.1331 -0.2791 -3.1808
 4220SOL     OW13343   5.420   2.627   4.985  0.6070 -0.6466 -0.4341
 4220SOL    HW113344   5.446   2.689   5.054 -0.6138  0.2220 -0.7130
 4220SOL    HW213345   5.408   2.682   4.907 -2.2680 -0.9065 -0.2583
 4221SOL     OW13346   3.926   3.341   6.382 -0.4296 -0.0562  0.5644
 4221SOL    HW113347   3.841   3.320   6.420 -0.0015 -0.6056  1.2490
 4221SOL    HW213348   3.958   3.414   6.436  0.2313 -0.9141  1.3670
 4222SOL     OW13349   6.254   1.344   1.881  0.2808 -0.5626  0.4656
 4222SOL    HW113350   6.159   1.333   1.876  0.3382 -1.2346  0.7560
 4222SOL    HW213351   6.289   1.276   1.823  0.5695  0.0479 -0.0815
 4223SOL     OW13352   1.995   5.558   3.509 -0.3852 -0.0809 -0.5763
 4223SOL    HW113353   2.050   5.620   3.556 -2.0625  1.6891 -0.7989
 4223SOL    HW213354   2.012   5.575   3.417  1.2169 -1.9762 -0.6922
 4224SOL     OW13355   6.159   2.082   2.534 -0.3705  0.7000  0.4999
 4224SOL    HW113356   6.144   2.159   2.479 -0.8284  1.5849  1.8278
 4224SOL    HW213357   6.182   2.117   2.620 -0.7984 -0.6384  1.1973
 4225SOL     OW13358   5.889   3.004   1.700 -0.0112  0.0895 -0.4034
 4225SOL    HW113359   5.799   2.997   1.731  0.6832 -1.5507  1.4641
 4225SOL    HW213360   5.890   2.951   1.620 -0.8858  0.9389 -1.0114
 4226SOL     OW13361   4.859   0.041   4.541  0.2014 -0.0467  0.0578
 4226SOL    HW113362   4.916  -0.035   4.523  1.2458  0.6143  0.4645
 4226SOL    HW213363   4.847   0.039   4.636  1.7015  1.2867  0.3038
 4227SOL     OW13364   5.566   6.447   5.873 -0.6462 -0.1709  0.1523
 4227SOL    HW113365   5.556   6.533   5.914 -2.1720 -1.4195  2.6576
 4227SOL    HW213366   5.510   6.450   5.796 -1.4217  0.7699  0.7308
 4228SOL     OW13367   0.674   2.933   3.037 -0.5664  0.5900 -0.0427
 4228SOL    HW113368   0.754   2.985   3.030  1.0571 -1.7591  0.1024
 4228SOL    HW213369   0.636   2.959   3.121 -0.8137  2.8119 -0.7850
 4229SOL     OW13370   6.436   3.786   6.273  0.3569  0.1289  0.2480
 4229SOL    HW113371   6.362   3.774   6.333  0.4165 -0.1212  0.2689
 4229SOL    HW213372   6.431   3.713   6.213  2.9161 -2.2587  2.6503
 4230SOL     OW13373   6.132   4.320   4.712 -0.3892 -0.2094  0.4258
 4230SOL    HW113374   6.124   4.394   4.653 -0.5475 -0.8558 -0.3783
 4230SOL    HW213375   6.179   4.355   4.788  0.1518  0.5423 -0.2342
 4231SOL     OW13376   5.729   5.579   5.306  0.0334  0.1623 -0.2551
 4231SOL    HW113377   5.656   5.556   5.249 -1.1644  0.3412  1.1271
 4231SOL    HW213378   5.792   5.507   5.295 -0.0279  0.3453 -1.9679
 4232SOL     OW13379   2.871   0.852   0.762 -0.0464  0.3642 -0.0746
 4232SOL    HW113380   2.934   0.878   0.696  0.6658  0.4634  0.6323
 4232SOL    HW213381   2.801   0.808   0.713  1.5348 -1.6122 -0.6988
 4233SOL     OW13382   0.525   0.278   2.972  0.2815 -0.0236 -0.4458
 4233SOL    HW113383   0.613   0.292   2.937  0.9358 -0.6638  0.8854
 4233SOL    HW213384   0.518   0.183   2.983 -0.4878  0.0400 -0.3102
 4234SOL     OW13385   4.140   5.406   3.402 -0.8134 -0.1482  0.0594
 4234SOL    HW113386   4.210   5.362   3.354 -0.1825  0.4947  0.3785
 4234SOL    HW213387   4.080   5.437   3.334 -0.2434  0.2252 -0.2723
 4235SOL     OW13388   2.268   5.855   1.614  0.1822  0.1385 -0.1946
 4235SOL    HW113389   2.203   5.848   1.544 -2.2182  0.5216  1.8546
 4235SOL    HW213390   2.275   5.766   1.650  0.7075  0.1226 -0.3337
 4236SOL     OW13391   0.823   4.105   0.870  0.4205 -0.3729 -0.2893
 4236SOL    HW113392   0.815   4.154   0.952  1.2471 -1.2034  0.3046
 4236SOL    HW213393   0.732   4.086   0.845  0.1035  0.9987 -0.2717
 4237SOL     OW13394   4.843   2.794   5.081  0.2784  0.5777  0.2668
 4237SOL    HW113395   4.934   2.822   5.071 -0.7142  3.3804 -2.2474
 4237SOL    HW213396   4.816   2.765   4.994 -1.3678  0.3161  0.8161
 4238SOL     OW13397   0.990   1.496   2.395  0.3146  0.3783  0.4285
 4238SOL    HW113398   1.070   1.543   2.374  0.3721 -0.6639 -1.9877
 4238SOL    HW213399   0.970   1.521   2.485  2.5541  1.7624  0.6005
 4239SOL     OW13400   5.334   4.557   2.547  0.5428  0.4193  0.0792
 4239SOL    HW113401   5.259   4.616   2.536  1.3441  1.4660  0.0443
 4239SOL    HW213402   5.296   4.470   2.550 -0.6640  0.9221 -0.0940
 4240SOL     OW13403   1.730   5.578   5.525  0.0769 -0.0471 -0.3627
 4240SOL    HW113404   1.686   5.642   5.581  0.9737 -0.2211  0.5780
 4240SOL    HW213405   1.817   5.568   5.564  0.2981 -1.0906 -1.0793
 4241SOL     OW13406   5.685   5.782   1.276  0.3684  0.1637 -0.4610
 4241SOL    HW113407   5.698   5.867   1.234  1.8124 -0.0544 -0.4795
 4241SOL    HW213408   5.652   5.726   1.206 -0.8699  0.7570 -0.3839
 4242SOL     OW13409   1.464   3.517   0.699  0.3360  0.3005 -0.5465
 4242SOL    HW113410   1.426   3.435   0.669  0.1914  0.0000  0.4373
 4242SOL    HW213411   1.508   3.494   0.781 -0.4546  1.3787  0.1964
 4243SOL     OW13412   2.097   1.004   3.218 -0.1504  0.2254 -0.4820
 4243SOL    HW113413   2.125   1.020   3.308  1.0287 -1.7700 -0.4144
 4243SOL    HW213414   2.100   0.908   3.209 -4.1975 -0.0043 -1.4340
 4244SOL     OW13415   0.023   4.786   5.438  0.0534 -0.0729  0.1882
 4244SOL    HW113416   0.025   4.875   5.474  2.4745  0.2136 -0.4544
 4244SOL    HW213417  -0.021   4.795   5.354 -1.6814  0.0722  1.0730
 4245SOL     OW13418   5.659   4.777   1.433  0.1708  0.0483 -0.3139
 4245SOL    HW113419   5.564   4.772   1.431  0.0159  1.5636  1.2569
 4245SOL    HW213420   5.687   4.697   1.476 -0.2446 -1.1404 -2.1288
 4246SOL     OW13421   4.293   1.388   0.602  0.4021  0.1297 -0.0844
 4246SOL    HW113422   4.218   1.442   0.626 -0.5707 -0.6021 -1.3590
 4246SOL    HW213423   4.365   1.422   0.656 -0.8359  0.8084  1.2240
 4247SOL     OW13424   5.103   4.419   5.544 -0.5630  0.2886 -0.4845
 4247SOL    HW113425   5.140   4.507   5.541 -0.0531  0.1219  0.4815
 4247SOL    HW213426   5.170   4.364   5.505  0.3499 -0.0400  1.4373
 4248SOL     OW13427   4.680   2.482   1.409 -0.3596  0.5870 -0.5058
 4248SOL    HW113428   4.628   2.460   1.487 -0.8982  1.0313 -0.7344
 4248SOL    HW213429   4.753   2.420   1.411  1.1933  2.3164  1.8915
 4249SOL     OW13430   0.515   3.736   5.902 -0.4819 -0.2531  0.6115
 4249SOL    HW113431   0.442   3.761   5.958  0.6751 -0.0330  2.0945
 4249SOL    HW213432   0.517   3.640   5.908  0.8377 -0.1722  2.6652
 4250SOL     OW13433   4.611   6.326   4.131 -0.2485  0.0878 -0.4899
 4250SOL    HW113434   4.522   6.352   4.110 -0.3939 -0.1333 -0.1495
 4250SOL    HW213435   4.621   6.346   4.224 -0.3032 -0.9145 -0.2629
 4251SOL     OW13436   2.995   1.068   2.499  0.0876 -0.1863 -0.0178
 4251SOL    HW113437   2.998   0.974   2.514  0.8593 -0.2158 -0.3375
 4251SOL    HW213438   3.073   1.087   2.447 -0.1807  0.5940 -0.1480
 4252SOL     OW13439   2.688   5.076   1.032  0.1603  0.1147  0.5762
 4252SOL    HW113440   2.755   5.019   1.069  0.7470  1.1629  1.1861
 4252SOL    HW213441   2.736   5.151   0.997 -0.6089  0.4112  0.1175
 4253SOL     OW13442   3.475   5.985   0.546  0.1949  0.3107  0.2830
 4253SOL    HW113443   3.549   6.046   0.548 -0.1808  0.7756  0.0549
 4253SOL    HW213444   3.501   5.919   0.480  1.4619 -0.9103  1.9014
 4254SOL     OW13445   5.611   2.573   5.674 -0.0766  0.0310  0.4615
 4254SOL    HW113446   5.525   2.609   5.695  1.0368  2.1757  1.6497
 4254SOL    HW213447   5.660   2.575   5.756  2.1462  2.0458 -0.7535
 4255SOL     OW13448   0.567   4.764   3.780  0.1338  0.1544  0.4494
 4255SOL    HW113449   0.520   4.752   3.862  0.9273 -2.6235  0.6242
 4255SOL    HW213450   0.635   4.696   3.782  0.5738  0.4190 -2.2132
 4256SOL     OW13451   5.846   4.004   0.291 -0.0610  0.3116  0.9990
 4256SOL    HW113452   5.870   4.097   0.286  0.7339  0.1019  0.8891
 4256SOL    HW213453   5.750   4.005   0.294 -0.0496  1.1709  1.6422
 4257SOL     OW13454   4.266   1.372   2.336 -0.1308 -0.2035 -0.2194
 4257SOL    HW113455   4.293   1.283   2.314  0.1082  0.2189 -1.7421
 4257SOL    HW213456   4.179   1.363   2.374 -0.7953 -0.9429 -1.8746
 4258SOL     OW13457   3.637   5.862   2.124  0.0602 -0.0864 -0.0348
 4258SOL    HW113458   3.701   5.824   2.064  0.4981  0.0170  0.3649
 4258SOL    HW213459   3.688   5.888   2.201 -0.8102 -2.2608  1.3661
 4259SOL     OW13460   2.055   4.201   5.430 -0.3227  0.1214  0.6506
 4259SOL    HW113461   2.113   4.177   5.358  0.1202 -0.5281  1.2029
 4259SOL    HW213462   2.026   4.117   5.466 -1.6345  0.4338  0.3700
 4260SOL     OW13463   1.509   4.352   4.159 -0.3312  0.7032 -0.1513
 4260SOL    HW113464   1.486   4.286   4.224 -1.9633  1.1546 -0.2265
 4260SOL    HW213465   1.477   4.317   4.076  0.5885  0.7144 -0.5273
 4261SOL     OW13466   1.221   4.777   2.660 -0.1115  0.1337 -0.1035
 4261SOL    HW113467   1.174   4.856   2.687  0.9271  0.6457  0.2325
 4261SOL    HW213468   1.179   4.751   2.578  0.2113  1.6392 -0.7809
 4262SOL     OW13469   2.944   0.856   1.017  0.1304 -0.4197 -0.6457
 4262SOL    HW113470   2.928   0.846   0.923 -0.7151 -1.0137 -0.4479
 4262SOL    HW213471   2.932   0.768   1.052 -0.3635 -0.0429  0.1372
 4263SOL     OW13472   3.510   3.574   4.385 -0.0487  0.7306  0.4364
 4263SOL    HW113473   3.548   3.613   4.464  0.3579  0.1102  0.5526
 4263SOL    HW213474   3.557   3.616   4.313  0.2007  0.6564  0.5536
 4264SOL     OW13475   0.794   4.815   1.267 -0.4127 -0.3982 -0.0180
 4264SOL    HW113476   0.819   4.886   1.326  0.6099 -1.6135  1.0547
 4264SOL    HW213477   0.706   4.789   1.295 -0.2200 -0.4902  0.4952
 4265SOL     OW13478   0.137   4.793   2.029 -0.5901  0.2301 -0.3472
 4265SOL    HW113479   0.227   4.796   2.061 -0.4200  0.0921 -0.8047
 4265SOL    HW213480   0.097   4.873   2.061  0.2454  1.2421 -1.7305
 4266SOL     OW13481   6.091   5.445   1.250 -0.0712 -0.4897  0.0661
 4266SOL    HW113482   6.135   5.432   1.334  1.9007  1.3914 -0.5682
 4266SOL    HW213483   6.011   5.493   1.272  0.9751  0.9917  0.8499
 4267SOL     OW13484   1.978   2.729   3.764 -0.2501 -0.2656  1.0906
 4267SOL    HW113485   2.007   2.816   3.789  0.8752 -0.6195  1.0749
 4267SOL    HW213486   1.935   2.741   3.679  0.0384  0.2483  1.0145
 4268SOL     OW13487   3.960   5.523   5.211  0.7297 -0.1486 -0.1865
 4268SOL    HW113488   4.039   5.493   5.166  0.6509 -0.2911 -0.2304
 4268SOL    HW213489   3.906   5.562   5.142  1.4759  1.4609  0.1021
 4269SOL     OW13490   4.443   3.859   0.256  0.0378 -0.4308 -0.0038
 4269SOL    HW113491   4.451   3.953   0.241 -0.6174 -0.4666 -0.6651
 4269SOL    HW213492   4.357   3.849   0.297 -0.3228 -0.8167 -0.8207
 4270SOL     OW13493   1.497   1.627   5.915 -0.2487 -0.0146 -0.4282
 4270SOL    HW113494   1.495   1.720   5.892  0.7210 -0.2145 -1.4076
 4270SOL    HW213495   1.405   1.605   5.931 -0.4324  1.2462  0.4717
 4271SOL     OW13496   3.110   1.561   5.716  0.1969  0.1792 -0.6267
 4271SOL    HW113497   3.075   1.482   5.759  0.8206  0.7708  1.0389
 4271SOL    HW213498   3.178   1.528   5.657  0.0564 -0.5761 -0.3786
 4272SOL     OW13499   3.848   0.929   4.217  0.3380  0.6965  0.0727
 4272SOL    HW113500   3.783   0.951   4.151  0.9639  0.5576 -0.6091
 4272SOL    HW213501   3.928   0.910   4.167  0.1918 -1.9423  0.6640
 4273SOL     OW13502   1.591   6.207   5.575  0.5155 -0.5610 -0.7259
 4273SOL    HW113503   1.510   6.178   5.533  0.1212 -0.3690 -0.1223
 4273SOL    HW213504   1.625   6.129   5.618 -0.0455 -0.3752  0.1009
 4274SOL     OW13505   3.636   4.444   2.010 -0.7506 -0.3268 -0.3178
 4274SOL    HW113506   3.605   4.354   2.006  0.5527 -0.7472 -1.6748
 4274SOL    HW213507   3.701   4.451   1.940 -0.4436  1.5246  0.0880
 4275SOL     OW13508   5.699   1.969   1.331 -0.1653 -0.0675  0.3121
 4275SOL    HW113509   5.733   1.924   1.253  0.4677  0.8117  0.0586
 4275SOL    HW213510   5.670   1.899   1.389 -0.5355 -0.7400 -0.6696
 4276SOL     OW13511   4.438   5.677   0.513 -0.4379 -0.3960  0.7922
 4276SOL    HW113512   4.398   5.670   0.426 -2.1002 -0.4818  1.5290
 4276SOL    HW213513   4.415   5.595   0.557 -0.1524 -0.0917  1.5221
 4277SOL     OW13514   4.741   0.991   2.994 -0.3200  0.0274  0.2029
 4277SOL    HW113515   4.668   1.021   2.939 -0.9266  2.4588  2.1419
 4277SOL    HW213516   4.699   0.939   3.063  0.0120 -0.0868  0.3203
 4278SOL     OW13517   5.199   3.474   6.123 -0.3811  0.0618 -0.5262
 4278SOL    HW113518   5.139   3.419   6.173 -0.9657 -0.1764 -1.4780
 4278SOL    HW213519   5.144   3.542   6.085  0.4019  1.6954  1.0782
 4279SOL     OW13520   5.602   1.178   2.606 -0.2809 -0.1759 -0.4524
 4279SOL    HW113521   5.587   1.199   2.514  1.9866  0.8461 -0.6584
 4279SOL    HW213522   5.600   1.262   2.651  2.0682 -0.2068 -0.1730
 4280SOL     OW13523   6.452   0.782   6.335  0.2749 -0.1182 -0.4776
 4280SOL    HW113524   6.459   0.864   6.286  1.7348 -0.7151 -1.3163
 4280SOL    HW213525   6.529   0.781   6.392 -0.8172  0.0402  1.0720
 4281SOL     OW13526   0.885   4.976   1.467 -0.0721 -0.3613 -0.3132
 4281SOL    HW113527   0.977   4.950   1.469 -0.5899 -2.3298  0.5733
 4281SOL    HW213528   0.867   5.009   1.555 -0.4868 -1.1148 -0.1053
 4282SOL     OW13529   5.233   5.160   2.611  0.3572 -0.2928 -0.0132
 4282SOL    HW113530   5.311   5.106   2.620 -0.0916 -0.8646  0.5025
 4282SOL    HW213531   5.250   5.236   2.666  0.7422 -0.1854 -0.2739
 4283SOL     OW13532   1.083   3.604   0.860 -0.4740  0.2071  0.2659
 4283SOL    HW113533   1.064   3.527   0.807 -1.8222  0.2583  0.6322
 4283SOL    HW213534   0.999   3.649   0.866  0.0274  1.0454  1.0975
 4284SOL     OW13535   0.192   3.278   1.941  0.0987 -0.6011  0.0704
 4284SOL    HW113536   0.097   3.261   1.943  0.3799 -2.4819 -0.5214
 4284SOL    HW213537   0.210   3.301   1.850  0.1526  0.2346  0.2872
 4285SOL     OW13538   6.125   6.466   0.371 -0.1963 -0.2991 -0.0864
 4285SOL    HW113539   6.073   6.449   0.450 -1.3188  3.7439  0.2463
 4285SOL    HW213540   6.142   6.560   0.372  2.4692 -0.5383 -3.1210
 4286SOL     OW13541   3.145   3.464   1.307  0.2437 -0.2089 -0.0273
 4286SOL    HW113542   3.161   3.516   1.386 -1.2554 -0.5583  0.5495
 4286SOL    HW213543   3.102   3.385   1.339 -1.5049  0.1858 -1.2724
 4287SOL     OW13544   0.033   2.667   4.005 -0.5285  0.2887 -0.1417
 4287SOL    HW113545   0.126   2.682   3.991 -0.5284 -0.7205 -1.5374
 4287SOL    HW213546   0.006   2.735   4.066  0.5260  2.4074 -1.8880
 4288SOL     OW13547   4.247   2.803   1.027 -0.2584  0.0709  0.5028
 4288SOL    HW113548   4.291   2.877   1.069 -0.2721  0.0676  0.5222
 4288SOL    HW213549   4.269   2.727   1.081 -2.1804  0.4141  1.8524
 4289SOL     OW13550   0.909   6.481   3.818 -0.0975  0.1370 -0.1917
 4289SOL    HW113551   0.839   6.416   3.810  0.3744 -0.2069 -1.8265
 4289SOL    HW213552   0.954   6.458   3.900  0.1731 -1.7181 -0.8164
 4290SOL     OW13553   3.968   0.735   6.381  0.4472  0.4892 -0.0683
 4290SOL    HW113554   4.021   0.727   6.460  0.6090  0.4409 -0.1810
 4290SOL    HW213555   3.941   0.645   6.361 -1.3096  0.7221  1.0938
 4291SOL     OW13556   4.673   4.848   2.191  0.3928 -0.3534 -0.4359
 4291SOL    HW113557   4.699   4.796   2.114  2.0672 -0.0630 -0.0953
 4291SOL    HW213558   4.691   4.791   2.266 -1.9544 -0.9312 -0.2362
 4292SOL     OW13559   3.800   1.492   5.450  0.4657  0.4435  0.2713
 4292SOL    HW113560   3.734   1.442   5.402  0.3244 -2.1544  2.9163
 4292SOL    HW213561   3.749   1.560   5.496 -0.0003  0.1321  0.2216
 4293SOL     OW13562   1.902   4.739   2.220  0.6511  0.0721 -0.0337
 4293SOL    HW113563   1.874   4.805   2.284  0.8941  0.5441 -0.4075
 4293SOL    HW213564   1.898   4.785   2.136  1.3746 -0.2262 -0.2316
 4294SOL     OW13565   3.296   0.877   1.379 -0.4369 -0.3335 -0.3677
 4294SOL    HW113566   3.231   0.843   1.440 -0.7436  2.9487  1.2891
 4294SOL    HW213567   3.245   0.915   1.308 -0.1749 -0.6357 -0.7271
 4295SOL     OW13568   0.814   3.159   2.606 -0.1766 -0.1931 -0.4062
 4295SOL    HW113569   0.790   3.184   2.696  1.3259 -1.4330  0.3843
 4295SOL    HW213570   0.757   3.085   2.587 -2.1525  1.4838 -1.4266
 4296SOL     OW13571   0.254   6.100   4.332 -0.4060  0.0711 -0.5355
 4296SOL    HW113572   0.308   6.134   4.404 -1.4957 -1.2968  0.9882
 4296SOL    HW213573   0.288   6.012   4.316 -2.2331 -0.9060  0.6069
 4297SOL     OW13574   2.213   3.620   3.604  0.0158 -0.7187 -0.1511
 4297SOL    HW113575   2.259   3.563   3.666  0.6966 -1.2125 -1.0928
 4297SOL    HW213576   2.127   3.579   3.594 -0.1710 -0.5307  0.6038
 4298SOL     OW13577   2.553   3.490   1.230 -0.2493  0.3748  0.1041
 4298SOL    HW113578   2.496   3.567   1.241  0.3860  0.6756  1.5451
 4298SOL    HW213579   2.549   3.471   1.137 -2.0096  0.9316  0.0154
 4299SOL     OW13580   1.267   1.557   3.540  0.5970 -0.1838  0.3486
 4299SOL    HW113581   1.314   1.572   3.622  1.3373  1.1950 -0.2963
 4299SOL    HW213582   1.198   1.623   3.539  0.7192 -0.0560 -0.2248
 4300SOL     OW13583   5.365   4.349   5.428  0.0246  0.2346  0.1351
 4300SOL    HW113584   5.332   4.390   5.348  1.3019  1.4292  0.1806
 4300SOL    HW213585   5.424   4.281   5.397  0.2122  0.4317  0.0586
 4301SOL     OW13586   3.891   6.431   1.169  0.0809 -0.0610  0.0931
 4301SOL    HW113587   3.825   6.369   1.138  1.8373 -1.4458 -1.1075
 4301SOL    HW213588   3.901   6.492   1.096  0.9512 -0.5858 -0.2427
 4302SOL     OW13589   1.047   4.578   4.245 -0.5240  0.3239 -0.4060
 4302SOL    HW113590   1.063   4.605   4.335  2.9288 -0.0384 -0.7748
 4302SOL    HW213591   0.972   4.518   4.250 -1.5731  1.7192  1.8867
 4303SOL     OW13592   1.209   2.405   4.150 -0.2949  0.2667 -1.1238
 4303SOL    HW113593   1.150   2.337   4.117 -2.0044  1.2122 -0.2053
 4303SOL    HW213594   1.191   2.481   4.095  1.3660  0.1174 -1.9345
 4304SOL     OW13595   6.005   1.271   6.347  0.4882  0.5751 -0.4502
 4304SOL    HW113596   6.022   1.236   6.260  1.5752  0.6974 -0.3112
 4304SOL    HW213597   5.980   1.362   6.331 -0.4802  0.2788 -0.6928
 4305SOL     OW13598   4.660   5.992   2.159  0.0106 -0.5001 -0.2309
 4305SOL    HW113599   4.731   6.052   2.181  1.6523 -1.2292 -3.0099
 4305SOL    HW213600   4.676   5.968   2.068 -4.4598  0.1574 -1.4756
 4306SOL     OW13601   3.270   1.259   4.786  0.2533 -0.7058  0.1478
 4306SOL    HW113602   3.363   1.258   4.767  0.5009 -1.4705  1.3332
 4306SOL    HW213603   3.262   1.316   4.863 -0.3669 -0.0057 -0.4150
 4307SOL     OW13604   1.647   0.111   5.882  0.0909  0.2596 -0.0818
 4307SOL    HW113605   1.680   0.176   5.819  0.0093 -0.0809 -0.4836
 4307SOL    HW213606   1.643   0.030   5.832 -1.3547  0.2814 -0.0480
 4308SOL     OW13607   3.147   3.965   4.796 -0.2347  0.2499 -0.2302
 4308SOL    HW113608   3.172   3.887   4.846 -1.2630 -1.4476 -2.2512
 4308SOL    HW213609   3.228   3.992   4.753  0.0539  0.1317  0.2273
 4309SOL     OW13610   6.263   5.814   5.284 -0.1159 -0.2926 -0.1929
 4309SOL    HW113611   6.191   5.852   5.334  0.1613 -0.1759  0.1276
 4309SOL    HW213612   6.319   5.889   5.263 -1.4151  0.0531 -2.7476
 4310SOL     OW13613   1.176   3.516   5.586 -0.5306  0.7494 -0.5534
 4310SOL    HW113614   1.219   3.528   5.501 -3.2587 -0.7201 -2.2795
 4310SOL    HW213615   1.099   3.462   5.567 -1.3898  0.5254  2.8546
 4311SOL     OW13616   5.892   2.195   0.327  0.1160  0.4296  0.1667
 4311SOL    HW113617   5.971   2.235   0.364 -0.7521  2.5993 -0.2289
 4311SOL    HW213618   5.854   2.262   0.271 -0.6739 -1.4388 -1.7088
 4312SOL     OW13619   5.077   1.351   6.051 -0.5707  0.0621  0.1681
 4312SOL    HW113620   4.994   1.307   6.037 -0.6848 -0.2042  1.5046
 4312SOL    HW213621   5.102   1.326   6.140  0.8859  0.2258 -0.1732
 4313SOL     OW13622   4.969   0.697   3.451  0.4122 -0.3760  0.0866
 4313SOL    HW113623   4.949   0.605   3.470  0.8200 -0.3319  0.7869
 4313SOL    HW213624   5.064   0.699   3.442  0.4461  0.0498  0.5196
 4314SOL     OW13625   5.852   1.627   2.500 -0.3591 -0.0004  0.4630
 4314SOL    HW113626   5.901   1.569   2.558 -1.1648 -2.1883 -0.9465
 4314SOL    HW213627   5.906   1.706   2.495  1.7204 -1.2920  1.0242
 4315SOL     OW13628   3.835   0.223   5.464  0.0585  0.3389  0.0634
 4315SOL    HW113629   3.876   0.146   5.423  0.9679  0.2911  1.0043
 4315SOL    HW213630   3.898   0.250   5.531 -0.8328  1.1401  0.6012
 4316SOL     OW13631   6.098   5.958   2.044  0.2572  0.3011  0.3697
 4316SOL    HW113632   6.090   5.886   1.981 -1.1507  1.4198 -0.7878
 4316SOL    HW213633   6.122   5.914   2.127  1.7647 -1.2415 -0.7887
 4317SOL     OW13634   3.041   0.425   2.053 -0.0538  0.2599  0.4665
 4317SOL    HW113635   3.105   0.374   2.103  0.4086  0.7163  0.3402
 4317SOL    HW213636   3.004   0.486   2.117 -1.5505 -1.0652  0.9453
 4318SOL     OW13637   4.880   2.212   3.615  0.1694 -0.3483 -0.2930
 4318SOL    HW113638   4.884   2.150   3.688  3.1798 -0.4663 -0.4479
 4318SOL    HW213639   4.805   2.268   3.635  0.7539 -0.4907  2.7836
 4319SOL     OW13640   5.526   6.389   1.778  0.2219  0.1699  0.0675
 4319SOL    HW113641   5.511   6.482   1.759  3.6545  1.0733  0.9144
 4319SOL    HW213642   5.582   6.359   1.706  0.3403 -0.8138  0.5533
 4320SOL     OW13643   0.311   5.842   5.054 -0.7607  0.0651 -0.2594
 4320SOL    HW113644   0.265   5.916   5.093  3.2557  1.4213  2.5338
 4320SOL    HW213645   0.312   5.775   5.122  0.1224 -0.4731 -0.7744
 4321SOL     OW13646   0.036   5.154   4.280 -0.1435 -0.4813  0.1549
 4321SOL    HW113647   0.046   5.246   4.255  0.3368 -0.9807 -1.6200
 4321SOL    HW213648   0.002   5.157   4.370 -0.6831  1.4293 -0.0693
 4322SOL     OW13649   4.854   4.127   3.329 -0.9304  0.1619  0.3984
 4322SOL    HW113650   4.873   4.153   3.239 -1.1005 -0.7590  0.0810
 4322SOL    HW213651   4.794   4.194   3.362 -1.4259  0.1224 -0.4142
 4323SOL     OW13652   1.667   1.543   4.056 -0.0986  0.1366 -0.7025
 4323SOL    HW113653   1.703   1.615   4.107  0.5383  0.3141 -1.3785
 4323SOL    HW213654   1.724   1.538   3.979  0.5895 -1.8273 -0.1212
 4324SOL     OW13655   2.127   0.298   5.521  0.1766  0.3423  0.0197
 4324SOL    HW113656   2.045   0.263   5.556  0.6266 -0.9238 -0.1597
 4324SOL    HW213657   2.191   0.285   5.591 -0.0734  2.8018  0.8023
 4325SOL     OW13658   2.830   5.640   2.472  0.1063 -0.0600 -1.0254
 4325SOL    HW113659   2.778   5.571   2.432  0.5680 -0.8092 -0.3736
 4325SOL    HW213660   2.832   5.617   2.565 -2.2523  2.4740 -0.2185
 4326SOL     OW13661   3.980   3.729   3.402  0.6679 -0.4252 -0.7187
 4326SOL    HW113662   3.893   3.769   3.393  0.8155 -0.0482 -0.4729
 4326SOL    HW213663   3.975   3.650   3.348 -0.3167 -1.1941  0.4355
 4327SOL     OW13664   2.826   1.871   2.995 -0.1935 -0.1530 -0.3304
 4327SOL    HW113665   2.808   1.871   2.901  2.1215 -0.9540 -0.8424
 4327SOL    HW213666   2.920   1.890   3.001 -0.4035  0.4178  1.8635
 4328SOL     OW13667   0.669   4.298   1.470 -0.3062  0.0871 -0.0658
 4328SOL    HW113668   0.632   4.383   1.446  3.1145  2.4988  2.2326
 4328SOL    HW213669   0.760   4.303   1.439 -0.1205 -2.9909 -0.2566
 4329SOL     OW13670   2.972   1.416   3.533  0.3455 -0.1858  0.2120
 4329SOL    HW113671   3.045   1.355   3.525  0.5929  0.2009 -0.6396
 4329SOL    HW213672   2.996   1.473   3.606 -1.1025 -2.6870  2.8389
 4330SOL     OW13673   3.059   1.606   1.507  0.4329 -0.1385 -0.1295
 4330SOL    HW113674   3.081   1.559   1.426 -0.9076 -1.9305  0.4666
 4330SOL    HW213675   3.143   1.628   1.546  1.1069 -0.3919 -1.3772
 4331SOL     OW13676   2.902   0.460   0.352 -0.1679  0.1726  0.1793
 4331SOL    HW113677   2.996   0.458   0.369 -0.0058 -0.3752 -0.6970
 4331SOL    HW213678   2.877   0.368   0.344 -0.3466  0.3330 -1.6945
 4332SOL     OW13679   5.208   0.560   1.610 -0.3382 -0.7632  0.3672
 4332SOL    HW113680   5.253   0.618   1.548 -0.0261 -0.3982  0.9288
 4332SOL    HW213681   5.262   0.563   1.689 -0.5654 -1.4719  0.5547
 4333SOL     OW13682   2.448   3.872   5.193  0.1437 -0.4438  0.0393
 4333SOL    HW113683   2.436   3.950   5.139 -0.5356 -0.0068  0.8046
 4333SOL    HW213684   2.367   3.865   5.244  0.5071 -1.2175  0.5310
 4334SOL     OW13685   2.409   1.396   1.905  0.0410  0.4440  0.5037
 4334SOL    HW113686   2.452   1.392   1.990 -0.0261 -0.6106  0.5052
 4334SOL    HW213687   2.479   1.378   1.842 -0.2757 -0.7232  0.4706
 4335SOL     OW13688   6.308   0.159   5.273 -0.1678  0.1102  0.6772
 4335SOL    HW113689   6.287   0.229   5.335 -2.0090  0.3131 -0.1065
 4335SOL    HW213690   6.280   0.193   5.188  0.2951 -1.0061  0.0564
 4336SOL     OW13691   6.181   3.595   0.832 -0.4136 -0.1081  0.0708
 4336SOL    HW113692   6.153   3.533   0.898 -1.7577 -0.0311 -0.3912
 4336SOL    HW213693   6.111   3.661   0.829  1.4164  2.0633  1.2801
 4337SOL     OW13694   3.338   6.478   4.901 -0.0473  0.2129  0.3711
 4337SOL    HW113695   3.309   6.567   4.921  0.1496  0.2587  0.4590
 4337SOL    HW213696   3.429   6.488   4.871 -0.4238  0.1746 -0.8339
 4338SOL     OW13697   0.252   2.747   5.486  0.7292 -0.1565  0.2924
 4338SOL    HW113698   0.341   2.768   5.516  0.3298  0.8937  0.7771
 4338SOL    HW213699   0.211   2.704   5.561  0.3670  0.6749  0.5762
 4339SOL     OW13700   3.751   0.639   1.250  0.1907  0.2083  0.7739
 4339SOL    HW113701   3.662   0.671   1.233  0.2044 -0.4305 -0.5867
 4339SOL    HW213702   3.790   0.707   1.306 -1.0937  0.5667  1.2661
 4340SOL     OW13703   3.293   0.117   5.524  0.3302 -0.7579  0.6040
 4340SOL    HW113704   3.284   0.095   5.431  1.1632 -0.5241  0.4537
 4340SOL    HW213705   3.301   0.033   5.568 -0.3049 -0.8792  0.4975
 4341SOL     OW13706   4.232   1.386   0.324 -0.0008  0.2848 -0.0672
 4341SOL    HW113707   4.321   1.392   0.289  0.0764  0.0144  0.0756
 4341SOL    HW213708   4.242   1.401   0.418 -0.1517  0.6022 -0.1038
 4342SOL     OW13709   1.132   0.811   5.775 -0.3179 -0.1621  0.1577
 4342SOL    HW113710   1.098   0.884   5.723  0.4185  0.9536  1.2138
 4342SOL    HW213711   1.066   0.742   5.765 -2.0051  1.3137  0.6831
 4343SOL     OW13712   5.872   5.485   0.669  0.2445  0.0010  0.2232
 4343SOL    HW113713   5.883   5.457   0.578  0.2619 -1.1730  0.5790
 4343SOL    HW213714   5.959   5.474   0.708  0.6147  1.8866  0.0317
 4344SOL     OW13715   5.715   3.069   0.107 -0.1809  0.2955  0.3316
 4344SOL    HW113716   5.693   3.077   0.200 -0.5066  0.3508  0.2515
 4344SOL    HW213717   5.667   3.140   0.064 -0.3276  0.0497  0.0770
 4345SOL     OW13718   3.108   0.396   2.332 -0.0509  0.2017 -0.0989
 4345SOL    HW113719   3.033   0.362   2.381  0.1156 -1.5117 -0.9383
 4345SOL    HW213720   3.082   0.484   2.306 -0.9695  0.3667  1.2702
 4346SOL     OW13721   5.391   4.350   1.297 -0.7071 -0.4014 -0.6287
 4346SOL    HW113722   5.453   4.408   1.252 -1.3706  1.6197  0.8963
 4346SOL    HW213723   5.412   4.360   1.390 -1.4051 -2.0188 -0.2558
 4347SOL     OW13724   4.209   6.463   1.866  0.2372 -0.0793 -0.0547
 4347SOL    HW113725   4.276   6.435   1.928  0.6031 -0.9543 -0.8196
 4347SOL    HW213726   4.234   6.552   1.842 -0.8623  0.9547  2.3104
 4348SOL     OW13727   5.920   0.666   6.116  0.1731 -0.2229 -0.3993
 4348SOL    HW113728   5.895   0.625   6.199  1.2577 -0.7975 -0.3397
 4348SOL    HW213729   5.845   0.720   6.092 -1.1088 -1.9014 -0.2633
 4349SOL     OW13730   0.141   5.846   3.787 -0.5343 -0.7982 -0.0299
 4349SOL    HW113731   0.158   5.822   3.696  1.3745 -0.3060  0.1603
 4349SOL    HW213732   0.157   5.765   3.836  1.8658 -0.2658  0.1823
 4350SOL     OW13733   4.581   4.636   0.543 -0.0364  0.5857 -0.2718
 4350SOL    HW113734   4.587   4.704   0.610 -0.6308  0.0927  0.3005
 4350SOL    HW213735   4.543   4.561   0.588  0.6695 -0.1579 -0.8774
 4351SOL     OW13736   1.721   5.012   2.659 -0.3443 -0.0485 -0.5428
 4351SOL    HW113737   1.809   5.023   2.694 -0.5281  1.9075 -0.5711
 4351SOL    HW213738   1.726   4.935   2.603  2.4634  2.2051 -3.8189
 4352SOL     OW13739   1.526   0.826   4.983  0.1556  0.0732 -0.0878
 4352SOL    HW113740   1.615   0.796   4.968  0.3841  0.7492 -0.1451
 4352SOL    HW213741   1.527   0.864   5.071 -0.1498 -0.1850  0.0297
 4353SOL     OW13742   2.260   1.339   6.311 -0.8645 -0.0894 -0.2271
 4353SOL    HW113743   2.343   1.384   6.325 -0.9076  0.0729 -0.4886
 4353SOL    HW213744   2.220   1.333   6.398  0.0627 -1.4267  0.1479
 4354SOL     OW13745   1.192   4.154   4.150 -0.2084 -0.2469 -0.0107
 4354SOL    HW113746   1.260   4.092   4.176 -0.3985 -1.1780 -1.6125
 4354SOL    HW213747   1.209   4.232   4.204  1.1140 -1.0392  0.7802
 4355SOL     OW13748   0.809   1.370   2.230  0.1380  0.4288  0.0765
 4355SOL    HW113749   0.725   1.354   2.272  0.4825  0.2909  0.7341
 4355SOL    HW213750   0.852   1.436   2.286  1.0786 -0.6010  0.6075
 4356SOL     OW13751   0.173   3.164   5.381  0.5809 -0.0637 -0.2865
 4356SOL    HW113752   0.130   3.078   5.381 -0.9030  0.6239 -1.8518
 4356SOL    HW213753   0.238   3.159   5.311  2.4099 -0.7459  1.3812
 4357SOL     OW13754   4.505   2.134   5.919  0.4756  0.1080 -0.2064
 4357SOL    HW113755   4.418   2.174   5.918  0.2254 -0.4300 -0.9262
 4357SOL    HW213756   4.561   2.200   5.879  0.2047  0.0424 -0.7014
 4358SOL     OW13757   0.684   5.073   5.314  0.8083 -0.0170  0.0637
 4358SOL    HW113758   0.647   5.027   5.390  0.2839 -0.5480 -0.5071
 4358SOL    HW213759   0.773   5.095   5.341  1.9919 -3.5029 -0.4442
 4359SOL     OW13760   5.605   4.175   5.937  0.3052  0.3313  0.1914
 4359SOL    HW113761   5.664   4.133   5.874  0.0530  2.8577 -1.9388
 4359SOL    HW213762   5.645   4.260   5.953 -1.2816  0.9587  0.9824
 4360SOL     OW13763   3.752   3.003   2.727 -0.5932 -0.0785  0.0756
 4360SOL    HW113764   3.708   2.967   2.651 -0.4945  0.2069 -0.1173
 4360SOL    HW213765   3.728   3.096   2.727  2.4049  0.8209 -1.7840
 4361SOL     OW13766   6.234   4.233   4.181  0.4544 -0.5720  0.1028
 4361SOL    HW113767   6.217   4.255   4.272  0.9828  0.8474 -0.1208
 4361SOL    HW213768   6.158   4.267   4.133 -0.0471 -1.7261  0.0475
 4362SOL     OW13769   6.195   3.755   2.203  0.4620  0.1928 -0.2712
 4362SOL    HW113770   6.137   3.723   2.272 -0.1828  1.2440 -0.3180
 4362SOL    HW213771   6.283   3.730   2.233 -0.0210 -2.3137 -0.6841
 4363SOL     OW13772   3.921   3.502   3.274  0.2082  0.0754 -0.1627
 4363SOL    HW113773   3.845   3.456   3.311 -0.7573  0.9934 -0.9305
 4363SOL    HW213774   3.960   3.439   3.214 -0.8183  0.0647 -0.8503
 4364SOL     OW13775   1.493   1.432   4.684 -0.0400  0.2007 -0.3494
 4364SOL    HW113776   1.561   1.366   4.694 -0.2405  0.1460  0.7747
 4364SOL    HW213777   1.412   1.387   4.708 -0.1609  0.8669  0.5546
 4365SOL     OW13778   1.679   6.378   3.852 -0.1105 -0.1244 -0.2455
 4365SOL    HW113779   1.584   6.387   3.845 -0.1940  2.1176  2.2029
 4365SOL    HW213780   1.713   6.416   3.771 -1.2702  0.0005 -0.6953
 4366SOL     OW13781   0.896   4.289   4.894 -0.3330  0.2019  0.0347
 4366SOL    HW113782   0.902   4.370   4.844  1.9564  0.3218  0.3643
 4366SOL    HW213783   0.828   4.305   4.958 -0.2801  1.6831 -0.2486
 4367SOL     OW13784   3.955   1.262   5.243  0.1574  0.1049 -0.0375
 4367SOL    HW113785   3.919   1.317   5.313 -1.5216  0.2014 -0.9243
 4367SOL    HW213786   4.017   1.319   5.198 -1.0129  1.0644 -0.4880
 4368SOL     OW13787   2.706   1.227   1.042  0.4488  0.1136  0.6265
 4368SOL    HW113788   2.667   1.245   0.956 -1.7349 -2.5620  0.9147
 4368SOL    HW213789   2.669   1.294   1.099 -1.5229 -0.5888  0.2637
 4369SOL     OW13790   2.700   3.077   2.117 -0.1060  0.1748 -0.1951
 4369SOL    HW113791   2.669   2.994   2.152 -0.0638  0.0165 -0.5259
 4369SOL    HW213792   2.734   3.055   2.030  1.3608  0.2504  0.3230
 4370SOL     OW13793   2.213   0.613   2.658 -0.2490  0.2660  0.8578
 4370SOL    HW113794   2.246   0.529   2.690 -1.2106 -0.3069  0.4071
 4370SOL    HW213795   2.237   0.615   2.565  0.8727  1.0694  1.1461
 4371SOL     OW13796   5.717   2.087   4.778  0.4994  0.0659 -0.2882
 4371SOL    HW113797   5.740   2.011   4.832 -0.0095 -0.8685 -1.3571
 4371SOL    HW213798   5.629   2.111   4.807  0.0869 -0.6478 -0.9002
 4372SOL     OW13799   1.526   4.988   5.649 -0.1273  0.0398  0.0828
 4372SOL    HW113800   1.515   5.048   5.574 -2.6862 -1.3214 -0.7572
 4372SOL    HW213801   1.526   5.046   5.725 -2.6846  1.2301 -0.6843
 4373SOL     OW13802   0.229   5.524   6.341 -0.0922  0.3470  0.1444
 4373SOL    HW113803   0.196   5.560   6.259  0.3879 -0.3836 -0.3830
 4373SOL    HW213804   0.306   5.578   6.362 -0.6882  1.0522  0.5531
 4374SOL     OW13805   4.940   0.232   5.388 -0.3094  0.6207  0.2237
 4374SOL    HW113806   4.966   0.176   5.315  0.1342  0.8089  0.2364
 4374SOL    HW213807   4.901   0.172   5.451  0.5111  0.2562  0.4023
 4375SOL     OW13808   1.439   3.524   5.846  0.3761 -0.2894  0.1884
 4375SOL    HW113809   1.435   3.487   5.758 -1.0855 -0.3610  0.2666
 4375SOL    HW213810   1.461   3.616   5.833 -2.6245  0.4296 -0.5089
 4376SOL     OW13811   0.852   5.595   5.501  0.4268  0.1718  0.0499
 4376SOL    HW113812   0.784   5.545   5.546  1.1414 -0.5373  0.3511
 4376SOL    HW213813   0.884   5.537   5.433  3.2788 -1.0004  2.2043
 4377SOL     OW13814   0.125   1.156   2.680 -0.3471 -0.0114 -0.1078
 4377SOL    HW113815   0.167   1.195   2.604  0.0112  0.3134  0.2499
 4377SOL    HW213816   0.197   1.142   2.742 -0.7867  0.7025  0.5824
 4378SOL     OW13817   3.606   1.423   2.175 -0.6618 -0.2187  0.7013
 4378SOL    HW113818   3.518   1.459   2.186  0.5168  3.9106 -1.3327
 4378SOL    HW213819   3.635   1.455   2.090  2.0011 -3.4929  0.1497
 4379SOL     OW13820   1.671   0.803   5.998  0.1235  0.0534 -0.1063
 4379SOL    HW113821   1.682   0.886   5.952  0.1556 -0.2271 -0.6147
 4379SOL    HW213822   1.582   0.775   5.975 -0.8716  1.1525  2.0681
 4380SOL     OW13823   2.809   3.203   6.197  0.3940  0.1333 -0.0242
 4380SOL    HW113824   2.804   3.281   6.141  1.6049  0.9750  0.9885
 4380SOL    HW213825   2.741   3.145   6.163 -0.2037  1.4189 -1.1244
 4381SOL     OW13826   3.762   5.332   4.467 -0.3049 -0.0714  0.2618
 4381SOL    HW113827   3.839   5.340   4.410 -0.8100  1.5712 -0.2258
 4381SOL    HW213828   3.720   5.251   4.440  0.7689 -0.5334 -0.0628
 4382SOL     OW13829   0.845   3.333   3.769  0.4251  0.4429 -0.5352
 4382SOL    HW113830   0.857   3.293   3.855 -1.4663  0.9823  0.0289
 4382SOL    HW213831   0.889   3.418   3.775 -1.1210  1.2088  0.5169
 4383SOL     OW13832   3.409   2.556   4.506  0.4216 -0.4641 -0.0481
 4383SOL    HW113833   3.426   2.513   4.589  1.5286 -0.5183 -0.2814
 4383SOL    HW213834   3.492   2.597   4.483  0.1550 -0.5115 -1.1603
 4384SOL     OW13835   2.114   5.986   2.752  0.4170  0.0071 -0.4509
 4384SOL    HW113836   2.143   5.977   2.662  0.6322  1.5288 -0.5718
 4384SOL    HW213837   2.049   5.917   2.764  0.5600 -0.3605 -1.6958
 4385SOL     OW13838   1.241   0.852   2.920  0.3567  0.2305  0.3820
 4385SOL    HW113839   1.288   0.921   2.874 -2.0843  1.8586  0.1691
 4385SOL    HW213840   1.228   0.784   2.853 -0.7830  1.3859 -0.6092
 4386SOL     OW13841   0.039   3.910   4.202  0.2786 -0.1455  0.3971
 4386SOL    HW113842   0.113   3.934   4.259  0.6777 -0.1372 -0.1132
 4386SOL    HW213843  -0.031   3.887   4.262 -0.3238  2.7963  0.9405
 4387SOL     OW13844   6.462   0.229   1.314 -0.3722  0.3511 -0.0567
 4387SOL    HW113845   6.398   0.168   1.352 -0.3372  0.1037 -0.3892
 4387SOL    HW213846   6.547   0.189   1.332 -0.3912 -0.3049 -1.2860
 4388SOL     OW13847   4.792   2.657   1.857  0.6901  0.2780 -0.2754
 4388SOL    HW113848   4.743   2.723   1.906  0.2775  0.1475 -0.5128
 4388SOL    HW213849   4.733   2.629   1.788  0.8351 -0.3986 -0.1288
 4389SOL     OW13850   1.162   3.358   3.427  0.5407  0.1073 -0.5346
 4389SOL    HW113851   1.243   3.316   3.457  0.7849  1.4688  0.7838
 4389SOL    HW213852   1.175   3.451   3.443 -1.6522  0.2747  0.6185
 4390SOL     OW13853   0.113   6.028   5.818  0.4849  0.0487  0.4616
 4390SOL    HW113854   0.092   5.935   5.809 -1.7632  0.4069  1.3066
 4390SOL    HW213855   0.137   6.056   5.729 -2.2199 -0.6254 -0.5914
 4391SOL     OW13856   2.261   6.214   0.825  0.2468 -0.2599 -0.3368
 4391SOL    HW113857   2.251   6.170   0.741 -0.6707 -1.4576  0.3602
 4391SOL    HW213858   2.217   6.299   0.813 -2.8262 -1.7013 -0.1578
 4392SOL     OW13859   6.320   2.482   2.854 -0.5034  0.2425 -0.3407
 4392SOL    HW113860   6.410   2.511   2.839 -0.6780  1.3009  0.5404
 4392SOL    HW213861   6.273   2.561   2.879 -1.8822 -0.1423 -1.5500
 4393SOL     OW13862   3.330   6.263   0.732  0.0369 -0.2099 -0.5446
 4393SOL    HW113863   3.343   6.210   0.653  0.0081 -2.0626  0.6365
 4393SOL    HW213864   3.367   6.210   0.802  0.7380  1.7199  0.6151
 4394SOL     OW13865   1.288   1.077   1.145 -0.4724 -0.1115  0.3823
 4394SOL    HW113866   1.349   1.105   1.214 -1.9501  1.1850  1.2077
 4394SOL    HW213867   1.204   1.114   1.170 -0.8343  1.6744 -2.8333
 4395SOL     OW13868   3.123   4.042   0.138 -0.5434 -0.4527 -0.3805
 4395SOL    HW113869   3.203   4.069   0.093 -0.8438  0.6651 -0.2848
 4395SOL    HW213870   3.054   4.096   0.098 -0.8901  0.2279  1.0692
 4396SOL     OW13871   5.060   3.352   5.745  0.0408  0.0955 -0.4333
 4396SOL    HW113872   5.147   3.385   5.765 -0.0678 -0.1369  0.4542
 4396SOL    HW213873   5.032   3.403   5.669 -0.2328  2.2767  1.0399
 4397SOL     OW13874   0.867   5.275   2.052  0.0883  0.6798  0.4572
 4397SOL    HW113875   0.824   5.190   2.060 -1.3013  1.2426 -0.5245
 4397SOL    HW213876   0.957   5.259   2.079 -0.0737 -1.1599  0.0711
 4398SOL     OW13877   1.108   2.128   3.306 -0.5989  0.0092 -0.1629
 4398SOL    HW113878   1.188   2.079   3.290 -1.3850 -1.0053 -1.1738
 4398SOL    HW213879   1.049   2.065   3.347 -1.2503  0.4092 -0.4582
 4399SOL     OW13880   3.030   4.829   6.418  0.1698  0.1003  0.0185
 4399SOL    HW113881   2.982   4.882   6.355 -0.6808  0.2870  0.8087
 4399SOL    HW213882   3.103   4.885   6.446  0.3301  0.1571 -0.5160
 4400SOL     OW13883   2.535   6.501   0.889  0.0827 -0.5781 -0.0083
 4400SOL    HW113884   2.460   6.550   0.856  0.5566 -0.3910 -0.8469
 4400SOL    HW213885   2.561   6.444   0.816  0.9293 -0.4240  0.1615
 4401SOL     OW13886   4.389   0.802   0.573 -0.1632  0.0037 -0.5154
 4401SOL    HW113887   4.353   0.890   0.565  0.3381  0.2591 -0.0573
 4401SOL    HW213888   4.464   0.813   0.632  0.2443 -0.6293 -0.9159
 4402SOL     OW13889   0.488   1.786   5.649 -0.2969  0.5653  0.0604
 4402SOL    HW113890   0.415   1.792   5.587  0.5452  1.9221 -0.8528
 4402SOL    HW213891   0.457   1.727   5.717 -2.3345  1.2833 -0.1845
 4403SOL     OW13892   0.703   0.159   5.806  0.8098  0.6538  0.1549
 4403SOL    HW113893   0.652   0.107   5.868  2.8520 -3.0201 -0.9154
 4403SOL    HW213894   0.787   0.173   5.850  2.4314 -2.3209 -1.6016
 4404SOL     OW13895   3.303   4.580   5.429 -0.1175  0.3078 -0.0709
 4404SOL    HW113896   3.347   4.503   5.466  1.1997  0.3049 -1.5315
 4404SOL    HW213897   3.217   4.581   5.471  0.1135 -1.5183  0.5527
 4405SOL     OW13898   5.589   5.533   4.273  0.0055 -0.2160  0.5658
 4405SOL    HW113899   5.585   5.627   4.287  1.1221  0.1669 -1.3869
 4405SOL    HW213900   5.676   5.518   4.236  0.2304 -2.1684  1.7146
 4406SOL     OW13901   0.737   1.769   5.538 -0.5170 -0.4522  0.3809
 4406SOL    HW113902   0.647   1.785   5.567 -0.3962 -0.7420  0.9408
 4406SOL    HW213903   0.745   1.674   5.537 -0.1308 -0.4253  0.6305
 4407SOL     OW13904   5.725   2.184   0.607 -0.1479  0.3052 -0.0530
 4407SOL    HW113905   5.631   2.204   0.601 -0.2159 -0.2232 -0.9481
 4407SOL    HW213906   5.750   2.161   0.517  0.7926  0.2348  0.2209
 4408SOL     OW13907   0.259   5.202   3.047 -0.1103 -0.5050 -0.5968
 4408SOL    HW113908   0.261   5.129   3.110  1.3686 -0.4033 -0.4932
 4408SOL    HW213909   0.216   5.273   3.095 -0.0219 -0.7841 -0.0927
 4409SOL     OW13910   3.638   5.568   2.256  0.2867 -0.3431  0.4555
 4409SOL    HW113911   3.709   5.522   2.212  1.7420  2.7725 -0.7538
 4409SOL    HW213912   3.574   5.586   2.187 -0.3255 -0.6339  0.9358
 4410SOL     OW13913   1.940   5.411   5.626  0.0963  0.6966  0.2158
 4410SOL    HW113914   1.993   5.468   5.570  2.1143 -0.8285  0.4752
 4410SOL    HW213915   1.999   5.385   5.696 -0.3364 -2.5927 -0.4732
 4411SOL     OW13916   2.017   2.177   3.598  0.2638  0.3583  0.3940
 4411SOL    HW113917   1.949   2.233   3.634  0.3684  1.5518 -1.1259
 4411SOL    HW213918   1.970   2.105   3.556 -0.0502  0.9007 -0.2008
 4412SOL     OW13919   0.988   3.171   2.347 -0.1660 -0.0397 -0.3755
 4412SOL    HW113920   0.916   3.160   2.409  0.8453 -1.9183  0.5366
 4412SOL    HW213921   1.011   3.082   2.320  2.6465  0.3578  0.3757
 4413SOL     OW13922   1.173   6.371   4.772  0.0137  0.6522 -0.1039
 4413SOL    HW113923   1.131   6.303   4.824  1.0400 -0.0164 -0.1231
 4413SOL    HW213924   1.262   6.376   4.807  0.5391  0.6162 -1.3818
 4414SOL     OW13925   3.382   5.641   4.631 -0.0189  0.6709  0.2484
 4414SOL    HW113926   3.365   5.663   4.539 -0.8978  0.1484  0.2714
 4414SOL    HW213927   3.316   5.575   4.652  0.7477  0.1102  0.9945
 4415SOL     OW13928   3.195   2.046   4.792  0.2495  0.3961 -0.3335
 4415SOL    HW113929   3.250   2.066   4.716 -1.8531  0.1558 -2.0402
 4415SOL    HW213930   3.206   1.952   4.806 -1.8435 -0.2868 -2.5916
 4416SOL     OW13931   0.787   2.813   2.116 -0.5041  0.0047 -0.4047
 4416SOL    HW113932   0.709   2.758   2.109  0.0833 -0.7267 -1.4336
 4416SOL    HW213933   0.753   2.899   2.142 -1.4895 -0.6730  0.6442
 4417SOL     OW13934   3.472   1.176   1.775 -0.4382 -0.0026  0.2009
 4417SOL    HW113935   3.502   1.091   1.806  1.5518 -0.8562 -3.4735
 4417SOL    HW213936   3.552   1.222   1.750 -1.6543  1.6487 -0.8619
 4418SOL     OW13937   2.620   1.101   1.911  0.1408  0.2239 -0.3736
 4418SOL    HW113938   2.639   1.189   1.882  1.4723  0.6970  1.6873
 4418SOL    HW213939   2.591   1.111   2.002 -2.6088 -1.2312 -0.9665
 4419SOL     OW13940   4.729   3.054   4.092  0.1668 -0.8148  0.0534
 4419SOL    HW113941   4.666   3.005   4.145  0.8651 -0.2683  1.4373
 4419SOL    HW213942   4.674   3.105   4.032 -0.7319 -0.2487  1.3141
 4420SOL     OW13943   1.936   3.634   2.099 -0.3448 -0.4268 -0.0023
 4420SOL    HW113944   1.863   3.589   2.142  1.7010 -2.3937  1.7045
 4420SOL    HW213945   1.931   3.724   2.131 -2.5689 -0.2189 -0.7609
 4421SOL     OW13946   5.959   3.562   2.687  0.1252  0.2368  0.0146
 4421SOL    HW113947   5.912   3.602   2.761 -1.6798  0.2425 -1.0663
 4421SOL    HW213948   5.922   3.605   2.610 -1.1869 -2.7230 -1.1545
 4422SOL     OW13949   3.721   1.429   2.416 -0.5134  0.3011 -0.0728
 4422SOL    HW113950   3.666   1.370   2.468 -0.3551  0.6499  0.5102
 4422SOL    HW213951   3.690   1.420   2.326 -1.9150  0.9107  0.3188
 4423SOL     OW13952   1.397   6.048   0.787  0.5280 -0.3263 -0.3765
 4423SOL    HW113953   1.446   5.981   0.740 -0.9507 -1.9170  0.2571
 4423SOL    HW213954   1.401   6.022   0.879 -1.0564 -0.2530 -0.2501
 4424SOL     OW13955   2.372   6.305   0.185  0.1545 -0.2464 -0.1816
 4424SOL    HW113956   2.429   6.298   0.108  1.2877 -1.2618  0.6989
 4424SOL    HW213957   2.391   6.392   0.221  0.2043 -0.0828 -0.5961
 4425SOL     OW13958   1.764   4.123   5.901  0.0849  0.4264  0.6430
 4425SOL    HW113959   1.846   4.172   5.901  0.3792 -0.0390  1.9472
 4425SOL    HW213960   1.789   4.034   5.927 -0.3632 -0.5896 -2.0367
 4426SOL     OW13961   3.500   2.568   1.872  0.1949 -0.2969  0.0080
 4426SOL    HW113962   3.519   2.609   1.788 -0.7887  1.8450  0.7583
 4426SOL    HW213963   3.565   2.604   1.932  0.3574 -1.1498  0.3631
 4427SOL     OW13964   5.702   3.248   0.372  0.2438 -0.2876 -0.3071
 4427SOL    HW113965   5.607   3.255   0.374  0.3488  1.5464  1.2827
 4427SOL    HW213966   5.730   3.282   0.457  2.3645  0.2688 -1.1759
 4428SOL     OW13967   1.744   4.052   2.678 -0.1661 -0.5330  0.8297
 4428SOL    HW113968   1.679   4.004   2.729  0.7950 -2.6740  0.1909
 4428SOL    HW213969   1.827   4.011   2.702  0.8738  1.5004  0.9312
 4429SOL     OW13970   2.361   0.780   0.385  0.3989  0.3829 -0.8685
 4429SOL    HW113971   2.294   0.786   0.316 -0.6721 -0.3870  0.0645
 4429SOL    HW213972   2.312   0.790   0.467  1.2478 -1.3077 -0.1139
 4430SOL     OW13973   2.799   3.756   2.714  0.5433 -0.4252 -0.2639
 4430SOL    HW113974   2.813   3.662   2.706 -1.9845 -0.7435 -2.2128
 4430SOL    HW213975   2.873   3.796   2.668  1.3990 -1.4610  0.1949
 4431SOL     OW13976   0.027   3.696   1.393  0.0324  0.5308  0.2995
 4431SOL    HW113977   0.117   3.721   1.416  0.4386 -1.5686  1.1921
 4431SOL    HW213978  -0.026   3.771   1.421  1.2188  0.6536  2.4738
 4432SOL     OW13979   3.951   4.269   5.296 -0.3435 -0.5804  0.4997
 4432SOL    HW113980   4.031   4.243   5.341  0.1668  0.4109  0.1897
 4432SOL    HW213981   3.981   4.323   5.223 -1.2144 -1.3109 -0.4277
 4433SOL     OW13982   3.757   3.649   5.759 -0.2006 -0.1617 -0.2367
 4433SOL    HW113983   3.698   3.718   5.730  1.1412  1.3182  0.4025
 4433SOL    HW213984   3.830   3.696   5.800  0.7787 -1.9667  0.1757
 4434SOL     OW13985   3.152   1.123   6.485  0.0859 -0.0154  0.0046
 4434SOL    HW113986   3.138   1.039   6.528 -2.0534 -0.1804 -0.8974
 4434SOL    HW213987   3.246   1.141   6.497 -0.0423 -0.9135  3.0235
 4435SOL     OW13988   2.436   0.712   2.094  0.0868 -0.1456 -0.4525
 4435SOL    HW113989   2.362   0.731   2.037 -0.5105 -0.1529  0.3007
 4435SOL    HW213990   2.467   0.798   2.122  2.4198  0.0689 -3.2438
 4436SOL     OW13991   5.305   3.756   2.045  0.5601  0.1595  0.3286
 4436SOL    HW113992   5.296   3.672   1.999 -1.4857  1.5604 -2.0152
 4436SOL    HW213993   5.397   3.757   2.073  0.5810 -2.9750  0.7575
 4437SOL     OW13994   2.746   5.760   4.105  0.1793 -0.3680  0.1268
 4437SOL    HW113995   2.664   5.810   4.098  1.3970  1.5148 -2.0233
 4437SOL    HW213996   2.767   5.761   4.199 -0.8994  1.4549  0.3974
 4438SOL     OW13997   1.962   2.568   0.843 -0.4772  0.0366 -0.0919
 4438SOL    HW113998   1.936   2.531   0.758 -1.3213  2.2146 -0.8718
 4438SOL    HW213999   2.058   2.560   0.844 -0.5557 -1.2638 -0.5961
 4439SOL     OW14000   6.024   1.085   0.886  0.5568  0.3552  0.6019
 4439SOL    HW114001   6.041   1.000   0.926 -1.9890  0.2508  1.6960
 4439SOL    HW214002   5.989   1.065   0.799 -1.4703  0.1294  1.4155
 4440SOL     OW14003   1.368   1.405   2.250 -0.0584 -0.1755  0.1211
 4440SOL    HW114004   1.443   1.408   2.310 -0.0687  0.3374  0.1054
 4440SOL    HW214005   1.316   1.482   2.272  0.0193  0.1026 -0.6600
 4441SOL     OW14006   5.218   1.020   1.490  0.0388 -0.1953 -0.0366
 4441SOL    HW114007   5.278   1.009   1.564 -0.4832 -0.0888  0.4082
 4441SOL    HW214008   5.142   1.065   1.527 -0.3020 -0.2991 -0.6008
 4442SOL     OW14009   2.847   0.703   4.640 -0.1209  0.2694 -0.0981
 4442SOL    HW114010   2.794   0.688   4.562 -0.3323  0.7614 -0.0552
 4442SOL    HW214011   2.829   0.628   4.696  0.7982 -0.5876 -0.9295
 4443SOL     OW14012   1.053   3.165   3.664 -0.5544 -0.0211  0.0372
 4443SOL    HW114013   0.974   3.209   3.693 -1.0072 -0.0256 -1.1735
 4443SOL    HW214014   1.090   3.221   3.597 -0.9225 -1.2451 -1.2358
 4444SOL     OW14015   0.551   5.721   2.568 -0.1381  0.4526 -0.8429
 4444SOL    HW114016   0.539   5.658   2.498 -0.8340  1.7917 -1.9757
 4444SOL    HW214017   0.466   5.765   2.577  0.5972  1.9460 -0.8309
 4445SOL     OW14018   1.729   0.977   0.060 -0.6582  0.6548 -0.1221
 4445SOL    HW114019   1.694   1.039  -0.004 -2.0306  2.3527  2.1340
 4445SOL    HW214020   1.654   0.950   0.113  0.6771  0.9114  2.0482
 4446SOL     OW14021   0.174   6.334   0.692  0.4349  0.1193 -0.2639
 4446SOL    HW114022   0.198   6.360   0.781  0.3165  0.5863 -0.3639
 4446SOL    HW214023   0.195   6.241   0.687  0.0780 -0.0015  0.3800
 4447SOL     OW14024   3.556   5.977   3.312  0.5017 -0.2500 -0.3779
 4447SOL    HW114025   3.614   5.940   3.378  1.1325 -0.2430 -0.9176
 4447SOL    HW214026   3.554   5.911   3.242  3.1341  1.4246 -2.2242
 4448SOL     OW14027   5.587   6.315   5.221 -0.0089 -0.2822  0.5925
 4448SOL    HW114028   5.637   6.360   5.289 -0.6295 -0.1128  0.9466
 4448SOL    HW214029   5.647   6.249   5.187  1.5883  1.9758 -1.2483
 4449SOL     OW14030   6.312   4.439   4.969  0.4560  0.1605 -0.5527
 4449SOL    HW114031   6.286   4.518   4.921 -1.2505  0.4407  0.7316
 4449SOL    HW214032   6.288   4.457   5.060 -1.7511 -2.4844 -0.4660
 4450SOL     OW14033   5.831   1.579   5.708  0.1883 -0.1889  0.3596
 4450SOL    HW114034   5.738   1.561   5.724  0.2079 -0.1005  0.5810
 4450SOL    HW214035   5.844   1.668   5.742  0.4252 -0.3229  0.6212
 4451SOL     OW14036   2.914   2.375   3.259  0.0503  0.0492  0.4243
 4451SOL    HW114037   2.870   2.441   3.206 -0.6140 -0.4926  0.2783
 4451SOL    HW214038   2.976   2.424   3.313  0.3703  0.6566 -0.4886
 4452SOL     OW14039   1.431   6.394   1.334  0.1192  0.1567  0.0232
 4452SOL    HW114040   1.419   6.351   1.250 -1.0434 -0.1599  0.3231
 4452SOL    HW214041   1.481   6.332   1.387 -0.6515 -0.3996  0.1154
 4453SOL     OW14042   5.852   3.930   6.061  0.2338 -0.5325 -0.0367
 4453SOL    HW114043   5.947   3.944   6.063  0.1483  0.0460  1.1511
 4453SOL    HW214044   5.822   3.973   5.982  0.8953 -0.2180 -0.1183
 4454SOL     OW14045   2.422   6.199   4.193 -0.6202 -0.7610 -0.1048
 4454SOL    HW114046   2.458   6.227   4.109 -0.9501 -0.7486 -0.2448
 4454SOL    HW214047   2.411   6.279   4.243  2.2203 -0.9889  1.0413
 4455SOL     OW14048   1.610   2.610   2.224 -0.2673 -0.1604 -0.2583
 4455SOL    HW114049   1.587   2.683   2.167 -1.1115 -0.7263 -0.6643
 4455SOL    HW214050   1.607   2.533   2.167 -4.2502 -1.2303  1.0492
 4456SOL     OW14051   5.423   3.547   5.110 -0.1483 -0.1791 -0.1492
 4456SOL    HW114052   5.383   3.479   5.163  2.0979 -0.6010  1.1254
 4456SOL    HW214053   5.478   3.500   5.047  0.9213  0.4015  0.3202
 4457SOL     OW14054   1.830   3.044   5.353  0.2233 -0.3310 -0.8888
 4457SOL    HW114055   1.737   3.026   5.372  0.5774 -1.4335 -0.0826
 4457SOL    HW214056   1.873   3.038   5.439  0.9605  0.8385 -1.1476
 4458SOL     OW14057   4.666   4.716   1.199  0.0601 -0.6246 -0.3222
 4458SOL    HW114058   4.724   4.788   1.225 -0.5853 -0.1789 -0.0692
 4458SOL    HW214059   4.580   4.743   1.231 -0.4929 -0.7448 -1.6659
 4459SOL     OW14060   0.363   2.213   2.624  0.3647  0.2114 -0.1930
 4459SOL    HW114061   0.274   2.196   2.655  0.6095 -1.3089 -0.2016
 4459SOL    HW214062   0.406   2.127   2.626  2.1467  1.0536  0.7598
 4460SOL     OW14063   4.190   6.140   4.939 -0.2022 -0.7280 -0.4659
 4460SOL    HW114064   4.145   6.055   4.943 -1.3491 -0.1062  0.5853
 4460SOL    HW214065   4.166   6.175   4.853 -0.2964 -1.1636 -0.6244
 4461SOL     OW14066   6.341   3.384   5.036 -0.1808  0.2988 -0.7747
 4461SOL    HW114067   6.306   3.427   5.114 -0.6519  0.0466 -0.8430
 4461SOL    HW214068   6.359   3.294   5.064  1.3940  0.6766 -0.4592
 4462SOL     OW14069   1.703   3.762   1.766  0.3246 -0.0261 -0.0726
 4462SOL    HW114070   1.663   3.793   1.848  2.1328  0.4734  0.6613
 4462SOL    HW214071   1.704   3.840   1.710  0.5193  0.0338  0.0134
 4463SOL     OW14072   2.934   0.101   2.291 -0.7668 -0.4924  0.4975
 4463SOL    HW114073   2.953   0.096   2.385  1.5970  0.6596  0.1718
 4463SOL    HW214074   2.956   0.014   2.257 -1.0859 -0.7393  0.9113
 4464SOL     OW14075   5.028   2.997   4.616 -0.4366 -0.3817  0.5227
 4464SOL    HW114076   4.995   2.995   4.706 -0.9894  0.0648  0.3321
 4464SOL    HW214077   4.954   3.026   4.563  0.6083  2.0215  0.2529
 4465SOL     OW14078   4.936   4.383   2.111 -0.3022 -0.1938 -0.1211
 4465SOL    HW114079   4.848   4.418   2.125  0.3407  1.5106 -0.1181
 4465SOL    HW214080   4.923   4.288   2.105 -2.0852 -0.0116  0.2103
 4466SOL     OW14081   4.458   3.503   1.174  0.1060 -0.1233  0.2978
 4466SOL    HW114082   4.441   3.551   1.093 -0.0474 -1.0312 -0.2155
 4466SOL    HW214083   4.547   3.527   1.198  0.9127 -1.3763 -1.2405
 4467SOL     OW14084   0.589   3.421   3.424  0.1160  0.0146  0.3447
 4467SOL    HW114085   0.576   3.336   3.466  1.7798 -0.5875 -0.2585
 4467SOL    HW214086   0.516   3.429   3.363 -1.1735 -0.0421  1.8238
 4468SOL     OW14087   3.242   0.527   6.411  0.5483  0.2022 -0.0974
 4468SOL    HW114088   3.283   0.480   6.338 -0.6951  0.9389 -1.3164
 4468SOL    HW214089   3.188   0.593   6.369 -1.4211 -0.3340  1.4511
 4469SOL     OW14090   2.396   1.435   2.639  0.2768 -0.1303 -0.0719
 4469SOL    HW114091   2.467   1.496   2.658  0.8562 -0.7145 -0.3152
 4469SOL    HW214092   2.439   1.359   2.600 -0.6618  0.2688 -2.0204
 4470SOL     OW14093   2.679   0.141   5.578 -0.6885  0.1542  0.5919
 4470SOL    HW114094   2.609   0.204   5.562 -1.7729 -0.5685  2.2543
 4470SOL    HW214095   2.648   0.059   5.539  0.8307  0.6166 -1.8045
 4471SOL     OW14096   5.936   2.050   1.445 -0.3333 -0.1541 -0.6192
 4471SOL    HW114097   5.851   2.031   1.407 -0.7284 -1.7934  0.9181
 4471SOL    HW214098   5.990   1.974   1.423  0.0196 -0.1995  0.3425
 4472SOL     OW14099   1.052   1.998   3.008  0.4922 -0.2953 -0.3393
 4472SOL    HW114100   1.090   2.042   2.932 -0.0281  0.1529 -0.3401
 4472SOL    HW214101   1.128   1.980   3.065  0.7372  0.4200 -0.4282
 4473SOL     OW14102   0.028   1.152   0.721 -0.5287 -0.1152 -0.1945
 4473SOL    HW114103   0.020   1.233   0.771  0.1624 -0.6210  0.7544
 4473SOL    HW214104  -0.003   1.175   0.633 -1.0590  0.9707  0.2604
 4474SOL     OW14105   0.908   2.338   1.161  0.8153 -0.9281  0.5914
 4474SOL    HW114106   0.979   2.302   1.216  1.4316  0.2732  0.6130
 4474SOL    HW214107   0.952   2.365   1.081  0.6450  1.0777  1.1338
 4475SOL     OW14108   4.645   5.892   1.025 -0.2999  0.1366 -0.6499
 4475SOL    HW114109   4.692   5.821   0.979  0.1523 -1.4392  2.0187
 4475SOL    HW214110   4.634   5.960   0.959  0.1389 -2.0116 -3.1035
 4476SOL     OW14111   3.142   0.455   3.291  0.7731 -0.0371 -0.0686
 4476SOL    HW114112   3.118   0.527   3.349  1.4021 -0.1902  0.3918
 4476SOL    HW214113   3.095   0.379   3.327  0.5505  0.0284 -0.2213
 4477SOL     OW14114   3.631   3.293   6.245  0.1060  0.0023  0.0657
 4477SOL    HW114115   3.658   3.272   6.334 -1.1804 -3.2392 -0.1776
 4477SOL    HW214116   3.536   3.305   6.251  0.1441  0.8187 -0.7176
 4478SOL     OW14117   0.145   3.275   1.614  0.4017 -0.3605 -0.5226
 4478SOL    HW114118   0.170   3.252   1.524 -0.5652 -0.8051 -0.6985
 4478SOL    HW214119   0.125   3.368   1.610 -0.4705 -0.5508 -0.9904
 4479SOL     OW14120   4.935   5.090   2.732 -0.0456  0.3846 -0.0715
 4479SOL    HW114121   4.884   5.085   2.813  0.8508  1.3220  0.5715
 4479SOL    HW214122   5.026   5.095   2.761  0.3336  0.0941 -1.1673
 4480SOL     OW14123   4.723   1.495   0.960 -0.4275  0.2543  0.1389
 4480SOL    HW114124   4.721   1.470   0.868 -1.8403  0.5209  0.0781
 4480SOL    HW214125   4.778   1.429   1.001 -0.3405 -0.2698 -0.7833
 4481SOL     OW14126   1.359   1.895   6.512  0.2034 -0.0249 -0.3060
 4481SOL    HW114127   1.346   1.981   6.553  1.0708  1.0800 -2.2142
 4481SOL    HW214128   1.411   1.845   6.575 -2.6680 -0.2576  2.1136
 4482SOL     OW14129   4.536   3.387   1.976  0.1786 -0.7457  0.0944
 4482SOL    HW114130   4.593   3.463   1.968  0.1889 -0.5030  2.0329
 4482SOL    HW214131   4.480   3.391   1.898  0.7448  0.7568 -0.2717
 4483SOL     OW14132   5.875   5.546   0.092 -0.2732 -0.0575  0.8860
 4483SOL    HW114133   5.873   5.596   0.010  0.9967  0.1624  0.9689
 4483SOL    HW214134   5.844   5.608   0.159  0.9798  0.5464  0.9377
 4484SOL     OW14135   4.318   5.734   0.282  0.7362 -0.4251 -0.2805
 4484SOL    HW114136   4.319   5.827   0.261  4.7027  0.0974  1.2686
 4484SOL    HW214137   4.314   5.690   0.197 -0.4156  1.1321 -1.0819
 4485SOL     OW14138   4.598   1.660   6.254  0.0004 -0.7188  0.3891
 4485SOL    HW114139   4.557   1.711   6.184  0.9045 -0.3376  0.1283
 4485SOL    HW214140   4.538   1.586   6.268 -0.4468 -0.5210 -0.4274
 4486SOL     OW14141   0.698   4.257   5.086  0.4848 -0.8929 -0.3044
 4486SOL    HW114142   0.622   4.308   5.059  0.7894 -0.1179  0.2564
 4486SOL    HW214143   0.690   4.251   5.181  1.4582 -0.2180 -0.1581
 4487SOL     OW14144   5.919   5.479   2.587  0.0267  0.3326  0.4984
 4487SOL    HW114145   5.919   5.443   2.676 -0.6860  1.1703  0.8484
 4487SOL    HW214146   5.863   5.420   2.538 -0.0997  0.2326  0.7597
 4488SOL     OW14147   2.146   4.786   3.511  0.6113 -0.3051 -0.7002
 4488SOL    HW114148   2.063   4.834   3.518  0.3518 -0.4339 -2.3768
 4488SOL    HW214149   2.213   4.848   3.539 -0.0948 -0.4886  1.5624
 4489SOL     OW14150   2.216   4.956   1.458  0.8610 -0.0413  0.0266
 4489SOL    HW114151   2.157   4.918   1.524  1.2429  2.8363  2.2572
 4489SOL    HW214152   2.296   4.976   1.506  2.2528 -0.3319 -2.0447
 4490SOL     OW14153   1.246   3.563   1.637 -0.2962  0.3128 -0.4381
 4490SOL    HW114154   1.303   3.639   1.652  1.1744 -0.4827 -1.6996
 4490SOL    HW214155   1.300   3.488   1.663 -1.5329 -0.3561  0.2749
 4491SOL     OW14156   2.951   5.706   6.333 -0.0453  0.0423  0.5688
 4491SOL    HW114157   3.000   5.784   6.309 -0.0695 -0.1336 -0.0658
 4491SOL    HW214158   2.997   5.671   6.409 -0.9208  1.5113  1.8383
 4492SOL     OW14159   3.607   5.044   3.193  0.2485 -0.9821  0.6782
 4492SOL    HW114160   3.581   5.131   3.164 -0.6191 -1.5287 -0.2825
 4492SOL    HW214161   3.694   5.031   3.155  0.0424 -0.8317  0.1422
 4493SOL     OW14162   5.291   0.418   1.306 -0.3128 -0.2343 -0.5329
 4493SOL    HW114163   5.366   0.475   1.323  1.3975 -1.5124 -3.1797
 4493SOL    HW214164   5.327   0.330   1.303 -1.5628 -0.7815 -3.1985
 4494SOL     OW14165   0.329   0.319   5.282  0.7881  0.1080 -0.5337
 4494SOL    HW114166   0.415   0.345   5.313  2.1069 -2.3383 -1.7967
 4494SOL    HW214167   0.304   0.245   5.338 -0.0127  0.1390 -0.8284
 4495SOL     OW14168   2.352   1.205   2.332  0.7456 -0.1841  0.1813
 4495SOL    HW114169   2.369   1.221   2.424 -0.1800 -0.3019  0.3891
 4495SOL    HW214170   2.256   1.205   2.325  0.7967  1.2812 -1.0356
 4496SOL     OW14171   4.018   1.087   2.708  0.2787  0.2137 -0.0491
 4496SOL    HW114172   3.983   1.109   2.622  0.3901 -0.3263 -0.2382
 4496SOL    HW214173   3.940   1.071   2.762  0.1915  1.2411  0.1469
 4497SOL     OW14174   3.357   4.311   5.784 -0.1102  0.3101 -0.1478
 4497SOL    HW114175   3.369   4.313   5.879  1.4550  0.2954 -0.3179
 4497SOL    HW214176   3.422   4.371   5.749  0.0374 -0.4583 -1.2716
 4498SOL     OW14177   0.351   4.028   6.426  0.1792 -0.0841  0.4036
 4498SOL    HW114178   0.446   4.031   6.416  0.1833 -1.7950 -0.4827
 4498SOL    HW214179   0.327   3.937   6.405 -1.7490  0.5097 -0.2179
 4499SOL     OW14180   0.762   2.033   2.156 -0.1646  0.3171  0.3632
 4499SOL    HW114181   0.848   2.013   2.119 -0.5741 -0.3619 -0.2485
 4499SOL    HW214182   0.723   2.093   2.093 -0.3740  0.1465  0.3306
 4500SOL     OW14183   1.980   5.328   2.024 -0.0801 -0.0043 -0.1189
 4500SOL    HW114184   1.905   5.272   2.004  0.2947 -1.2598  1.7043
 4500SOL    HW214185   2.048   5.301   1.962  0.1141 -1.6736  0.7692
 4501SOL     OW14186   4.946   0.301   2.125  0.3706  0.8320 -0.8535
 4501SOL    HW114187   4.928   0.355   2.048  0.8988  1.7247 -0.3693
 4501SOL    HW214188   4.928   0.359   2.199  0.6206  0.2308 -0.3173
 4502SOL     OW14189   0.601   0.564   4.928  0.1463 -0.2929 -0.1862
 4502SOL    HW114190   0.679   0.581   4.876  1.9012  0.5725  2.4908
 4502SOL    HW214191   0.549   0.644   4.922  0.8379  0.1958  0.1442
 4503SOL     OW14192   4.933   3.949   2.951 -0.6076 -0.4530  0.1253
 4503SOL    HW114193   4.997   3.976   2.885 -0.1534 -1.7441 -0.0025
 4503SOL    HW214194   4.952   3.856   2.966 -0.7814 -0.2346  1.9843
 4504SOL     OW14195   2.365   0.071   4.081  0.0727  0.0852  0.0531
 4504SOL    HW114196   2.441   0.035   4.035  0.1796  0.3369  0.0342
 4504SOL    HW214197   2.397   0.087   4.170 -0.2279 -0.7232  0.3131
 4505SOL     OW14198   4.887   5.184   0.406 -0.4322 -0.7115 -0.0534
 4505SOL    HW114199   4.923   5.178   0.495 -1.8773 -0.3927  0.5878
 4505SOL    HW214200   4.818   5.117   0.404 -1.3960  0.2700 -0.4405
 4506SOL     OW14201   3.817   4.404   4.953 -0.0519  0.2096 -0.4344
 4506SOL    HW114202   3.813   4.325   4.899 -0.8593  0.3686 -0.6045
 4506SOL    HW214203   3.911   4.418   4.967  0.0967 -1.4062  0.5231
 4507SOL     OW14204   3.415   2.046   5.849  0.1586  0.2746  0.3414
 4507SOL    HW114205   3.441   2.078   5.762 -1.1548 -1.0802 -0.6083
 4507SOL    HW214206   3.337   2.096   5.871  1.0777  1.3478  1.2460
 4508SOL     OW14207   1.730   1.354   0.869  0.2617 -0.0689 -0.2334
 4508SOL    HW114208   1.810   1.303   0.880  0.1217 -0.3121 -0.3253
 4508SOL    HW214209   1.760   1.445   0.860  0.4732 -0.0552  0.5340
 4509SOL     OW14210   0.093   0.375   2.189  0.1293 -0.0445  0.1349
 4509SOL    HW114211   0.006   0.381   2.149 -0.1757  0.1159  0.8131
 4509SOL    HW214212   0.093   0.289   2.232  1.1882 -1.1226 -1.8709
 4510SOL     OW14213   4.369   3.737   3.904  0.5436  0.4852  0.2386
 4510SOL    HW114214   4.391   3.826   3.874  1.4181  0.7324  1.5175
 4510SOL    HW214215   4.346   3.748   3.996  0.0105 -0.5411  0.2415
 4511SOL     OW14216   1.239   3.215   4.458 -0.3359 -0.2509  0.0961
 4511SOL    HW114217   1.186   3.292   4.480  0.4421  1.1310 -2.4884
 4511SOL    HW214218   1.282   3.192   4.540 -1.5706  1.2763  1.2489
 4512SOL     OW14219   0.035   4.075   1.662  0.0089  0.2210 -0.2941
 4512SOL    HW114220  -0.055   4.082   1.695 -0.0548  0.2430 -0.4676
 4512SOL    HW214221   0.063   4.166   1.650  0.2668  0.2248  0.3170
 4513SOL     OW14222   2.436   2.012   4.688 -0.6824  0.3058  0.0967
 4513SOL    HW114223   2.465   2.082   4.747 -2.7745  1.2068  0.1465
 4513SOL    HW214224   2.516   1.964   4.667  0.0738 -0.7850  4.5236
 4514SOL     OW14225   1.280   3.079   2.952 -0.3370 -0.6090 -0.0333
 4514SOL    HW114226   1.211   3.130   2.911  0.4965  1.3017  0.8403
 4514SOL    HW214227   1.244   2.990   2.958 -3.0568  0.4888  1.1517
 4515SOL     OW14228   1.873   4.892   5.123 -0.3606 -0.3977  0.5279
 4515SOL    HW114229   1.868   4.850   5.209  0.5164  0.1932  0.8935
 4515SOL    HW214230   1.963   4.926   5.119 -0.5452  0.0067 -0.4231
 4516SOL     OW14231   3.091   1.788   0.387  0.2192 -0.6289 -0.2107
 4516SOL    HW114232   3.099   1.745   0.472  0.0125  0.1889  0.2351
 4516SOL    HW214233   3.175   1.832   0.374  0.7579 -1.8651 -1.0733
 4517SOL     OW14234   0.675   0.986   2.130 -0.9158 -0.6539 -0.3661
 4517SOL    HW114235   0.579   0.985   2.127 -0.8958 -1.8989 -2.8579
 4517SOL    HW214236   0.695   1.024   2.216 -3.6181 -1.5128  0.7701
 4518SOL     OW14237   1.907   1.323   4.291 -0.1480 -0.6752  0.1529
 4518SOL    HW114238   1.921   1.385   4.362 -3.5684  0.1182  0.2868
 4518SOL    HW214239   1.940   1.368   4.213  0.4159 -0.0910  0.7203
 4519SOL     OW14240   5.763   3.711   3.512 -0.0217 -0.2454  0.1122
 4519SOL    HW114241   5.809   3.779   3.462  0.2013  0.0785  0.7386
 4519SOL    HW214242   5.802   3.629   3.483 -1.1330 -0.2332 -1.5470
 4520SOL     OW14243   3.130   5.466   5.918  0.1268 -0.2616 -0.7896
 4520SOL    HW114244   3.135   5.540   5.978 -0.3901 -1.3606  0.6706
 4520SOL    HW214245   3.164   5.392   5.969 -1.1268 -1.4056 -1.5483
 4521SOL     OW14246   4.428   6.027   1.849 -0.3156 -0.0059 -0.6118
 4521SOL    HW114247   4.517   6.024   1.813  0.2565 -0.2988  0.7473
 4521SOL    HW214248   4.373   6.052   1.775  0.9772  0.8087 -1.3379
 4522SOL     OW14249   6.425   5.364   0.446 -0.5326  0.5664  0.1701
 4522SOL    HW114250   6.437   5.426   0.374  0.5846  0.9331  0.6549
 4522SOL    HW214251   6.436   5.417   0.525 -2.7394  0.3848  0.6796
 4523SOL     OW14252   3.806   0.970   2.831  0.5690 -0.8412  0.4018
 4523SOL    HW114253   3.727   0.961   2.885  0.3129 -0.8896  0.0263
 4523SOL    HW214254   3.823   0.881   2.799  1.3457 -1.0208  1.2577
 4524SOL     OW14255   2.572   1.981   1.023  0.3951 -0.2791 -0.2503
 4524SOL    HW114256   2.640   1.972   0.957  2.2406 -0.6925  1.6095
 4524SOL    HW214257   2.537   2.069   1.009  1.3108 -0.0548 -1.2582
 4525SOL     OW14258   4.988   4.854   0.999 -0.6087 -0.5568  0.4743
 4525SOL    HW114259   4.970   4.762   1.015 -0.8244 -0.9535 -1.7740
 4525SOL    HW214260   5.082   4.858   0.979 -0.5683 -0.2565  0.7031
 4526SOL     OW14261   2.046   3.415   4.428  0.3154 -0.3185 -0.2442
 4526SOL    HW114262   2.078   3.356   4.361  1.1106 -1.0213  0.7231
 4526SOL    HW214263   2.067   3.503   4.396 -2.4600 -0.3506 -2.5480
 4527SOL     OW14264   2.950   0.372   1.774 -0.5284 -0.2033  0.0837
 4527SOL    HW114265   2.856   0.373   1.796 -0.5483  0.2162 -0.0056
 4527SOL    HW214266   2.994   0.378   1.859 -0.5593 -1.4938  0.2116
 4528SOL     OW14267   5.393   4.198   5.784  0.1818 -0.2019  0.0133
 4528SOL    HW114268   5.463   4.173   5.844 -0.6233 -2.4852  0.1207
 4528SOL    HW214269   5.315   4.203   5.840 -0.4672 -1.7747 -0.6770
 4529SOL     OW14270   1.813   3.991   0.807 -0.0142 -0.5328 -0.0623
 4529SOL    HW114271   1.874   3.920   0.788 -0.4539 -1.2792  1.2044
 4529SOL    HW214272   1.727   3.955   0.784 -0.0406  0.4797 -1.7485
 4530SOL     OW14273   0.664   2.774   3.913  0.6711 -0.3669  0.2604
 4530SOL    HW114274   0.691   2.772   4.004 -1.1536 -1.1660  0.8236
 4530SOL    HW214275   0.598   2.706   3.906  0.6964 -0.2484 -1.6463
 4531SOL     OW14276   1.337   6.194   5.089  0.1647 -0.5274  0.0410
 4531SOL    HW114277   1.338   6.118   5.147 -2.2256 -0.4985  0.2471
 4531SOL    HW214278   1.262   6.246   5.119  1.0461  1.3404 -0.8166
 4532SOL     OW14279   2.019   5.799   1.887  0.2779  0.0086 -0.0225
 4532SOL    HW114280   1.963   5.745   1.944  0.0750 -0.4930 -0.6818
 4532SOL    HW214281   2.089   5.739   1.860  1.0011  0.5612  0.5849
 4533SOL     OW14282   5.085   2.225   2.047  0.4178 -0.2537 -0.2220
 4533SOL    HW114283   5.015   2.289   2.055 -1.0000 -1.8827  1.5888
 4533SOL    HW214284   5.049   2.146   2.088  3.3152 -1.1812  0.7419
 4534SOL     OW14285   2.405   3.103   2.328  0.4606  0.1640  0.0194
 4534SOL    HW114286   2.472   3.043   2.361  0.4364  0.4244  0.5573
 4534SOL    HW214287   2.411   3.180   2.385  0.5090  0.6908 -0.6829
 4535SOL     OW14288   3.375   5.661   3.280 -0.2597  0.0415  0.4266
 4535SOL    HW114289   3.429   5.618   3.347 -0.4281 -0.5832  0.1700
 4535SOL    HW214290   3.286   5.657   3.315 -0.1506  1.0598  0.8429
 4536SOL     OW14291   0.257   2.749   2.075 -0.2510  0.0690  0.0437
 4536SOL    HW114292   0.231   2.836   2.044  1.8098  1.1170  1.0905
 4536SOL    HW214293   0.209   2.688   2.018 -1.0041  1.8724 -1.3412
 4537SOL     OW14294   0.576   4.761   1.422  0.4769 -0.6956  0.1511
 4537SOL    HW114295   0.501   4.800   1.377  1.0373  1.3383  0.8656
 4537SOL    HW214296   0.565   4.787   1.514  1.5775 -1.1694  0.4328
 4538SOL     OW14297   2.052   3.485   4.925 -0.3446 -0.1491  0.4089
 4538SOL    HW114298   2.113   3.455   4.992  1.3456  0.1074 -0.9446
 4538SOL    HW214299   2.052   3.416   4.859 -0.3920  0.4982 -0.2882
 4539SOL     OW14300   1.834   3.499   1.241 -0.8400 -0.4565  0.2064
 4539SOL    HW114301   1.786   3.554   1.179 -0.5741 -0.5531 -0.0854
 4539SOL    HW214302   1.778   3.422   1.252 -1.8074  0.3984  1.5590
 4540SOL     OW14303   4.062   3.919   2.645 -0.3479  0.2478  0.3069
 4540SOL    HW114304   4.100   3.990   2.697 -0.1132  0.0119  0.4683
 4540SOL    HW214305   4.121   3.845   2.661 -0.1008  0.2546 -0.5442
 4541SOL     OW14306   3.235   3.892   3.232  0.0672 -0.7730 -0.7968
 4541SOL    HW114307   3.285   3.915   3.310  1.1414 -1.2627 -1.3292
 4541SOL    HW214308   3.198   3.976   3.203 -0.1582 -0.5488  0.0933
 4542SOL     OW14309   6.357   5.441   2.791 -0.1774 -0.1852 -0.0117
 4542SOL    HW114310   6.314   5.461   2.708  1.0053 -0.2752 -0.6663
 4542SOL    HW214311   6.381   5.526   2.827  0.6606 -0.1933 -0.5169
 4543SOL     OW14312   5.342   0.370   4.356 -0.5405 -0.5954  0.0884
 4543SOL    HW114313   5.317   0.385   4.265 -0.9271 -1.3337  0.0708
 4543SOL    HW214314   5.293   0.293   4.383 -0.6961 -0.1829  1.0375
 4544SOL     OW14315   4.246   0.078   3.365  0.4906 -0.2989 -0.0602
 4544SOL    HW114316   4.311   0.148   3.375 -0.5484  0.8947 -1.2232
 4544SOL    HW214317   4.163   0.125   3.358 -0.3048 -1.7086 -0.2730
 4545SOL     OW14318   3.300   6.216   5.962 -0.7429 -0.3501  0.3135
 4545SOL    HW114319   3.304   6.257   5.876 -1.2414 -0.9225  0.0037
 4545SOL    HW214320   3.380   6.244   6.007  0.1179 -0.9883 -0.7710
 4546SOL     OW14321   3.702   2.894   3.399  0.2496 -0.0377  0.3641
 4546SOL    HW114322   3.678   2.936   3.481 -2.5911 -1.3733  0.3190
 4546SOL    HW214323   3.632   2.917   3.338  1.1108 -0.9495 -1.0348
 4547SOL     OW14324   1.604   5.713   5.728 -0.2622  0.2338 -0.3764
 4547SOL    HW114325   1.513   5.739   5.744 -0.0719 -0.3568  2.0009
 4547SOL    HW214326   1.631   5.668   5.808  1.8720 -0.3823 -1.3627
 4548SOL     OW14327   1.763   0.419   2.315 -0.2058  0.3270 -0.3333
 4548SOL    HW114328   1.831   0.462   2.264 -0.2185 -0.2750 -0.8614
 4548SOL    HW214329   1.804   0.402   2.400  0.0155  0.7511 -0.3541
 4549SOL     OW14330   4.482   6.488   5.210 -0.0431 -0.0197  0.2778
 4549SOL    HW114331   4.402   6.468   5.162 -1.2112  1.2050  1.6208
 4549SOL    HW214332   4.474   6.440   5.292  0.7074 -0.0452  0.3477
 4550SOL     OW14333   2.260   0.649   2.368  0.1251 -0.1729 -0.2348
 4550SOL    HW114334   2.329   0.715   2.360 -1.4260  1.4295 -1.1696
 4550SOL    HW214335   2.225   0.641   2.279 -1.1815 -0.6007  0.3017
 4551SOL     OW14336   3.851   4.346   2.459 -0.7655 -0.3299  0.5727
 4551SOL    HW114337   3.943   4.334   2.480  0.7798  1.3082 -3.8686
 4551SOL    HW214338   3.827   4.430   2.500  0.6631  0.5855 -0.3630
 4552SOL     OW14339   1.751   0.008   4.769  0.0476 -0.5168  0.1997
 4552SOL    HW114340   1.759   0.023   4.864 -0.5259 -1.1521  0.3567
 4552SOL    HW214341   1.836  -0.027   4.743  0.2378 -0.2557  0.4571
 4553SOL     OW14342   1.937   4.877   1.197  0.3644  0.4210 -0.9372
 4553SOL    HW114343   2.010   4.910   1.145  1.8021 -1.3102 -0.1547
 4553SOL    HW214344   1.964   4.894   1.288 -0.4649  0.2417 -0.6514
 4554SOL     OW14345   5.436   5.134   3.789  0.1310 -0.2910 -0.7139
 4554SOL    HW114346   5.519   5.115   3.834 -1.6851 -1.6565  2.3323
 4554SOL    HW214347   5.422   5.227   3.803  1.0127 -0.0980 -1.0518
 4555SOL     OW14348   4.083   3.728   4.575 -0.1454 -0.1122  0.3614
 4555SOL    HW114349   4.082   3.786   4.498 -3.4545 -0.9310 -0.3498
 4555SOL    HW214350   4.131   3.650   4.546 -0.7930 -0.1433 -0.6750
 4556SOL     OW14351   6.486   4.754   4.005 -0.6659 -0.1021 -0.1609
 4556SOL    HW114352   6.564   4.714   4.043  0.0558  0.5032 -0.9801
 4556SOL    HW214353   6.488   4.727   3.913 -0.9693  0.5941 -0.3745
 4557SOL     OW14354   2.736   3.595   5.996 -0.3306 -0.8272 -0.3749
 4557SOL    HW114355   2.688   3.677   5.988 -0.7069 -0.9677  0.3600
 4557SOL    HW214356   2.682   3.530   5.951 -0.7621 -0.9499  0.2996
 4558SOL     OW14357   4.979   1.000   0.367  1.0108  0.0296  0.5760
 4558SOL    HW114358   5.059   1.017   0.318  0.3340  1.2867 -0.1653
 4558SOL    HW214359   4.963   1.082   0.415  0.3077 -0.2882  0.8991
 4559SOL     OW14360   5.689   3.376   2.523 -0.7474 -0.2489  0.2443
 4559SOL    HW114361   5.604   3.379   2.479 -1.8441 -1.1435  2.1676
 4559SOL    HW214362   5.675   3.317   2.597  1.5743 -0.4251  0.6180
 4560SOL     OW14363   0.652   0.645   1.727  0.4566  0.0286 -0.2979
 4560SOL    HW114364   0.695   0.702   1.663 -0.6837 -0.6378 -1.6903
 4560SOL    HW214365   0.691   0.672   1.811 -0.8139  3.6745 -0.6756
 4561SOL     OW14366   2.451   4.451   5.442 -0.3990  1.0080 -0.0224
 4561SOL    HW114367   2.505   4.384   5.400 -0.8941  1.0663 -0.7707
 4561SOL    HW214368   2.424   4.412   5.525 -1.5038 -0.1325 -0.8848
 4562SOL     OW14369   0.098   3.595   5.984 -0.5464 -0.0038 -0.1993
 4562SOL    HW114370   0.079   3.590   5.890 -0.6655  0.9450 -0.2311
 4562SOL    HW214371   0.013   3.582   6.026 -0.3770 -1.1783 -0.1916
 4563SOL     OW14372   0.448   0.689   3.190  0.1747  0.0273 -0.2230
 4563SOL    HW114373   0.383   0.620   3.175  1.0133 -0.7285 -0.5259
 4563SOL    HW214374   0.508   0.680   3.115 -1.2240  2.9346 -1.8496
 4564SOL     OW14375   5.561   3.674   5.839  0.2236 -0.1028  0.2269
 4564SOL    HW114376   5.627   3.655   5.905  0.1128 -0.6700  0.1830
 4564SOL    HW214377   5.600   3.644   5.757 -0.7462 -2.0716  0.4315
 4565SOL     OW14378   0.345   5.188   5.403  0.8355  0.4014 -0.3009
 4565SOL    HW114379   0.299   5.246   5.464  0.4882 -0.9247  0.7560
 4565SOL    HW214380   0.278   5.125   5.377  1.1471  0.5950 -1.6101
 4566SOL     OW14381   5.910   1.180   2.894  0.2345  0.2402 -0.2674
 4566SOL    HW114382   5.994   1.159   2.935  0.2037 -0.2407 -0.4395
 4566SOL    HW214383   5.847   1.120   2.934 -0.2104  1.1986  0.5072
 4567SOL     OW14384   1.156   4.111   1.992  0.1093 -0.1059  0.0368
 4567SOL    HW114385   1.236   4.062   2.012  2.5220  2.9884 -1.0855
 4567SOL    HW214386   1.182   4.171   1.922 -3.4134  0.7016 -0.7792
 4568SOL     OW14387   4.661   0.202   4.404 -0.4513  0.3917 -0.3303
 4568SOL    HW114388   4.603   0.132   4.374  2.0062 -0.8574 -2.5093
 4568SOL    HW214389   4.730   0.157   4.452  1.5764  1.1145 -2.4061
 4569SOL     OW14390   6.176   0.890   2.065 -0.1318  0.1062  0.0738
 4569SOL    HW114391   6.095   0.840   2.070 -1.5454  2.1835 -0.7277
 4569SOL    HW214392   6.181   0.934   2.150  0.5265 -0.5094  0.3645
 4570SOL     OW14393   0.806   2.298   1.678  0.2788 -0.0487 -0.6914
 4570SOL    HW114394   0.830   2.388   1.656  1.0615 -0.1810 -0.4358
 4570SOL    HW214395   0.735   2.276   1.618  0.2259  0.6642 -0.8992
 4571SOL     OW14396   4.139   5.612   0.728 -0.0456 -0.5978  0.0798
 4571SOL    HW114397   4.080   5.686   0.744 -0.4701 -0.8919 -0.0969
 4571SOL    HW214398   4.165   5.622   0.636 -1.9049 -1.9070 -0.6549
 4572SOL     OW14399   4.713   5.258   4.517 -0.5190  0.5691  0.3852
 4572SOL    HW114400   4.622   5.237   4.537 -0.5714  0.4895  0.0651
 4572SOL    HW214401   4.750   5.287   4.600 -0.3756 -1.0083  0.9109
 4573SOL     OW14402   5.800   3.449   2.123  0.4371  0.4363  0.6603
 4573SOL    HW114403   5.856   3.372   2.115 -0.4748 -0.1441 -0.2769
 4573SOL    HW214404   5.711   3.416   2.116  0.0484  1.6870 -0.9308
 4574SOL     OW14405   3.486   3.131   0.877  0.0938 -0.3923 -0.1450
 4574SOL    HW114406   3.407   3.182   0.858  0.1424 -1.1403 -2.6887
 4574SOL    HW214407   3.463   3.078   0.953 -2.4023 -1.5713 -1.5879
 4575SOL     OW14408   2.347   2.475   2.296  0.4743  0.2663 -0.0586
 4575SOL    HW114409   2.406   2.546   2.323  0.0749  0.8918 -0.8018
 4575SOL    HW214410   2.266   2.492   2.344  0.6303 -0.1553  0.3703
 4576SOL     OW14411   4.657   2.231   6.309  0.3971  0.0974 -0.1524
 4576SOL    HW114412   4.706   2.286   6.248 -0.4436 -1.0964 -1.9758
 4576SOL    HW214413   4.589   2.288   6.344  1.2783  0.9664  0.1715
 4577SOL     OW14414   0.796   5.727   5.143  0.2195  0.7320  0.7291
 4577SOL    HW114415   0.826   5.704   5.055 -0.9173 -0.0216  0.5191
 4577SOL    HW214416   0.860   5.790   5.175  1.0157  0.5041 -0.3817
 4578SOL     OW14417   3.103   1.962   5.064  0.1167 -0.0333 -0.0780
 4578SOL    HW114418   3.096   2.015   4.985  0.8227 -1.0490 -0.8534
 4578SOL    HW214419   3.127   1.875   5.032 -0.7986 -0.7695  1.1702
 4579SOL     OW14420   2.299   0.790   1.811 -0.0012 -0.3822 -0.2112
 4579SOL    HW114421   2.277   0.877   1.777  1.4673  0.4325  0.8381
 4579SOL    HW214422   2.344   0.748   1.738  1.7200  0.7795  0.1111
 4580SOL     OW14423   3.326   0.301   0.997  0.3438  0.1411 -0.2403
 4580SOL    HW114424   3.363   0.244   0.930 -0.0494 -0.4224  0.0162
 4580SOL    HW214425   3.235   0.274   1.004 -0.4566  2.2832 -1.6735
 4581SOL     OW14426   5.071   3.933   4.763  0.5271 -0.5311 -0.0595
 4581SOL    HW114427   5.026   3.973   4.838  2.4259  0.2523  0.7211
 4581SOL    HW214428   5.110   4.007   4.717  0.1282 -1.0963 -1.3360
 4582SOL     OW14429   5.562   1.810   1.672  0.3582  0.5152  0.0634
 4582SOL    HW114430   5.541   1.902   1.691  0.4844  0.7795 -0.9777
 4582SOL    HW214431   5.543   1.763   1.753  1.9813  1.7211  1.2260
 4583SOL     OW14432   3.048   6.237   3.329  0.4043 -0.5720 -0.7471
 4583SOL    HW114433   3.135   6.196   3.336  0.8812  0.6379  1.6995
 4583SOL    HW214434   3.001   6.206   3.407  0.5916  2.8476  0.9355
 4584SOL     OW14435   6.144   5.464   0.754 -0.0287 -0.7789  0.2330
 4584SOL    HW114436   6.204   5.483   0.682  0.2618 -2.7438 -0.0819
 4584SOL    HW214437   6.172   5.524   0.824 -0.2524  1.0903 -1.1887
 4585SOL     OW14438   1.118   2.251   1.312 -0.0605 -0.0564  0.3161
 4585SOL    HW114439   1.167   2.170   1.324  0.1878 -0.3572 -2.2674
 4585SOL    HW214440   1.183   2.314   1.283 -0.8296  0.0430 -1.3104
 4586SOL     OW14441   0.612   0.034   0.211 -0.6155 -0.3164 -0.6100
 4586SOL    HW114442   0.648  -0.043   0.255  0.9659 -0.1950 -1.6316
 4586SOL    HW214443   0.611   0.010   0.118  0.1537  0.9747 -0.9686
 4587SOL     OW14444   4.309   0.876   1.276  0.0165 -0.5524 -0.2174
 4587SOL    HW114445   4.241   0.891   1.342  1.6077  1.2864  1.0787
 4587SOL    HW214446   4.264   0.827   1.207 -2.1448 -1.0253  1.4203
 4588SOL     OW14447   2.832   5.083   4.688 -0.1929  0.5053 -0.0365
 4588SOL    HW114448   2.742   5.052   4.691  0.2282 -0.8046 -0.4692
 4588SOL    HW214449   2.831   5.155   4.626 -1.0967  1.0817  0.6178
 4589SOL     OW14450   0.582   4.653   2.115  0.3784 -0.3525 -0.0135
 4589SOL    HW114451   0.615   4.567   2.141 -0.4879 -0.7459 -0.1589
 4589SOL    HW214452   0.489   4.650   2.137  0.4469  0.7537  0.4879
 4590SOL     OW14453   1.529   5.756   5.002 -0.4087  0.2041  0.0526
 4590SOL    HW114454   1.481   5.776   5.082 -1.1865 -0.6820 -0.1773
 4590SOL    HW214455   1.559   5.841   4.970  0.3808  0.5268  1.5574
 4591SOL     OW14456   1.639   4.244   4.561 -0.3810  0.1292 -0.1000
 4591SOL    HW114457   1.727   4.271   4.536 -0.5477 -0.3031 -1.2143
 4591SOL    HW214458   1.582   4.313   4.527 -0.5566 -0.1368 -0.3586
 4592SOL     OW14459   2.063   0.706   1.517 -0.2908  0.2254 -0.4950
 4592SOL    HW114460   2.077   0.765   1.591  0.7214 -2.2600  1.4534
 4592SOL    HW214461   1.968   0.699   1.510 -0.4577 -0.4118  1.4806
 4593SOL     OW14462   3.085   2.397   5.389 -0.0530  0.0321 -0.4188
 4593SOL    HW114463   3.125   2.425   5.471 -0.2447  1.9261 -0.9261
 4593SOL    HW214464   3.152   2.412   5.323 -1.0961  2.0947 -1.1014
 4594SOL     OW14465   0.073   2.058   1.693  0.3117 -0.3725 -0.2075
 4594SOL    HW114466   0.149   2.016   1.734  0.1061  0.7606  1.4182
 4594SOL    HW214467   0.106   2.093   1.611  1.1958 -1.0906 -0.1745
 4595SOL     OW14468   4.326   0.078   4.946 -0.5630  0.6011 -0.1914
 4595SOL    HW114469   4.300   0.027   4.870 -1.6999 -0.5920  0.9316
 4595SOL    HW214470   4.324   0.015   5.019 -1.9851  2.1890  1.2554
 4596SOL     OW14471   4.358   2.413   4.581  0.1429  0.3987 -0.2550
 4596SOL    HW114472   4.285   2.390   4.639  1.6686 -1.8081  0.9385
 4596SOL    HW214473   4.366   2.338   4.522  1.1951  0.7840 -0.6269
 4597SOL     OW14474   4.566   0.901   3.201 -0.3382 -0.1730 -0.0768
 4597SOL    HW114475   4.631   0.904   3.271 -1.3112 -0.1231  0.8450
 4597SOL    HW214476   4.532   0.990   3.196  1.2178  0.3770 -2.1008
 4598SOL     OW14477   4.449   1.148   2.274 -0.0936 -1.0564  0.4096
 4598SOL    HW114478   4.521   1.167   2.334  0.8145 -1.8656 -0.3959
 4598SOL    HW214479   4.390   1.090   2.323  0.2237 -1.0521  0.7920
 4599SOL     OW14480   2.221   0.522   1.622  0.0572  0.1697 -0.5834
 4599SOL    HW114481   2.208   0.596   1.563 -1.1993  0.5868  0.1629
 4599SOL    HW214482   2.312   0.497   1.611 -0.0503  0.4716 -2.4130
 4600SOL     OW14483   0.453   4.648   4.000  0.0306 -0.0109 -0.3454
 4600SOL    HW114484   0.360   4.648   4.024  0.1338 -0.2499  0.0621
 4600SOL    HW214485   0.482   4.559   4.019 -0.1986 -0.6195 -2.6205
 4601SOL     OW14486   4.402   0.760   5.057  0.5184 -0.0958 -0.3185
 4601SOL    HW114487   4.371   0.848   5.080  1.0131 -0.0114  0.0534
 4601SOL    HW214488   4.470   0.741   5.122  2.0160  0.1630 -1.7383
 4602SOL     OW14489   4.350   5.045   3.091 -0.1371 -0.0914 -0.2460
 4602SOL    HW114490   4.323   4.954   3.077  0.4600 -0.5945  1.5916
 4602SOL    HW214491   4.430   5.054   3.040 -0.5750 -0.3706 -1.0015
 4603SOL     OW14492   3.409   3.922   5.161 -0.3453  0.8435 -0.0232
 4603SOL    HW114493   3.488   3.952   5.206  0.9389 -0.8511 -1.0199
 4603SOL    HW214494   3.345   3.908   5.231  0.7522  0.7268  0.9858
 4604SOL     OW14495   4.204   2.619   0.795  0.0227  0.1965 -0.0515
 4604SOL    HW114496   4.171   2.551   0.854 -1.4005  0.0509 -0.9498
 4604SOL    HW214497   4.182   2.701   0.839 -3.5698  0.1899 -1.4539
 4605SOL     OW14498   5.104   5.570   3.496 -0.6263  0.3728  0.2098
 4605SOL    HW114499   5.059   5.632   3.439 -1.8352  0.7102  1.4693
 4605SOL    HW214500   5.138   5.624   3.567  2.1255  0.1741 -0.8334
 4606SOL     OW14501   2.131   5.615   0.570 -0.3605 -0.0960 -0.4850
 4606SOL    HW114502   2.054   5.568   0.539 -0.8231  0.1811  0.2159
 4606SOL    HW214503   2.155   5.673   0.497 -0.8917 -0.0992 -0.6665
 4607SOL     OW14504   2.495   5.805   4.991 -0.3362  0.1077 -0.2050
 4607SOL    HW114505   2.479   5.843   4.905  1.1633 -0.8080 -0.9479
 4607SOL    HW214506   2.590   5.795   4.995 -0.4847 -1.1341  0.9970
 4608SOL     OW14507   1.164   1.302   3.518  0.1104  0.7080  0.4712
 4608SOL    HW114508   1.197   1.392   3.508 -0.7332  1.4325  3.3415
 4608SOL    HW214509   1.128   1.299   3.607 -1.3629 -2.0270 -0.1036
 4609SOL     OW14510   4.072   0.101   2.074  0.2251  0.0218 -0.2173
 4609SOL    HW114511   4.138   0.136   2.135  0.7136 -1.7396  0.3072
 4609SOL    HW214512   4.124   0.060   2.005 -0.3214 -0.8996 -0.0865
 4610SOL     OW14513   6.402   3.378   4.476  0.1599  0.0187 -0.0483
 4610SOL    HW114514   6.339   3.307   4.469 -1.0185  0.9387  0.8060
 4610SOL    HW214515   6.487   3.335   4.474 -0.4985 -1.3231 -0.4155
 4611SOL     OW14516   1.602   0.826   0.689 -0.3913 -0.3164 -0.0398
 4611SOL    HW114517   1.588   0.740   0.649 -0.5473 -0.9572  1.3110
 4611SOL    HW214518   1.678   0.813   0.746 -0.4207  0.4462  0.1800
 4612SOL     OW14519   3.017   1.005   6.273 -0.5056 -0.0888  0.2593
 4612SOL    HW114520   3.019   1.083   6.218 -2.1494 -0.1485  0.0623
 4612SOL    HW214521   3.051   1.034   6.357 -0.1124  0.5719 -0.1228
 4613SOL     OW14522   4.031   4.926   1.079 -0.8301  0.5386  0.0755
 4613SOL    HW114523   3.941   4.939   1.051 -1.7884 -3.8247  0.4671
 4613SOL    HW214524   4.027   4.926   1.175 -0.0829  1.6872  0.1348
 4614SOL     OW14525   5.406   5.834   1.783  0.7887  0.9056  0.2508
 4614SOL    HW114526   5.375   5.755   1.827  1.3036  0.5578  0.0037
 4614SOL    HW214527   5.475   5.803   1.724  1.8268  1.6839  1.0048
 4615SOL     OW14528   3.157   6.221   0.362  0.8876 -0.8320  0.1951
 4615SOL    HW114529   3.132   6.185   0.277  2.3919  0.2758 -0.7613
 4615SOL    HW214530   3.101   6.175   0.424 -1.0143 -0.9185 -1.4688
 4616SOL     OW14531   1.992   4.796   2.986 -0.4566  0.4424 -0.0191
 4616SOL    HW114532   1.907   4.776   2.948  0.0352 -1.8293 -0.0853
 4616SOL    HW214533   1.978   4.793   3.081 -0.5396  0.5116 -0.0293
 4617SOL     OW14534   5.711   6.216   1.569  0.2631  0.0094  0.5671
 4617SOL    HW114535   5.710   6.233   1.474 -1.0970  1.7377  0.8397
 4617SOL    HW214536   5.793   6.254   1.599  1.0571 -1.1976  0.0110
 4618SOL     OW14537   2.496   3.876   3.317 -0.0949  0.2410 -0.0744
 4618SOL    HW114538   2.453   3.889   3.233  0.9784  0.2479 -0.6371
 4618SOL    HW214539   2.425   3.885   3.382 -0.7891  1.0147 -0.9142
 4619SOL     OW14540   3.891   5.755   3.265 -0.1952 -0.0539 -0.4240
 4619SOL    HW114541   3.840   5.694   3.211 -2.3471  0.4243  0.9710
 4619SOL    HW214542   3.841   5.764   3.345  1.6729  1.1826  0.6829
 4620SOL     OW14543   0.190   4.713   1.196 -0.6066  0.2218  0.0971
 4620SOL    HW114544   0.120   4.680   1.252  0.0496 -0.4430  0.5338
 4620SOL    HW214545   0.241   4.635   1.173  0.2718  0.7676  0.1736
 4621SOL     OW14546   0.081   4.636   6.430  0.2361 -0.0727  0.5324
 4621SOL    HW114547   0.012   4.700   6.448 -0.5556 -0.4739 -0.9448
 4621SOL    HW214548   0.091   4.638   6.334  2.3330  0.0392  0.7060
 4622SOL     OW14549   3.165   0.972   1.116 -0.0940  0.5474 -0.2084
 4622SOL    HW114550   3.086   0.930   1.082  0.5462 -2.3089  1.5354
 4622SOL    HW214551   3.233   0.951   1.053 -0.5527  2.8186 -1.5919
 4623SOL     OW14552   1.161   1.200   5.616 -0.0494  0.2405  0.1765
 4623SOL    HW114553   1.115   1.150   5.549 -1.4865  2.5997 -0.7417
 4623SOL    HW214554   1.143   1.154   5.698 -0.3158 -1.3338 -0.7239
 4624SOL     OW14555   4.615   2.598   3.202  0.3435 -0.0344 -0.1877
 4624SOL    HW114556   4.707   2.607   3.229  0.3970 -0.2656 -0.2884
 4624SOL    HW214557   4.570   2.571   3.283  0.2340  0.8188  0.0400
 4625SOL     OW14558   0.467   5.322   2.572 -0.4036  0.3401  0.7602
 4625SOL    HW114559   0.454   5.339   2.665  1.5726  0.0991  1.1341
 4625SOL    HW214560   0.484   5.408   2.534 -0.2821  0.3372  0.8059
 4626SOL     OW14561   4.189   3.944   0.087  0.2394 -0.2321  0.4397
 4626SOL    HW114562   4.257   4.011   0.092 -1.1648  1.2402  1.0533
 4626SOL    HW214563   4.170   3.936  -0.006  1.2748 -0.7013  0.2605
 4627SOL     OW14564   3.723   2.836   1.184  0.3841 -0.3426  0.0380
 4627SOL    HW114565   3.691   2.761   1.233  1.2517 -0.2616  0.7526
 4627SOL    HW214566   3.811   2.811   1.155 -0.6954 -1.0762 -3.0121
 4628SOL     OW14567   5.713   3.828   5.081  0.0657  0.3255 -0.0367
 4628SOL    HW114568   5.633   3.831   5.028 -0.2761 -1.8038  0.2718
 4628SOL    HW214569   5.774   3.886   5.035 -1.0623  0.5726 -1.2920
 4629SOL     OW14570   6.492   2.543   2.535 -0.2839 -0.1699 -0.1005
 4629SOL    HW114571   6.468   2.452   2.521  1.1542 -0.4660 -0.8350
 4629SOL    HW214572   6.551   2.542   2.610  0.5240  0.0001 -0.7151
 4630SOL     OW14573   1.008   1.121   6.448 -0.4665 -0.1109  0.1517
 4630SOL    HW114574   1.090   1.094   6.407 -1.4961 -1.1650 -1.3509
 4630SOL    HW214575   0.940   1.081   6.393 -2.0370  2.0403  0.3879
 4631SOL     OW14576   4.794   3.500   3.202  0.0506 -0.5583 -0.1747
 4631SOL    HW114577   4.720   3.446   3.231  1.0952 -1.9381  0.0338
 4631SOL    HW214578   4.788   3.500   3.106 -2.4043  2.5790 -0.2046
 4632SOL     OW14579   2.555   0.096   3.109 -0.1455 -0.2666 -0.3020
 4632SOL    HW114580   2.606   0.017   3.090  0.7302  0.8107 -2.8989
 4632SOL    HW214581   2.618   0.157   3.146 -0.0629  0.2584 -1.2784
 4633SOL     OW14582   5.895   6.391   2.147 -0.9760  1.1695 -0.3141
 4633SOL    HW114583   5.972   6.435   2.110  0.8266 -1.2094  0.3214
 4633SOL    HW214584   5.920   6.371   2.237 -2.6962  1.0658  0.1745
 4634SOL     OW14585   3.798   5.917   4.321  0.3707 -0.2583  0.2695
 4634SOL    HW114586   3.794   5.832   4.278 -2.4988 -0.5951  1.0481
 4634SOL    HW214587   3.818   5.897   4.412  0.8000  0.0092  0.2383
 4635SOL     OW14588   1.489   1.198   2.574  0.2344  0.6275  0.2649
 4635SOL    HW114589   1.515   1.135   2.507 -1.1063  0.2210  0.0904
 4635SOL    HW214590   1.568   1.247   2.594  0.8050  0.3090 -1.1475
 4636SOL     OW14591   5.910   0.142   5.176  0.3340  0.1154  0.3820
 4636SOL    HW114592   5.820   0.116   5.157 -0.9076  3.5007  1.0880
 4636SOL    HW214593   5.908   0.175   5.266  2.1936  0.6701  0.2630
 4637SOL     OW14594   2.090   3.317   4.663 -0.4117 -0.9967 -0.5269
 4637SOL    HW114595   2.041   3.235   4.659  0.0455 -1.3604  0.9065
 4637SOL    HW214596   2.060   3.366   4.587 -3.9420 -0.6888  0.8802
 4638SOL     OW14597   1.566   5.512   5.304  0.9871 -0.1047  0.2070
 4638SOL    HW114598   1.619   5.574   5.355  0.8189 -0.4629  0.8305
 4638SOL    HW214599   1.515   5.464   5.370  1.5570 -1.3333 -0.2234
 4639SOL     OW14600   0.814   3.980   2.533  0.3065 -0.7010 -0.1537
 4639SOL    HW114601   0.807   3.923   2.609 -0.4522 -0.4508 -0.0206
 4639SOL    HW214602   0.732   3.966   2.485  0.0945  0.2946 -0.0990
 4640SOL     OW14603   2.986   3.761   4.276  0.3442 -0.5108  0.2254
 4640SOL    HW114604   2.944   3.689   4.323  1.9377 -0.3320  2.0686
 4640SOL    HW214605   2.960   3.840   4.324  1.9455 -0.3199  0.8726
 4641SOL     OW14606   0.580   2.683   3.075 -0.4991  0.1494  0.3156
 4641SOL    HW114607   0.508   2.714   3.129  0.5111  0.4272  1.5504
 4641SOL    HW214608   0.624   2.762   3.045 -0.7219 -0.0163 -0.4914
 4642SOL     OW14609   4.373   5.105   0.633 -0.2534 -0.1591  0.2237
 4642SOL    HW114610   4.395   5.090   0.725 -2.2374  0.5561  0.8479
 4642SOL    HW214611   4.397   5.197   0.617  0.9555 -0.5359 -0.2766
 4643SOL     OW14612   0.733   3.489   5.996 -0.0057 -0.3533  0.2597
 4643SOL    HW114613   0.815   3.461   6.036  0.2798  0.0766 -0.0130
 4643SOL    HW214614   0.684   3.530   6.067  0.8772  1.2370  0.0166
 4644SOL     OW14615   2.780   3.398   0.119  0.0015  0.2866  0.0527
 4644SOL    HW114616   2.739   3.348   0.190  1.5690 -0.7165  0.3152
 4644SOL    HW214617   2.793   3.333   0.049  1.8429  0.3342  0.2985
 4645SOL     OW14618   0.127   2.269   2.937 -0.5172  0.4289  0.5405
 4645SOL    HW114619   0.140   2.178   2.965  1.9134  0.3549 -0.5503
 4645SOL    HW214620   0.105   2.263   2.844 -0.4450  0.9548  0.4845
 4646SOL     OW14621   2.065   6.496   1.244 -0.2932 -0.0477  0.1172
 4646SOL    HW114622   2.159   6.512   1.247  0.0144 -1.7028  0.1231
 4646SOL    HW214623   2.047   6.474   1.152 -0.8016  0.8916 -0.0198
 4647SOL     OW14624   3.128   3.348   1.849 -0.1064 -0.0436  1.0973
 4647SOL    HW114625   3.119   3.407   1.924 -0.9336  1.0945  0.1567
 4647SOL    HW214626   3.107   3.261   1.883 -1.1514  0.5564  2.0381
 4648SOL     OW14627   3.028   0.987   0.514  0.0518 -0.3278 -0.1182
 4648SOL    HW114628   3.063   1.043   0.444 -0.9905  1.4412  0.6966
 4648SOL    HW214629   2.976   0.921   0.468  1.6301 -0.9241 -1.1317
 4649SOL     OW14630   6.092   1.490   5.308  0.1404 -0.3505 -0.3063
 4649SOL    HW114631   6.058   1.401   5.316 -1.5549  0.2146 -0.8475
 4649SOL    HW214632   6.037   1.531   5.242 -0.0054  1.5324  0.9173
 4650SOL     OW14633   5.727   6.250   3.468  0.7674  0.3617 -0.3775
 4650SOL    HW114634   5.813   6.268   3.506  0.3930 -0.6902  1.0630
 4650SOL    HW214635   5.741   6.172   3.414  0.7503  0.2699 -0.2499
 4651SOL     OW14636   2.058   5.638   5.511  0.0509 -0.7857  0.3595
 4651SOL    HW114637   2.138   5.614   5.465  0.4522 -0.1248  0.6981
 4651SOL    HW214638   1.987   5.610   5.453  0.5137 -1.6712  0.2028
 4652SOL     OW14639   0.031   3.640   5.650  0.0691 -0.8039 -0.1678
 4652SOL    HW114640   0.061   3.671   5.565  0.5549 -0.2818  0.1844
 4652SOL    HW214641  -0.009   3.717   5.691  2.2651 -0.2648  1.1612
 4653SOL     OW14642   3.219   4.466   1.081 -0.4260  0.0092  0.0307
 4653SOL    HW114643   3.250   4.375   1.081 -0.4017  0.0174 -0.0495
 4653SOL    HW214644   3.242   4.499   0.994  0.1391  0.2893  0.2841
 4654SOL     OW14645   3.376   2.923   6.273 -0.1508  0.2467  0.1427
 4654SOL    HW114646   3.367   2.844   6.327  1.3006  0.6506  1.0097
 4654SOL    HW214647   3.397   2.992   6.335  0.1349  1.0105 -0.7862
 4655SOL     OW14648   4.274   0.756   3.803 -0.7086 -0.0177 -0.2608
 4655SOL    HW114649   4.320   0.695   3.746 -1.2377  0.5561 -1.3143
 4655SOL    HW214650   4.192   0.711   3.825 -1.0752  0.2945 -0.9934
 4656SOL     OW14651   3.054   6.371   1.753 -0.0324 -0.7614  0.2191
 4656SOL    HW114652   3.108   6.427   1.809 -0.7842  0.0278  0.1826
 4656SOL    HW214653   3.113   6.303   1.722  1.7374  1.5946 -2.0695
 4657SOL     OW14654   4.831   1.971   6.362  0.0015  0.4454 -0.1895
 4657SOL    HW114655   4.907   2.025   6.386 -0.6890  2.0047 -1.2981
 4657SOL    HW214656   4.845   1.950   6.270 -0.9111  0.7582 -0.4060
 4658SOL     OW14657   1.093   1.425   6.306 -0.2072  0.5823 -0.0593
 4658SOL    HW114658   1.186   1.411   6.289  0.2149  1.9448  0.9792
 4658SOL    HW214659   1.057   1.456   6.222  0.0684 -0.7660 -0.6995
 4659SOL     OW14660   0.562   5.494   3.614  0.1803 -0.1887 -0.5548
 4659SOL    HW114661   0.498   5.434   3.574  0.7961 -0.0821 -1.7655
 4659SOL    HW214662   0.644   5.444   3.615  0.5788  0.4292 -1.0943
 4660SOL     OW14663   3.761   6.473   2.615  0.0420  0.0645 -0.1468
 4660SOL    HW114664   3.781   6.556   2.572 -0.7554  0.4297  0.1615
 4660SOL    HW214665   3.771   6.408   2.545 -0.3925  0.5528 -0.6843
 4661SOL     OW14666   1.622   1.195   6.462 -0.5157  0.2513  0.0942
 4661SOL    HW114667   1.629   1.284   6.496 -2.1835 -0.3243  2.1848
 4661SOL    HW214668   1.546   1.197   6.404 -0.3229  0.2839 -0.1555
 4662SOL     OW14669   1.953   4.840   4.229  0.1518  0.7882  0.7369
 4662SOL    HW114670   1.885   4.810   4.170 -1.4815  0.1841  2.8258
 4662SOL    HW214671   1.997   4.910   4.181 -0.3521 -0.4013 -1.5839
 4663SOL     OW14672   0.343   2.946   3.044  0.1002 -0.4773  0.2891
 4663SOL    HW114673   0.419   2.974   3.095  0.9261 -2.2129  0.0770
 4663SOL    HW214674   0.378   2.932   2.955 -0.6061 -0.6720  0.0361
 4664SOL     OW14675   3.947   5.439   3.223 -0.1201 -0.2846 -0.0526
 4664SOL    HW114676   3.875   5.489   3.184  0.2045 -0.4388 -0.8880
 4664SOL    HW214677   3.964   5.369   3.160  0.8764 -0.1446  0.0357
 4665SOL     OW14678   6.476   3.677   1.841  0.6894 -0.2215  0.3240
 4665SOL    HW114679   6.392   3.718   1.863  1.6229  1.3991  1.0892
 4665SOL    HW214680   6.457   3.584   1.835 -1.1407  0.1042  0.5752
 4666SOL     OW14681   0.887   1.601   6.447 -0.6037  0.7798 -0.1194
 4666SOL    HW114682   0.791   1.597   6.443 -0.7573  3.5545 -1.8264
 4666SOL    HW214683   0.916   1.541   6.378 -1.1163  0.4920 -0.0941
 4667SOL     OW14684   3.571   4.731   2.247  0.0424  0.2433 -0.2872
 4667SOL    HW114685   3.517   4.700   2.173  1.5936 -1.6028 -0.7101
 4667SOL    HW214686   3.661   4.727   2.214  0.6781  0.5209  1.3447
 4668SOL     OW14687   2.051   3.534   6.187 -0.1706 -0.0032  0.5783
 4668SOL    HW114688   1.957   3.520   6.178 -0.6031  1.3504  2.4179
 4668SOL    HW214689   2.083   3.543   6.097 -1.5918 -1.5324 -0.1281
 4669SOL     OW14690   4.323   6.312   2.935 -0.4662  0.4785 -0.0201
 4669SOL    HW114691   4.328   6.218   2.919 -0.1438  0.2944  1.0588
 4669SOL    HW214692   4.318   6.319   3.031 -1.0171  1.5376 -0.1174
 4670SOL     OW14693   2.993   5.433   4.110  0.1193 -0.2361 -0.4608
 4670SOL    HW114694   2.968   5.410   4.021  0.6240 -0.7046 -0.4827
 4670SOL    HW214695   3.035   5.518   4.102 -0.4250  0.0289 -0.5751
 4671SOL     OW14696   0.116   6.219   3.259 -0.2151 -0.0545 -0.0228
 4671SOL    HW114697   0.093   6.129   3.281  0.4557 -0.1945  0.1438
 4671SOL    HW214698   0.174   6.246   3.330 -0.3363  0.4745 -0.1257
 4672SOL     OW14699   2.385   2.622   3.577 -0.5455 -0.4473 -0.0894
 4672SOL    HW114700   2.460   2.645   3.522 -1.4120  0.2643 -1.0064
 4672SOL    HW214701   2.360   2.705   3.619 -0.7350 -0.7120  0.3356
 4673SOL     OW14702   1.246   1.639   2.381 -0.2276 -0.4794 -0.9145
 4673SOL    HW114703   1.252   1.724   2.424  0.9132 -0.5103 -0.9685
 4673SOL    HW214704   1.266   1.576   2.451  0.7310 -0.5816 -1.2593
 4674SOL     OW14705   0.414   3.032   6.161 -0.2816 -0.1335  0.1505
 4674SOL    HW114706   0.332   3.072   6.132 -0.8194 -1.2850  0.0371
 4674SOL    HW214707   0.464   3.018   6.081  0.7707  2.0687  0.3489
 4675SOL     OW14708   0.151   0.211   1.516 -0.1472 -0.0028 -0.5333
 4675SOL    HW114709   0.129   0.302   1.538  2.1247  0.1941  1.2507
 4675SOL    HW214710   0.123   0.160   1.592  1.3434 -0.3449 -0.1918
 4676SOL     OW14711   1.537   0.847   3.053 -0.0971  0.2198  0.1921
 4676SOL    HW114712   1.519   0.889   3.137  1.6802 -0.5012  1.0005
 4676SOL    HW214713   1.481   0.770   3.052 -1.5809  1.2623 -0.2100
 4677SOL     OW14714   1.377   5.767   3.896  0.1060 -0.3562  0.1950
 4677SOL    HW114715   1.425   5.691   3.861  0.4453 -0.3161  0.5605
 4677SOL    HW214716   1.445   5.822   3.935  0.0214  0.7411 -1.1328
 4678SOL     OW14717   5.111   0.358   0.398  0.3225  0.3079  0.0671
 4678SOL    HW114718   5.033   0.343   0.450 -1.5464  3.6982 -1.4140
 4678SOL    HW214719   5.081   0.351   0.307  2.4699 -1.1520 -0.6064
 4679SOL     OW14720   1.159   2.626   4.024  0.5910 -0.6893 -0.3275
 4679SOL    HW114721   1.149   2.676   4.105  0.2486 -2.3151  0.6950
 4679SOL    HW214722   1.207   2.684   3.965  1.3505  0.3459  1.2333
 4680SOL     OW14723   4.281   1.285   6.461  0.8273 -0.2537 -0.6584
 4680SOL    HW114724   4.252   1.288   6.552  1.8257 -0.5016 -0.3219
 4680SOL    HW214725   4.283   1.191   6.440  1.1117 -0.2255 -0.7625
 4681SOL     OW14726   6.236   3.166   4.146 -0.4628 -0.5069  0.2174
 4681SOL    HW114727   6.245   3.142   4.054 -0.1698  1.8919 -0.4536
 4681SOL    HW214728   6.313   3.129   4.189  2.2130  2.4576 -1.5387
 4682SOL     OW14729   3.292   0.105   2.798 -0.3358  0.3714 -1.2004
 4682SOL    HW114730   3.380   0.119   2.764  0.2189 -0.9370 -0.3632
 4682SOL    HW214731   3.264   0.022   2.760 -0.5608 -0.0194 -0.2013
 4683SOL     OW14732   0.766   3.167   5.177 -0.3780 -0.6329  0.9717
 4683SOL    HW114733   0.784   3.191   5.268 -0.6345 -1.6221  1.2926
 4683SOL    HW214734   0.743   3.074   5.180  0.7950 -1.0003 -0.2687
 4684SOL     OW14735   0.020   2.819   0.242  0.6319 -0.9151  0.1684
 4684SOL    HW114736  -0.045   2.842   0.175  1.0558 -1.1644 -0.3344
 4684SOL    HW214737  -0.026   2.833   0.325  0.1613 -0.4072 -0.1652
 4685SOL     OW14738   6.248   4.500   1.554 -0.0543 -0.7567 -0.2655
 4685SOL    HW114739   6.276   4.569   1.614  1.6798 -1.7878  0.1593
 4685SOL    HW214740   6.158   4.524   1.530  0.5496  1.7042 -0.2495
 4686SOL     OW14741   2.762   5.428   4.823 -0.1559 -0.3522  0.5285
 4686SOL    HW114742   2.782   5.402   4.732  1.0254 -1.1183  0.9778
 4686SOL    HW214743   2.827   5.381   4.875 -0.0999  0.9568  1.6817
 4687SOL     OW14744   0.429   3.321   1.669 -0.0496  0.2229 -0.0124
 4687SOL    HW114745   0.480   3.294   1.592  0.7406 -0.5817  0.7727
 4687SOL    HW214746   0.347   3.272   1.661 -0.0045  0.1987 -0.3689
 4688SOL     OW14747   1.990   2.025   1.060 -0.1918  0.2656 -0.1385
 4688SOL    HW114748   1.925   2.076   1.012 -0.2781  0.0958 -0.2043
 4688SOL    HW214749   2.066   2.083   1.068 -0.2450  0.3590 -0.3146
 4689SOL     OW14750   5.097   2.398   2.394  0.1848 -0.1184 -0.2635
 4689SOL    HW114751   5.169   2.432   2.447  0.1573  0.1670 -0.4061
 4689SOL    HW214752   5.139   2.344   2.327  0.1412 -1.5749  0.8374
 4690SOL     OW14753   2.762   1.761   5.899 -0.1413  0.0831 -0.4365
 4690SOL    HW114754   2.790   1.705   5.971  1.5370  1.6532  0.2310
 4690SOL    HW214755   2.669   1.743   5.888 -0.8181  0.7606  3.1077
 4691SOL     OW14756   0.891   0.859   5.662 -0.4061 -0.2227  0.0835
 4691SOL    HW114757   0.938   0.843   5.581 -0.2273 -0.2409  0.1909
 4691SOL    HW214758   0.865   0.951   5.658  0.5374  0.0685  0.4927
 4692SOL     OW14759   0.929   0.175   2.705 -0.1479  0.7962 -0.1664
 4692SOL    HW114760   1.022   0.180   2.682  1.0431  1.8003  3.9540
 4692SOL    HW214761   0.897   0.098   2.658  3.5102 -1.2187  0.2148
 4693SOL     OW14762   0.198   5.818   3.509 -0.0186 -0.2787 -0.0501
 4693SOL    HW114763   0.181   5.837   3.417 -1.1720 -0.0888  0.1795
 4693SOL    HW214764   0.282   5.772   3.509 -0.5809 -1.3858 -1.3222
 4694SOL     OW14765   3.440   4.739   1.757 -0.0186  0.2410 -0.0078
 4694SOL    HW114766   3.481   4.750   1.671 -0.8782  1.5221 -0.2764
 4694SOL    HW214767   3.370   4.675   1.742  0.6277 -0.4851  0.0261
 4695SOL     OW14768   6.012   3.802   0.350  0.1437  0.1251 -0.7719
 4695SOL    HW114769   5.959   3.722   0.352 -0.5884  0.6141  0.0699
 4695SOL    HW214770   5.951   3.870   0.320 -0.6971  1.3358  3.1045
 4696SOL     OW14771   1.511   3.234   5.844 -0.3157 -0.2442  0.0563
 4696SOL    HW114772   1.550   3.314   5.880 -2.2086  1.6060 -1.7385
 4696SOL    HW214773   1.474   3.189   5.920  0.8137  0.5467  1.1131
 4697SOL     OW14774   5.100   1.717   1.670 -0.1141  0.2595  0.0253
 4697SOL    HW114775   5.120   1.789   1.729  1.2311 -0.0662 -0.0085
 4697SOL    HW214776   5.179   1.705   1.618 -0.6312 -0.6575 -0.5807
 4698SOL     OW14777   6.368   5.154   2.200  0.0482 -0.2382  0.7599
 4698SOL    HW114778   6.330   5.066   2.196 -0.2735 -0.0631 -0.5879
 4698SOL    HW214779   6.449   5.142   2.250  0.2132 -1.3798  0.2645
 4699SOL     OW14780   2.603   3.627   4.472 -0.3930  0.2601 -0.1470
 4699SOL    HW114781   2.611   3.699   4.410  0.9400 -0.8028 -1.2712
 4699SOL    HW214782   2.693   3.603   4.494 -0.8010 -0.9441  0.3262
 4700SOL     OW14783   4.349   4.682   3.973 -0.3153 -0.0193  0.1840
 4700SOL    HW114784   4.432   4.636   3.975  0.5022  1.4175  0.4845
 4700SOL    HW214785   4.315   4.666   3.884  1.2301  0.9651 -0.6288
 4701SOL     OW14786   5.131   0.225   3.201 -0.0242  0.2809  0.1872
 4701SOL    HW114787   5.152   0.140   3.240  1.0803  0.4490 -0.0272
 4701SOL    HW214788   5.046   0.210   3.158  1.0718 -1.3065 -1.5855
 4702SOL     OW14789   2.691   2.670   2.694 -0.3166  1.0677 -0.0053
 4702SOL    HW114790   2.696   2.623   2.611  0.3799  0.6322  0.2689
 4702SOL    HW214791   2.779   2.661   2.732 -0.6839  1.0698  0.8790
 4703SOL     OW14792   1.773   1.396   3.037 -0.4979  0.6793 -0.4625
 4703SOL    HW114793   1.838   1.327   3.032  2.4290  3.2238 -0.3294
 4703SOL    HW214794   1.707   1.363   3.098  2.2679 -0.8740  1.9360
 4704SOL     OW14795   5.788   2.453   1.311 -0.3637  0.5242 -0.4957
 4704SOL    HW114796   5.790   2.396   1.235 -4.1776 -0.5657  0.0117
 4704SOL    HW214797   5.736   2.529   1.283  0.6603  1.5213  0.2078
 4705SOL     OW14798   3.197   0.900   5.310  0.2731  0.7233 -0.0820
 4705SOL    HW114799   3.116   0.872   5.353  0.2176 -0.7270 -1.0653
 4705SOL    HW214800   3.251   0.821   5.308  1.3105  1.4294 -0.3377
 4706SOL     OW14801   3.099   4.521   4.940  0.1499 -0.2918  0.6339
 4706SOL    HW114802   3.194   4.512   4.948  0.4623  1.6136 -0.3800
 4706SOL    HW214803   3.078   4.483   4.854 -0.0516 -0.9072  0.9489
 4707SOL     OW14804   3.665   5.449   0.510 -0.0382  0.4201  0.1956
 4707SOL    HW114805   3.586   5.471   0.461  0.3646  1.1205 -0.1712
 4707SOL    HW214806   3.737   5.474   0.452  0.4916  3.0281  1.7790
 4708SOL     OW14807   3.779   3.028   4.226 -0.2174 -0.0554  0.4842
 4708SOL    HW114808   3.733   3.049   4.308 -0.0459 -0.9471  0.8123
 4708SOL    HW214809   3.838   2.957   4.249  0.6789  0.4695 -0.1511
 4709SOL     OW14810   4.235   3.461   5.003 -0.9257  0.4097 -0.3194
 4709SOL    HW114811   4.167   3.486   5.066 -0.3906  2.2258 -0.4084
 4709SOL    HW214812   4.230   3.528   4.935  1.6564  1.2848  0.2270
 4710SOL     OW14813   2.070   6.294   4.318  0.6002 -0.2074  0.0269
 4710SOL    HW114814   2.054   6.374   4.268 -1.6780 -0.3929  0.3526
 4710SOL    HW214815   2.003   6.295   4.388  0.9630 -2.0316  0.4626
 4711SOL     OW14816   0.873   3.553   4.058  0.7057 -0.2734  0.0105
 4711SOL    HW114817   0.796   3.508   4.024 -0.4161  0.2353  1.7767
 4711SOL    HW214818   0.936   3.550   3.986 -1.1847 -0.1128 -1.7282
 4712SOL     OW14819   4.943   0.572   1.695 -0.7223 -0.2350  0.0675
 4712SOL    HW114820   5.028   0.577   1.652 -0.3112 -0.3061  0.8686
 4712SOL    HW214821   4.906   0.660   1.684  0.0276  0.1873  0.8860
 4713SOL     OW14822   2.986   6.254   3.994  0.2974  0.3387  0.0116
 4713SOL    HW114823   3.066   6.257   4.047 -0.2970 -0.1165  0.9489
 4713SOL    HW214824   2.922   6.305   4.044  0.1114  1.0872 -0.9484
 4714SOL     OW14825   1.436   0.793   5.414  0.3667  0.0878 -0.3294
 4714SOL    HW114826   1.459   0.868   5.359 -0.0811  1.4362  1.2492
 4714SOL    HW214827   1.350   0.765   5.381 -0.0842  1.1364 -0.0778
 4715SOL     OW14828   0.970   6.077   0.572 -0.0228  0.6441  0.5249
 4715SOL    HW114829   0.957   6.169   0.549  3.3558  1.7050  2.1355
 4715SOL    HW214830   0.909   6.062   0.645 -0.8035  1.4971  0.0705
 4716SOL     OW14831   1.882   0.519   3.557  0.2245 -0.3260  0.4565
 4716SOL    HW114832   1.905   0.564   3.476  0.8452 -0.9900  0.2501
 4716SOL    HW214833   1.966   0.488   3.592 -0.2326 -1.9356  0.2190
 4717SOL     OW14834   0.309   6.338   5.526 -0.2321  0.4406  0.2630
 4717SOL    HW114835   0.401   6.354   5.506 -0.2857  0.9548  0.4070
 4717SOL    HW214836   0.303   6.344   5.621 -0.2571 -0.4697  0.3231
 4718SOL     OW14837   5.568   2.622   4.709  0.0573 -0.1557 -0.1639
 4718SOL    HW114838   5.632   2.693   4.704  1.3316 -1.3726 -3.0978
 4718SOL    HW214839   5.483   2.666   4.709  0.8365  1.3964 -0.3987
 4719SOL     OW14840   3.538   1.959   3.862  0.7662  0.3915  0.6232
 4719SOL    HW114841   3.464   2.020   3.864 -0.1305 -0.6714  1.1702
 4719SOL    HW214842   3.614   2.014   3.880 -0.0510  1.3231  1.4101
 4720SOL     OW14843   4.701   5.361   2.648  0.6859 -0.0976 -0.1343
 4720SOL    HW114844   4.630   5.300   2.668  2.2073 -1.7613  0.5644
 4720SOL    HW214845   4.722   5.344   2.556  0.5836 -0.0739 -0.1611
 4721SOL     OW14846   1.244   5.836   1.648  0.4842 -0.1592  0.4857
 4721SOL    HW114847   1.164   5.792   1.619  1.3464 -0.5465 -1.4289
 4721SOL    HW214848   1.219   5.880   1.729 -1.5918 -0.5039  0.0799
 4722SOL     OW14849   4.213   3.450   3.284  0.0559  0.5377  0.2949
 4722SOL    HW114850   4.240   3.518   3.222 -2.2534 -1.1159 -2.8677
 4722SOL    HW214851   4.265   3.373   3.259 -2.0580 -0.6101 -0.8761
 4723SOL     OW14852   1.744   3.874   4.291 -0.5030  0.4545 -0.8246
 4723SOL    HW114853   1.705   3.849   4.374  0.5293 -0.6522 -0.6454
 4723SOL    HW214854   1.693   3.949   4.261 -0.1524  1.6560  1.4101
 4724SOL     OW14855   2.582   4.037   3.778 -0.3755  0.4497  0.5977
 4724SOL    HW114856   2.575   3.967   3.712  0.0594  2.4319 -1.7189
 4724SOL    HW214857   2.669   4.025   3.816  0.4425  0.7412 -1.0852
 4725SOL     OW14858   4.377   4.146   5.771 -0.2944  0.3344 -0.0962
 4725SOL    HW114859   4.420   4.202   5.706 -0.9819  1.6674  0.5512
 4725SOL    HW214860   4.427   4.159   5.851 -1.1264  0.9122  0.3415
 4726SOL     OW14861   2.861   6.352   0.265  0.0302 -0.9575  0.7243
 4726SOL    HW114862   2.908   6.415   0.210 -0.6585 -0.7752  0.3282
 4726SOL    HW214863   2.922   6.280   0.277  0.9259 -0.1087  1.3850
 4727SOL     OW14864   4.945   3.908   4.075  0.7446 -0.3729 -0.2028
 4727SOL    HW114865   4.944   3.997   4.039  0.4069  0.6632  2.1401
 4727SOL    HW214866   5.036   3.880   4.068  1.0072  0.4725 -0.2606
 4728SOL     OW14867   1.314   1.829   1.935 -0.1869  0.0369 -0.9439
 4728SOL    HW114868   1.348   1.916   1.914 -1.5692  1.1061  0.9514
 4728SOL    HW214869   1.388   1.771   1.922  0.7754  1.4828 -2.2737
 4729SOL     OW14870   0.522   3.066   1.001  0.1344  0.3897  0.3592
 4729SOL    HW114871   0.536   2.993   0.941 -0.9486 -0.7857  1.4366
 4729SOL    HW214872   0.609   3.092   1.029  0.5339 -1.0437  0.5359
 4730SOL     OW14873   4.216   5.646   4.966 -0.0415 -0.3844  0.4988
 4730SOL    HW114874   4.234   5.595   5.046 -0.4261  0.2314  0.9850
 4730SOL    HW214875   4.299   5.647   4.919  0.1436 -0.9036  0.8021
 4731SOL     OW14876   0.804   5.238   1.502 -0.2441 -0.0202 -0.1177
 4731SOL    HW114877   0.816   5.161   1.448  1.6440  0.8719 -1.0460
 4731SOL    HW214878   0.783   5.308   1.440 -1.4521  0.3576  0.6631
 4732SOL     OW14879   1.305   4.600   2.875  0.3240 -0.0729 -0.4996
 4732SOL    HW114880   1.331   4.687   2.904 -0.8026 -0.8615  3.3960
 4732SOL    HW214881   1.215   4.611   2.843  0.8710  0.4553 -1.9507
 4733SOL     OW14882   0.999   4.057   6.164 -0.2979  0.7821 -0.3328
 4733SOL    HW114883   1.008   4.097   6.078  1.1407 -0.9325 -1.0368
 4733SOL    HW214884   1.052   3.978   6.160  0.9845  1.3559  2.6001
 4734SOL     OW14885   3.191   0.074   1.930 -0.5060  0.3759 -0.5211
 4734SOL    HW114886   3.250   0.111   1.995 -0.7382  0.1034 -0.1527
 4734SOL    HW214887   3.140   0.149   1.899 -1.0540  0.3591  0.3063
 4735SOL     OW14888   2.734   0.590   0.752 -0.0418 -0.1589  0.5541
 4735SOL    HW114889   2.824   0.564   0.732 -0.6281 -1.0390 -1.0722
 4735SOL    HW214890   2.680   0.536   0.696 -1.4467  2.7944 -1.1702
 4736SOL     OW14891   0.818   0.129   3.237 -0.1801 -0.2684  0.7153
 4736SOL    HW114892   0.751   0.061   3.237 -0.3551 -0.0974 -0.0234
 4736SOL    HW214893   0.807   0.173   3.321 -0.1180 -1.0896  1.1696
 4737SOL     OW14894   0.551   5.622   5.195 -0.3004 -0.2649 -0.0922
 4737SOL    HW114895   0.630   5.675   5.185  0.0503 -0.6832  0.3799
 4737SOL    HW214896   0.580   5.547   5.247 -0.8157 -0.8546 -0.6456
 4738SOL     OW14897   3.241   3.621   1.514  0.2608 -0.2169 -0.3526
 4738SOL    HW114898   3.269   3.672   1.438 -0.7620 -0.1572 -0.6980
 4738SOL    HW214899   3.312   3.559   1.528  2.5771  2.5395  1.3314
 4739SOL     OW14900   2.003   2.684   2.052  0.2686  0.4063 -0.2153
 4739SOL    HW114901   1.974   2.617   2.115  0.6861  0.4456  0.0206
 4739SOL    HW214902   2.098   2.676   2.051  0.2118 -0.9052 -2.2904
 4740SOL     OW14903   1.396   2.125   1.132 -0.4314 -0.2165 -0.5042
 4740SOL    HW114904   1.431   2.046   1.091 -0.9040 -0.9691  0.4826
 4740SOL    HW214905   1.385   2.187   1.060  1.3753 -0.5107 -1.0698
 4741SOL     OW14906   0.601   6.407   4.562  0.0845  0.2358 -0.1174
 4741SOL    HW114907   0.552   6.436   4.639  2.7645  0.5099  1.6102
 4741SOL    HW214908   0.571   6.317   4.547 -2.7458  1.1694 -0.8107
 4742SOL     OW14909   3.857   4.025   2.149 -0.3556 -0.0320  0.0928
 4742SOL    HW114910   3.813   4.001   2.068  1.2905 -0.9632 -0.5715
 4742SOL    HW214911   3.829   4.115   2.166  0.0130  0.5438 -2.0712
 4743SOL     OW14912   3.361   0.213   0.530 -0.0394 -0.1656 -0.3954
 4743SOL    HW114913   3.367   0.120   0.553  0.9148 -0.0445 -0.1439
 4743SOL    HW214914   3.377   0.215   0.436 -1.3395 -0.3754 -0.6492
 4744SOL     OW14915   2.298   4.740   0.997  0.3438  0.6135  0.1129
 4744SOL    HW114916   2.356   4.679   1.044  0.3462 -0.7584 -1.5739
 4744SOL    HW214917   2.352   4.773   0.925 -0.0743  1.6627  0.2596
 4745SOL     OW14918   6.432   0.183   3.536  0.4888  0.1940 -0.3351
 4745SOL    HW114919   6.448   0.277   3.547  1.9522 -0.2596  2.3932
 4745SOL    HW214920   6.336   0.176   3.530  0.3887  1.8917 -1.6694
 4746SOL     OW14921   1.684   4.420   2.546 -0.2181 -0.0686 -0.4203
 4746SOL    HW114922   1.693   4.377   2.632 -1.1410 -1.5477 -1.0270
 4746SOL    HW214923   1.627   4.361   2.496 -0.7678  1.4392 -1.6215
 4747SOL     OW14924   2.443   6.199   1.653 -0.9072 -0.1874  0.2786
 4747SOL    HW114925   2.438   6.142   1.729 -0.7536 -0.9011 -0.2359
 4747SOL    HW214926   2.353   6.223   1.635 -0.8985  0.4125  0.9975
 4748SOL     OW14927   0.940   6.490   5.334 -0.3580 -0.3916 -0.2864
 4748SOL    HW114928   0.988   6.544   5.397 -1.1365 -1.5367  1.3441
 4748SOL    HW214929   0.848   6.504   5.356 -0.7326  0.2059 -2.0600
 4749SOL     OW14930   4.416   1.144   5.327  0.0244 -0.3493  0.4943
 4749SOL    HW114931   4.473   1.068   5.343  0.1976 -0.6501 -1.2354
 4749SOL    HW214932   4.331   1.118   5.361  0.0367 -1.4198 -0.2291
 4750SOL     OW14933   5.184   2.608   3.416  0.2181 -0.1489 -0.1509
 4750SOL    HW114934   5.269   2.610   3.459  0.0625 -1.6117  0.2867
 4750SOL    HW214935   5.146   2.524   3.442 -1.1500  0.2556 -0.7408
 4751SOL     OW14936   5.834   6.185   1.973 -0.2766  0.1922 -0.0500
 4751SOL    HW114937   5.842   6.113   2.036  1.3375 -1.4285 -1.9514
 4751SOL    HW214938   5.846   6.264   2.025  0.3467 -1.0310  1.7623
 4752SOL     OW14939   3.038   3.147   0.430 -0.3991  0.1391  0.5895
 4752SOL    HW114940   2.947   3.134   0.405  0.0620 -0.4029 -0.9029
 4752SOL    HW214941   3.050   3.091   0.507 -0.8350 -1.2919 -0.3564
 4753SOL     OW14942   1.679   5.401   0.917 -0.4965 -0.3490  0.1394
 4753SOL    HW114943   1.588   5.420   0.938 -0.5335  0.3903 -0.6375
 4753SOL    HW214944   1.727   5.418   0.998 -1.2795 -2.7298  1.1765
 4754SOL     OW14945   1.481   5.455   5.560  0.1836  0.1835 -0.1027
 4754SOL    HW114946   1.563   5.500   5.540  1.2186 -1.2896  0.6212
 4754SOL    HW214947   1.508   5.368   5.590 -1.7015 -1.0687 -1.7167
 4755SOL     OW14948   1.112   3.188   0.094 -0.2104 -0.3799 -0.5275
 4755SOL    HW114949   1.073   3.248   0.157 -0.1962 -0.4487 -0.4527
 4755SOL    HW214950   1.108   3.102   0.137  2.0295 -0.0654  0.3923
 4756SOL     OW14951   4.333   2.527   5.249  0.1859 -0.0170  0.6056
 4756SOL    HW114952   4.409   2.532   5.191  0.1109  0.2185  0.5310
 4756SOL    HW214953   4.311   2.433   5.251 -0.7979  0.1544 -1.0023
 4757SOL     OW14954   2.101   1.749   0.153  0.0619  0.0372  0.0449
 4757SOL    HW114955   2.087   1.841   0.174 -0.4628 -0.1060  0.3462
 4757SOL    HW214956   2.156   1.750   0.075 -1.8143  0.6400 -1.3600
 4758SOL     OW14957   4.980   5.553   4.355 -0.5441  0.1866 -0.1030
 4758SOL    HW114958   4.920   5.585   4.288 -0.8901  0.4957  0.3463
 4758SOL    HW214959   5.040   5.495   4.308 -0.0208  1.3383 -0.9095
 4759SOL     OW14960   0.155   1.047   5.538  0.6710  0.6195  0.6033
 4759SOL    HW114961   0.096   1.002   5.477  2.8262 -2.5066  0.5561
 4759SOL    HW214962   0.107   1.125   5.565 -2.3733 -0.4001 -1.3187
 4760SOL     OW14963   3.999   0.191   6.167  0.2678 -0.0966  0.0276
 4760SOL    HW114964   3.932   0.241   6.213  1.6326  1.1578  0.7218
 4760SOL    HW214965   4.021   0.119   6.226  0.8740  0.5977  0.6732
 4761SOL     OW14966   1.498   0.506   3.711 -0.8688  0.1666  0.2018
 4761SOL    HW114967   1.555   0.581   3.725 -0.2158 -0.5027  1.2487
 4761SOL    HW214968   1.548   0.448   3.654  0.0113 -0.9008  1.9550
 4762SOL     OW14969   2.658   1.646   5.209 -0.0879  0.0209 -0.1643
 4762SOL    HW114970   2.724   1.650   5.140 -0.0338  0.0429 -0.1117
 4762SOL    HW214971   2.676   1.723   5.262  0.1247 -0.2138  0.1061
 4763SOL     OW14972   4.151   1.033   0.042 -0.1555  0.7091  0.5122
 4763SOL    HW114973   4.218   0.982  -0.005 -1.0005  0.9129 -0.9543
 4763SOL    HW214974   4.156   1.001   0.132  0.2465 -1.0264 -0.0897
 4764SOL     OW14975   4.522   1.168   2.633 -0.8368  0.0128 -0.0851
 4764SOL    HW114976   4.528   1.263   2.631 -0.7566  0.0543  1.3565
 4764SOL    HW214977   4.445   1.150   2.687  0.0601 -0.7471  0.9777
 4765SOL     OW14978   4.836   5.855   5.754 -0.0693 -0.4227  0.2648
 4765SOL    HW114979   4.910   5.884   5.701  0.4232 -1.6682  0.2452
 4765SOL    HW214980   4.791   5.936   5.777 -0.7424  0.1546 -2.6432
 4766SOL     OW14981   2.593   1.473   0.599 -0.2990  0.4927 -0.8333
 4766SOL    HW114982   2.556   1.410   0.538 -2.6534  0.5021  0.4813
 4766SOL    HW214983   2.549   1.556   0.579 -2.4497  0.1478  1.8251
 4767SOL     OW14984   2.372   2.488   5.107 -0.0418 -0.2569 -0.3425
 4767SOL    HW114985   2.466   2.508   5.112 -0.5310  1.8538  2.4135
 4767SOL    HW214986   2.368   2.394   5.126  1.5026 -0.4123 -0.5872
 4768SOL     OW14987   1.546   4.559   5.641 -0.6284 -0.0933 -0.7113
 4768SOL    HW114988   1.514   4.509   5.716 -1.3339  0.3515 -0.7021
 4768SOL    HW214989   1.604   4.625   5.679  1.1356 -1.5110 -0.8150
 4769SOL     OW14990   4.384   0.959   6.435 -0.6159  0.4301  0.2442
 4769SOL    HW114991   4.460   1.002   6.474  0.1799  0.3228 -1.1071
 4769SOL    HW214992   4.419   0.880   6.395 -1.3403  0.6201 -0.8104
 4770SOL     OW14993   3.575   0.997   3.488  0.1060  0.3908 -0.3789
 4770SOL    HW114994   3.556   1.085   3.455 -1.0286 -0.0890 -1.0720
 4770SOL    HW214995   3.528   0.992   3.571  0.5125  0.5732 -0.1344
 4771SOL     OW14996   5.465   1.691   5.936  0.0873 -0.1173 -0.2326
 4771SOL    HW114997   5.409   1.646   5.998  0.6653 -2.5864 -1.3956
 4771SOL    HW214998   5.545   1.710   5.985  1.3386 -3.7977 -0.5506
 4772SOL     OW14999   0.948   6.348   0.475 -0.0263 -0.8249 -0.2444
 4772SOL    HW115000   0.879   6.339   0.409  0.8373  0.1894 -1.3220
 4772SOL    HW215001   0.954   6.442   0.491  0.5411 -0.9713  0.4602
 4773SOL     OW15002   0.681   0.328   6.423  0.1835 -0.3128 -0.2627
 4773SOL    HW115003   0.724   0.256   6.376  0.5290 -0.7535  0.7041
 4773SOL    HW215004   0.597   0.339   6.377  1.0171  0.1310 -1.7720
 4774SOL     OW15005   2.862   2.118   1.140  0.5031 -0.2077 -0.0489
 4774SOL    HW115006   2.826   2.173   1.070 -0.7755 -0.0039  0.7297
 4774SOL    HW215007   2.956   2.115   1.122  0.4402  1.2145 -0.8151
 4775SOL     OW15008   6.105   6.178   5.596 -0.3221  0.1368 -0.0341
 4775SOL    HW115009   6.187   6.163   5.549 -1.6523 -0.5112 -2.3348
 4775SOL    HW215010   6.121   6.143   5.683  2.2226  1.1952  0.0201
 4776SOL     OW15011   3.572   1.794   3.637 -0.2890  0.4220  0.0932
 4776SOL    HW115012   3.479   1.809   3.620 -0.7978 -0.7035  1.6427
 4776SOL    HW215013   3.594   1.857   3.706  0.2382  1.0027 -0.5912
 4777SOL     OW15014   0.625   0.868   4.192  0.0918  0.0658  0.6965
 4777SOL    HW115015   0.579   0.938   4.238  1.7849  1.2015  0.7451
 4777SOL    HW215016   0.604   0.789   4.242 -2.2070  0.4154  0.3918
 4778SOL     OW15017   5.078   0.316   1.757 -0.5045 -0.0560  0.5472
 4778SOL    HW115018   5.046   0.406   1.763  1.1789  0.7493 -1.3842
 4778SOL    HW215019   5.135   0.306   1.833  1.2666  1.4271 -0.5057
 4779SOL     OW15020   4.317   2.947   0.196 -0.4509 -0.0108 -0.4131
 4779SOL    HW115021   4.305   3.008   0.268 -0.4825  0.0643 -0.4829
 4779SOL    HW215022   4.229   2.925   0.166 -0.4296  0.1747 -0.6125
 4780SOL     OW15023   4.432   0.038   4.434  0.2544  0.1995 -0.2445
 4780SOL    HW115024   4.456  -0.054   4.449  2.6287  0.4321 -2.0061
 4780SOL    HW215025   4.346   0.034   4.392  0.3320 -1.2218 -0.3251
 4781SOL     OW15026   4.516   3.472   5.116  0.1040  0.0302 -0.5332
 4781SOL    HW115027   4.536   3.464   5.023 -0.8309  0.0738 -0.7534
 4781SOL    HW215028   4.421   3.456   5.122  0.1214  0.1687  0.3887
 4782SOL     OW15029   5.620   4.684   4.145 -0.0696 -0.0179  0.3984
 4782SOL    HW115030   5.526   4.685   4.127 -0.4017 -0.1811  1.9696
 4782SOL    HW215031   5.626   4.680   4.240  1.4960  4.4216  0.7526
 4783SOL     OW15032   4.564   3.130   6.157  0.3274  0.2929  0.1167
 4783SOL    HW115033   4.568   3.224   6.175 -1.5437  0.0739  2.0163
 4783SOL    HW215034   4.477   3.103   6.185  0.3934 -1.8358 -1.4502
 4784SOL     OW15035   2.784   4.869   0.477 -0.2734 -0.0811  0.8313
 4784SOL    HW115036   2.787   4.841   0.385  2.3076  1.8500  0.2029
 4784SOL    HW215037   2.703   4.919   0.484 -1.4341 -1.7930  0.1359
 4785SOL     OW15038   2.833   4.954   6.290  0.1062  0.0312  0.1847
 4785SOL    HW115039   2.782   5.007   6.351 -0.8926 -0.9066  0.1867
 4785SOL    HW215040   2.777   4.879   6.270  1.4568 -1.0027  0.1343
 4786SOL     OW15041   6.319   0.624   3.916 -0.5570  0.5093 -0.6591
 4786SOL    HW115042   6.355   0.664   3.838 -2.2008  0.3818 -1.5339
 4786SOL    HW215043   6.230   0.659   3.922 -1.2860 -1.2714 -0.2054
 4787SOL     OW15044   0.602   2.707   2.692 -0.0378  0.2526 -0.0611
 4787SOL    HW115045   0.525   2.663   2.655  0.6726 -0.4768 -0.7088
 4787SOL    HW215046   0.567   2.787   2.730 -0.7558  1.3218 -2.7741
 4788SOL     OW15047   1.673   2.932   1.529 -0.8767 -0.0478  0.1855
 4788SOL    HW115048   1.763   2.915   1.502 -1.4148 -2.3947 -0.3140
 4788SOL    HW215049   1.627   2.949   1.447 -0.5455  3.6954  0.5669
 4789SOL     OW15050   1.180   5.201   5.246  0.5707 -0.5220  0.5235
 4789SOL    HW115051   1.174   5.278   5.190  0.4849 -0.4997  0.5631
 4789SOL    HW215052   1.218   5.133   5.191 -0.6683 -0.8641  0.0732
 4790SOL     OW15053   1.339   2.652   4.494  0.0984 -0.1197 -0.2572
 4790SOL    HW115054   1.364   2.707   4.420 -1.7794 -0.8360 -1.4979
 4790SOL    HW215055   1.356   2.562   4.464  0.8389 -0.3628  0.8190
 4791SOL     OW15056   5.928   4.329   1.128  0.1963 -1.1331 -0.1003
 4791SOL    HW115057   5.941   4.399   1.064 -2.1199 -1.3452 -0.8722
 4791SOL    HW215058   5.852   4.356   1.179  1.4264 -1.4171  2.0219
 4792SOL     OW15059   4.132   2.191   2.929  0.4759 -0.0095  0.0780
 4792SOL    HW115060   4.182   2.204   3.009 -0.1734 -1.5146  0.7569
 4792SOL    HW215061   4.164   2.108   2.894 -0.4076 -0.1913 -0.3341
 4793SOL     OW15062   4.422   3.768   4.774  0.0476 -0.1916  0.1557
 4793SOL    HW115063   4.445   3.747   4.865  0.2321 -2.9299 -0.4257
 4793SOL    HW215064   4.504   3.754   4.725 -0.3825 -0.0677 -0.6119
 4794SOL     OW15065   5.392   0.550   4.558  0.1830 -0.7670  0.2197
 4794SOL    HW115066   5.344   0.473   4.528 -0.1983 -0.5062  0.1627
 4794SOL    HW215067   5.411   0.600   4.479  0.7336 -0.9705  0.2169
 4795SOL     OW15068   0.855   1.064   0.937 -0.1465 -0.3362  0.0181
 4795SOL    HW115069   0.807   1.062   0.854  0.7779  0.3818 -0.5566
 4795SOL    HW215070   0.945   1.083   0.911 -0.2730  2.4391  1.3431
 4796SOL     OW15071   1.832   4.446   2.269  0.0365  0.1893 -0.2116
 4796SOL    HW115072   1.852   4.535   2.298 -0.8096  0.9141 -1.7465
 4796SOL    HW215073   1.912   4.418   2.224 -0.0458  0.5368 -0.5723
 4797SOL     OW15074   0.396   5.895   0.341 -0.0203  0.2921 -0.0288
 4797SOL    HW115075   0.339   5.844   0.399 -1.5967  1.0870 -0.8282
 4797SOL    HW215076   0.336   5.947   0.288  1.4952  1.7566 -0.3725
 4798SOL     OW15077   6.387   1.185   2.120  0.1135  0.4480 -0.4738
 4798SOL    HW115078   6.323   1.172   2.050  0.0783 -0.0747 -0.3505
 4798SOL    HW215079   6.334   1.183   2.200 -0.0317  2.3288 -0.4780
 4799SOL     OW15080   6.243   6.145   1.930  0.0214 -0.0303 -0.3930
 4799SOL    HW115081   6.259   6.194   2.011 -0.2484  0.6981 -0.7774
 4799SOL    HW215082   6.183   6.075   1.957  0.0894  0.0894  0.0801
 4800SOL     OW15083   6.423   2.048   1.318  0.2124 -0.3936  0.4703
 4800SOL    HW115084   6.400   2.136   1.345  2.4191 -0.0981  1.6452
 4800SOL    HW215085   6.400   2.044   1.225 -1.8105  0.6735  0.8682
 4801SOL     OW15086   1.002   4.534   4.750  0.8997  0.8880  0.2312
 4801SOL    HW115087   0.971   4.592   4.820 -3.8214 -2.3182  1.2952
 4801SOL    HW215088   1.069   4.480   4.792 -0.4246  0.3805  1.8271
 4802SOL     OW15089   2.492   4.705   3.902 -0.0547 -0.4418 -0.3096
 4802SOL    HW115090   2.522   4.631   3.954  0.8884  0.4130  0.3859
 4802SOL    HW215091   2.431   4.666   3.838  0.1538 -1.7503  0.2600
 4803SOL     OW15092   2.540   3.151   0.013 -0.3655  0.2314  0.0968
 4803SOL    HW115093   2.629   3.183  -0.004 -0.3508 -0.3880 -1.0581
 4803SOL    HW215094   2.539   3.062  -0.022 -1.4159  0.1841  0.2125
 4804SOL     OW15095   5.143   4.343   0.887 -0.2224  0.3054  0.0198
 4804SOL    HW115096   5.234   4.343   0.920 -0.8808  2.3862  2.1758
 4804SOL    HW215097   5.099   4.277   0.940 -0.3312  0.5983  0.3038
 4805SOL     OW15098   5.716   0.810   3.350 -0.2787 -0.4899  0.1784
 4805SOL    HW115099   5.775   0.743   3.316  0.5961  0.6384 -0.6292
 4805SOL    HW215100   5.633   0.794   3.306  0.3318 -0.1672 -1.1401
 4806SOL     OW15101   1.503   3.390   0.936 -0.4916 -0.0275  0.2750
 4806SOL    HW115102   1.578   3.401   0.994 -0.8563 -1.2162  1.0021
 4806SOL    HW215103   1.426   3.410   0.990 -0.7048  2.0438 -0.6925
 4807SOL     OW15104   1.325   5.635   5.201 -0.0694 -0.5933  0.0291
 4807SOL    HW115105   1.405   5.588   5.228  0.9903 -0.0499 -1.9856
 4807SOL    HW215106   1.297   5.681   5.280  1.4662 -1.0035  0.8635
 4808SOL     OW15107   5.207   5.381   6.115  0.2741 -0.0412  0.5971
 4808SOL    HW115108   5.213   5.288   6.093  0.8128  0.3932 -1.2751
 4808SOL    HW215109   5.298   5.410   6.117  0.0761  0.5763  0.6163
 4809SOL     OW15110   3.751   4.660   0.103 -0.0578  0.1184  0.0567
 4809SOL    HW115111   3.692   4.708   0.161 -0.3348 -0.2501  0.0806
 4809SOL    HW215112   3.835   4.659   0.150  0.2060  1.3651 -0.3461
 4810SOL     OW15113   6.137   5.868   4.960 -0.2740 -0.3277  0.0153
 4810SOL    HW115114   6.232   5.876   4.962 -0.3303  1.5796 -1.8232
 4810SOL    HW215115   6.121   5.781   4.923  0.7935 -0.2302 -0.7299
 4811SOL     OW15116   0.510   3.944   0.616  0.3798  0.3692 -0.0612
 4811SOL    HW115117   0.525   4.037   0.597  1.4046  0.1783 -0.2473
 4811SOL    HW215118   0.594   3.913   0.649 -0.4955 -0.0469  1.8670
 4812SOL     OW15119   4.395   6.288   0.053  0.4978 -0.1904  0.5187
 4812SOL    HW115120   4.411   6.195   0.067  0.4734 -0.3499 -0.4169
 4812SOL    HW215121   4.388   6.325   0.141 -1.3771 -1.3912  0.9168
 4813SOL     OW15122   2.298   5.177   2.922  0.0553  0.2649 -0.4711
 4813SOL    HW115123   2.245   5.106   2.885  0.4673 -0.1107 -0.3532
 4813SOL    HW215124   2.267   5.256   2.878  0.5720 -0.1803 -1.6838
 4814SOL     OW15125   0.247   5.222   6.155 -0.0012  0.4183 -0.2445
 4814SOL    HW115126   0.161   5.260   6.134 -0.5815 -1.0818 -0.6896
 4814SOL    HW215127   0.276   5.270   6.233 -1.4007  0.7210  0.1117
 4815SOL     OW15128   6.224   1.396   0.800  0.4401  0.2050  0.2831
 4815SOL    HW115129   6.142   1.416   0.844 -0.7170  0.1906 -1.7348
 4815SOL    HW215130   6.272   1.479   0.800 -0.3301  0.6590 -0.0124
 4816SOL     OW15131   3.963   3.413   6.121 -0.1613  0.1311 -0.0278
 4816SOL    HW115132   3.891   3.377   6.070  1.1231 -1.3473 -0.8958
 4816SOL    HW215133   3.940   3.396   6.213 -1.6593  1.2102 -0.1788
 4817SOL     OW15134   6.104   5.379   4.702 -0.5310 -0.6206  0.5956
 4817SOL    HW115135   6.099   5.427   4.785 -4.1868 -1.0753  0.7963
 4817SOL    HW215136   6.127   5.446   4.637 -0.9893  0.4645  1.5242
 4818SOL     OW15137   0.175   0.595   2.400 -0.0971 -0.0991 -0.1254
 4818SOL    HW115138   0.103   0.659   2.400 -0.1230 -0.1267  0.4170
 4818SOL    HW215139   0.143   0.524   2.345 -0.5906 -0.2195  0.3064
 4819SOL     OW15140   6.349   3.788   4.985  0.1575  0.5315  0.4143
 4819SOL    HW115141   6.369   3.871   4.941 -0.5993  0.2717 -0.4347
 4819SOL    HW215142   6.393   3.796   5.070  0.5064  1.5983  0.1584
 4820SOL     OW15143   1.627   5.810   6.462 -0.3316 -0.0030 -0.2573
 4820SOL    HW115144   1.699   5.809   6.525 -0.0525  0.0890 -0.5703
 4820SOL    HW215145   1.565   5.746   6.496 -0.3951  0.3691  0.3495
 4821SOL     OW15146   2.679   4.081   0.718  0.0599 -0.4486 -0.1962
 4821SOL    HW115147   2.672   4.173   0.693 -0.1955 -0.3278  0.3059
 4821SOL    HW215148   2.760   4.050   0.677  0.0120 -0.0695 -0.5751
 4822SOL     OW15149   1.789   5.036   0.585 -0.1090 -0.4890  0.2907
 4822SOL    HW115150   1.777   5.011   0.493 -0.5616  1.8791 -0.3425
 4822SOL    HW215151   1.703   5.064   0.614  0.2041 -0.4387  1.1973
 4823SOL     OW15152   1.037   6.082   1.722 -0.2815  0.1441  0.4632
 4823SOL    HW115153   1.073   6.025   1.790 -0.4372 -1.0764 -0.4440
 4823SOL    HW215154   1.109   6.142   1.701  0.8611 -1.4535 -0.4329
 4824SOL     OW15155   4.527   4.787   0.773 -0.5792  0.3550 -0.2290
 4824SOL    HW115156   4.533   4.883   0.772  0.4935  0.3027  0.1086
 4824SOL    HW215157   4.600   4.759   0.828  0.1026 -0.7361 -1.6245
 4825SOL     OW15158   0.120   3.522   2.406 -0.3434  0.1282 -0.2891
 4825SOL    HW115159   0.213   3.538   2.422 -0.3962  0.6666 -0.5096
 4825SOL    HW215160   0.115   3.428   2.386  0.1169  0.0467 -0.0279
 4826SOL     OW15161   2.240   4.785   4.623 -0.5184  0.8328  0.2136
 4826SOL    HW115162   2.293   4.732   4.682  0.6664  0.6265 -0.9903
 4826SOL    HW215163   2.291   4.865   4.609 -1.3798  1.4528  0.4614
 4827SOL     OW15164   5.536   2.118   2.941  0.1560  0.4368 -1.0160
 4827SOL    HW115165   5.481   2.132   3.018  0.9154  0.5231 -0.4784
 4827SOL    HW215166   5.558   2.206   2.910  0.8824  0.4166 -0.5744
 4828SOL     OW15167   4.670   3.305   5.617  0.2160 -0.5059 -0.2575
 4828SOL    HW115168   4.681   3.398   5.599  2.1730 -0.1660  2.1007
 4828SOL    HW215169   4.749   3.264   5.582 -0.1975 -1.1514 -0.4552
 4829SOL     OW15170   1.500   2.857   6.062 -0.6591  0.2738 -0.0032
 4829SOL    HW115171   1.440   2.890   5.995 -1.8018 -0.4607  0.6412
 4829SOL    HW215172   1.564   2.805   6.014  0.9154  2.9058 -1.0039
 4830SOL     OW15173   5.275   1.309   3.249 -0.0869  0.2177  0.3351
 4830SOL    HW115174   5.316   1.389   3.283 -1.0588  0.7115  0.3869
 4830SOL    HW215175   5.220   1.339   3.177  0.0030 -0.4976 -0.0431
 4831SOL     OW15176   4.603   2.010   3.753  0.0838 -0.2411  0.4205
 4831SOL    HW115177   4.611   1.959   3.834  0.4311  0.3595  0.7658
 4831SOL    HW215178   4.624   1.947   3.683 -0.2390 -0.7684  0.7864
 4832SOL     OW15179   0.156   4.727   0.897  0.2491 -0.4087 -0.2702
 4832SOL    HW115180   0.116   4.640   0.904  1.4808 -0.9563  0.2491
 4832SOL    HW215181   0.178   4.750   0.987  0.3769  0.2289 -0.4629
 4833SOL     OW15182   0.318   2.734   2.578 -0.1657 -0.2913 -0.0373
 4833SOL    HW115183   0.299   2.728   2.672 -0.5263  0.2348 -0.0730
 4833SOL    HW215184   0.322   2.643   2.548 -0.8465 -0.4455  0.3288
 4834SOL     OW15185   5.046   4.384   0.431  0.4660  0.3914  0.2902
 4834SOL    HW115186   5.141   4.386   0.431  0.4830 -0.1417  0.0839
 4834SOL    HW215187   5.023   4.303   0.477  0.1240  0.2870 -0.0552
 4835SOL     OW15188   4.699   4.726   5.561  0.1824  0.8011 -0.6982
 4835SOL    HW115189   4.688   4.814   5.525  2.2091  1.5470  0.3255
 4835SOL    HW215190   4.790   4.704   5.541 -0.7448 -1.8951 -2.5673
 4836SOL     OW15191   0.625   2.570   3.320 -0.1041  0.2045  0.1236
 4836SOL    HW115192   0.612   2.600   3.230 -0.3880 -0.9819 -0.2393
 4836SOL    HW215193   0.661   2.482   3.311  0.4287  0.3065  1.1755
 4837SOL     OW15194   1.521   0.105   4.314 -0.0680  0.0259 -0.4890
 4837SOL    HW115195   1.511   0.104   4.409  0.4083 -0.7945 -0.4413
 4837SOL    HW215196   1.588   0.172   4.298  1.1850 -1.0900 -0.0941
 4838SOL     OW15197   3.561   4.838   0.222  0.5273  0.3615  0.1629
 4838SOL    HW115198   3.568   4.872   0.311  2.0971  1.8792 -0.5028
 4838SOL    HW215199   3.479   4.788   0.222 -0.6862  2.2189  1.8276
 4839SOL     OW15200   4.921   4.194   3.061 -0.0238 -0.3287 -0.3605
 4839SOL    HW115201   4.937   4.106   3.028  1.8650 -0.6594  1.2061
 4839SOL    HW215202   4.861   4.233   2.998 -0.1764 -2.4070 -1.5998
 4840SOL     OW15203   4.302   0.844   5.379 -0.4066 -0.0464 -0.1517
 4840SOL    HW115204   4.296   0.769   5.438 -0.7424  1.5552  1.9894
 4840SOL    HW215205   4.393   0.845   5.350 -0.0490 -0.5190  0.9039
 4841SOL     OW15206   6.237   1.253   3.482 -0.2279 -0.0032  0.2236
 4841SOL    HW115207   6.174   1.320   3.507 -1.4054 -0.3998 -1.5031
 4841SOL    HW215208   6.202   1.172   3.521 -0.4251 -0.1029 -0.1541
 4842SOL     OW15209   2.089   3.610   3.045 -0.2649 -0.0986  0.3251
 4842SOL    HW115210   2.074   3.615   2.951 -0.0646 -0.0533  0.2939
 4842SOL    HW215211   2.079   3.517   3.067 -1.7283  0.0794  0.5090
 4843SOL     OW15212   3.197   3.202   5.414  0.1071  0.3581  0.1289
 4843SOL    HW115213   3.269   3.263   5.398 -0.9915  1.9079  0.7343
 4843SOL    HW215214   3.122   3.259   5.431 -1.1369 -1.1959  0.0782
 4844SOL     OW15215   1.322   3.544   6.094 -0.1649  0.7222  0.0154
 4844SOL    HW115216   1.344   3.545   6.001 -0.5710 -0.1874 -0.1003
 4844SOL    HW215217   1.287   3.457   6.110 -2.1629  1.5480  0.5249
 4845SOL     OW15218   0.078   3.972   0.262 -0.0667 -0.2621 -0.4003
 4845SOL    HW115219   0.054   4.056   0.223  0.4423  0.0308 -0.0814
 4845SOL    HW215220   0.157   3.945   0.215  0.3724 -0.0571  0.2209
 4846SOL     OW15221   5.881   3.583   3.843  0.0096 -0.3446  0.2994
 4846SOL    HW115222   5.878   3.598   3.938 -0.5455 -1.4502  0.4714
 4846SOL    HW215223   5.789   3.570   3.819  0.0909  0.4713 -0.4942
 4847SOL     OW15224   2.970   2.258   5.881 -0.0246  0.0067  0.1418
 4847SOL    HW115225   2.916   2.189   5.845  0.6543  0.6152 -2.2431
 4847SOL    HW215226   2.943   2.337   5.834  0.4348  1.0279  1.5198
 4848SOL     OW15227   2.027   2.686   6.088 -0.2130  0.5794  0.0925
 4848SOL    HW115228   2.028   2.686   6.184 -0.3838 -0.2443  0.1024
 4848SOL    HW215229   2.073   2.606   6.063 -2.8240 -0.8835 -0.4486
 4849SOL     OW15230   0.995   2.348   1.871  0.1419 -0.1692 -0.1937
 4849SOL    HW115231   1.069   2.330   1.812 -0.4303 -0.1677 -0.9272
 4849SOL    HW215232   0.918   2.332   1.817 -0.4461  2.7534 -0.3906
 4850SOL     OW15233   5.574   2.266   0.049 -0.0860  0.5227 -0.1774
 4850SOL    HW115234   5.495   2.282   0.101 -0.2915  1.7478 -0.8302
 4850SOL    HW215235   5.645   2.303   0.101  0.1192 -0.7606  0.5053
 4851SOL     OW15236   6.297   6.142   4.587  0.1217 -0.0043 -0.3576
 4851SOL    HW115237   6.214   6.120   4.630  0.2092 -0.1783 -0.2784
 4851SOL    HW215238   6.272   6.201   4.516 -0.2266 -1.1533 -1.2129
 4852SOL     OW15239   3.823   4.316   2.170  0.1346 -0.4807 -0.6887
 4852SOL    HW115240   3.812   4.333   2.263 -0.2663  0.0401 -0.8260
 4852SOL    HW215241   3.769   4.382   2.127  1.4221  0.2006 -1.3217
 4853SOL     OW15242   2.366   6.269   4.738 -0.4671  0.6838 -0.1950
 4853SOL    HW115243   2.448   6.307   4.706 -0.3722  0.2078 -0.5232
 4853SOL    HW215244   2.308   6.268   4.662 -1.1758  2.0532  0.2923
 4854SOL     OW15245   5.650   5.464   1.496 -0.5387 -0.2971 -0.7121
 4854SOL    HW115246   5.579   5.519   1.464 -0.2156 -0.7337 -2.2527
 4854SOL    HW215247   5.644   5.384   1.445 -0.7421 -1.5703  1.2156
 4855SOL     OW15248   1.967   1.240   1.842  0.1344  0.4788  0.0799
 4855SOL    HW115249   1.938   1.184   1.770  0.0889  1.8662 -1.0391
 4855SOL    HW215250   1.901   1.228   1.910 -0.7411  0.3634 -0.7656
 4856SOL     OW15251   2.377   5.467   1.064 -0.0233 -0.6031  0.1686
 4856SOL    HW115252   2.388   5.388   1.010 -1.2496  0.4811 -1.8172
 4856SOL    HW215253   2.402   5.539   1.005 -2.4464  0.7232  0.6233
 4857SOL     OW15254   3.466   3.626   5.594  0.1847 -0.3835  0.0010
 4857SOL    HW115255   3.400   3.666   5.538 -1.0910 -0.4108  1.4258
 4857SOL    HW215256   3.517   3.700   5.628  2.1606 -0.4584 -2.5068
 4858SOL     OW15257   5.605   3.665   1.897  0.1572 -0.0452 -0.1511
 4858SOL    HW115258   5.633   3.709   1.817 -1.4138 -0.5763 -1.0294
 4858SOL    HW215259   5.528   3.614   1.871 -0.5188 -0.0699  1.7401
 4859SOL     OW15260   2.512   5.940   0.201 -0.1097  0.4145  0.5193
 4859SOL    HW115261   2.510   5.889   0.120 -1.1181 -1.9664  1.9288
 4859SOL    HW215262   2.590   5.996   0.193  1.4113 -1.7698 -0.9259
 4860SOL     OW15263   0.099   0.173   4.400  0.0431 -0.0723 -0.0121
 4860SOL    HW115264   0.101   0.122   4.481  1.1707  0.6895  0.4591
 4860SOL    HW215265   0.016   0.148   4.359 -0.9532  0.1090  1.7568
 4861SOL     OW15266   3.061   4.418   2.091  0.1759  0.4566  0.4821
 4861SOL    HW115267   3.075   4.493   2.034 -0.6644 -0.6004 -1.1778
 4861SOL    HW215268   2.966   4.417   2.106  0.3574  0.6267  1.8227
 4862SOL     OW15269   1.044   3.522   3.239  0.4655 -0.3272 -0.4171
 4862SOL    HW115270   1.100   3.449   3.265 -0.6160 -1.5891 -1.4947
 4862SOL    HW215271   0.966   3.513   3.294 -0.0653 -0.5484 -1.1960
 4863SOL     OW15272   0.404   5.895   3.023  0.4302  0.0557  0.2111
 4863SOL    HW115273   0.340   5.956   2.986  1.7333  0.9724 -0.6504
 4863SOL    HW215274   0.458   5.949   3.080  0.5347 -0.6710  0.8076
 4864SOL     OW15275   4.313   5.237   6.197  0.5783  0.4499 -0.3185
 4864SOL    HW115276   4.287   5.229   6.105  0.9794  1.4162 -0.5200
 4864SOL    HW215277   4.401   5.201   6.200  0.6768  0.6872 -0.3679
 4865SOL     OW15278   2.436   0.937   4.307 -0.1703 -0.3219 -0.1342
 4865SOL    HW115279   2.524   0.932   4.344 -0.3436 -0.6403  0.2445
 4865SOL    HW215280   2.419   0.849   4.273  0.0773  0.0259 -1.1974
 4866SOL     OW15281   3.453   5.163   0.592  0.4031  0.1834  0.0215
 4866SOL    HW115282   3.457   5.153   0.687  1.6235 -0.3102 -0.0693
 4866SOL    HW215283   3.484   5.079   0.558 -0.4336  0.2026 -0.8216
 4867SOL     OW15284   2.695   4.440   1.943 -0.1867 -0.4920  0.4100
 4867SOL    HW115285   2.754   4.454   2.016 -0.6727  1.6762  0.4420
 4867SOL    HW215286   2.730   4.363   1.898  0.9279 -1.0030  2.0884
 4868SOL     OW15287   4.046   0.271   4.937  0.1475  0.3731  0.0436
 4868SOL    HW115288   4.008   0.213   4.872 -0.5902  1.6760 -0.7204
 4868SOL    HW215289   4.092   0.212   4.997 -1.2651 -1.0701 -0.2169
 4869SOL     OW15290   0.054   0.150   3.061  0.0714 -0.1279  0.3516
 4869SOL    HW115291   0.142   0.152   3.097  0.6748 -1.4389 -0.9772
 4869SOL    HW215292   0.000   0.112   3.131  0.5528  0.5671  1.1190
 4870SOL     OW15293   0.339   6.108   2.583  0.5000  0.1863  0.0491
 4870SOL    HW115294   0.305   6.196   2.597  0.4187 -0.1084  2.1485
 4870SOL    HW215295   0.389   6.113   2.502 -0.2572  1.9136 -0.3586
 4871SOL     OW15296   4.331   0.881   2.022  0.4318  0.1785 -0.2329
 4871SOL    HW115297   4.398   0.944   1.995  0.8621 -1.0939 -2.4508
 4871SOL    HW215298   4.248   0.925   2.002  0.7090  0.2855 -1.1994
 4872SOL     OW15299   6.441   4.998   0.283  0.4371 -0.4166 -0.3053
 4872SOL    HW115300   6.518   5.050   0.306  0.0360  0.3979 -0.7789
 4872SOL    HW215301   6.367   5.048   0.317  0.1573 -1.6923  1.0535
 4873SOL     OW15302   5.547   5.607   1.090 -0.2994 -0.0067 -0.2582
 4873SOL    HW115303   5.493   5.535   1.058  0.9846 -1.2684  0.2790
 4873SOL    HW215304   5.600   5.632   1.014 -1.7373  1.3776 -0.8457
 4874SOL     OW15305   2.054   1.474   6.060  0.4318  0.5837  0.3195
 4874SOL    HW115306   1.991   1.487   5.990  1.5716  2.1076 -0.4605
 4874SOL    HW215307   2.008   1.418   6.123 -1.2172  0.5938 -0.8174
 4875SOL     OW15308   3.543   4.705   5.539 -0.0686 -0.4584 -0.3259
 4875SOL    HW115309   3.515   4.628   5.588  0.1747  0.3040  1.0645
 4875SOL    HW215310   3.621   4.676   5.490 -0.3389 -1.2419 -0.3064
 4876SOL     OW15311   6.491   2.974   5.692 -0.2066 -0.2735 -0.0859
 4876SOL    HW115312   6.411   3.024   5.706  0.3949  0.1361  2.2980
 4876SOL    HW215313   6.473   2.888   5.728  0.5438 -0.0334  0.9197
 4877SOL     OW15314   0.366   4.614   4.457 -0.3622  0.4111 -0.6264
 4877SOL    HW115315   0.403   4.536   4.417 -1.2926  0.9967 -2.7663
 4877SOL    HW215316   0.441   4.672   4.471 -0.0090  0.1912 -1.5588
 4878SOL     OW15317   3.312   0.976   0.225  0.1192 -0.6357 -0.2921
 4878SOL    HW115318   3.236   0.954   0.171 -0.8160  0.6019  0.4628
 4878SOL    HW215319   3.358   1.044   0.176 -0.8821  0.6869  0.5435
 4879SOL     OW15320   3.362   5.768   2.833  0.0755 -0.4359  0.0361
 4879SOL    HW115321   3.280   5.773   2.784 -0.1525 -1.5779  0.2694
 4879SOL    HW215322   3.431   5.772   2.766 -0.2222 -1.5223 -0.3533
 4880SOL     OW15323   5.489   0.449   3.187 -0.2974 -0.2719  0.4023
 4880SOL    HW115324   5.528   0.530   3.218 -2.2417  0.4889  1.0416
 4880SOL    HW215325   5.478   0.396   3.266  0.1521 -0.7998  0.1161
 4881SOL     OW15326   5.842   6.393   1.741  1.0603 -0.0906  0.6104
 4881SOL    HW115327   5.794   6.456   1.687  0.1475 -2.2786 -1.3090
 4881SOL    HW215328   5.801   6.399   1.827 -1.2251 -0.2785 -0.3748
 4882SOL     OW15329   0.164   1.582   0.255 -0.1284  0.1598 -0.0990
 4882SOL    HW115330   0.172   1.662   0.307  0.4509  0.1870 -0.2260
 4882SOL    HW215331   0.080   1.590   0.211  0.2783  1.0822 -0.7444
 4883SOL     OW15332   6.049   0.188   0.060  0.1259 -0.4961  0.1593
 4883SOL    HW115333   5.989   0.262   0.062  0.2093 -0.3926 -0.9626
 4883SOL    HW215334   6.129   0.222   0.021 -0.4217 -1.5683 -2.0540
 4884SOL     OW15335   1.811   1.186   5.752 -0.3991 -0.2566  0.1485
 4884SOL    HW115336   1.858   1.269   5.751  0.8904 -0.9274 -2.3522
 4884SOL    HW215337   1.742   1.197   5.686 -0.8938 -0.8186  0.5632
 4885SOL     OW15338   0.986   3.727   1.853 -0.4582 -0.1509  0.1256
 4885SOL    HW115339   0.932   3.714   1.931 -1.4228  0.2190 -0.4590
 4885SOL    HW215340   0.994   3.822   1.845 -1.2383 -0.1334 -0.7730
 4886SOL     OW15341   3.286   1.832   1.317 -0.0018 -0.4443  0.3788
 4886SOL    HW115342   3.316   1.918   1.287 -0.3749 -0.8262 -1.1735
 4886SOL    HW215343   3.332   1.770   1.261 -1.6582 -1.1481 -0.2425
 4887SOL     OW15344   2.445   5.818   6.149  0.1268  0.3623 -0.0336
 4887SOL    HW115345   2.383   5.784   6.085  0.5271 -1.8060  0.6608
 4887SOL    HW215346   2.526   5.769   6.133  0.3809  0.1252  1.7853
 4888SOL     OW15347   2.546   3.252   1.823 -0.1633 -0.1133 -0.3242
 4888SOL    HW115348   2.511   3.269   1.735  0.2652 -1.2664 -0.7366
 4888SOL    HW215349   2.624   3.197   1.807 -2.2575 -3.7674  0.9350
 4889SOL     OW15350   0.097   5.389   3.189  0.5249  0.2860  0.2015
 4889SOL    HW115351   0.010   5.357   3.162  0.4381  0.8044 -0.1387
 4889SOL    HW215352   0.094   5.386   3.285  0.4603 -0.5644  0.1853
 4890SOL     OW15353   6.414   0.521   4.155  0.5199 -0.3691 -0.1592
 4890SOL    HW115354   6.379   0.584   4.092  1.9659  0.6531 -0.0136
 4890SOL    HW215355   6.360   0.443   4.144 -0.7344  0.5731 -1.0134
 4891SOL     OW15356   4.262   6.375   2.139 -0.6512  0.1351 -0.3259
 4891SOL    HW115357   4.298   6.462   2.155 -1.9399  0.3190  1.8822
 4891SOL    HW215358   4.338   6.316   2.142  0.0289  1.0024 -0.2903
 4892SOL     OW15359   3.444   4.756   5.042 -0.3889  0.6711  0.2452
 4892SOL    HW115360   3.396   4.783   5.120  0.6523  0.7170  0.8881
 4892SOL    HW215361   3.488   4.675   5.067  0.3800  0.9708 -0.1110
 4893SOL     OW15362   2.987   5.921   2.877 -0.3180  0.5770 -0.2010
 4893SOL    HW115363   2.926   5.938   2.949 -0.2752  1.4504 -0.3578
 4893SOL    HW215364   2.981   5.999   2.822 -0.5104 -0.1590 -1.2721
 4894SOL     OW15365   3.674   3.021   3.974  0.1263  0.1896 -0.0551
 4894SOL    HW115366   3.744   3.057   3.921 -0.3166  2.2622  0.6964
 4894SOL    HW215367   3.707   3.025   4.064  0.3345 -2.0081  0.0210
 4895SOL     OW15368   5.763   5.923   2.947  0.0551 -0.5294 -0.1909
 4895SOL    HW115369   5.824   5.988   2.912 -0.5570  1.1402  1.6254
 4895SOL    HW215370   5.805   5.890   3.026 -0.9224 -0.0621  0.5568
 4896SOL     OW15371   2.799   5.339   5.568 -0.1833 -0.1060  0.2126
 4896SOL    HW115372   2.843   5.416   5.532 -0.4120  0.9779  2.1598
 4896SOL    HW215373   2.855   5.309   5.639  0.0469 -1.9570 -0.6705
 4897SOL     OW15374   5.418   3.390   4.607  0.1809  0.6286 -0.2879
 4897SOL    HW115375   5.367   3.312   4.586 -1.0036  0.8823  1.4026
 4897SOL    HW215376   5.374   3.427   4.684  1.9482  1.8009  0.2205
 4898SOL     OW15377   0.148   0.838   0.573  0.1540 -0.3176  0.0242
 4898SOL    HW115378   0.181   0.756   0.537 -3.5759 -1.2353 -1.8790
 4898SOL    HW215379   0.168   0.904   0.507  1.9715  0.1143  0.9469
 4899SOL     OW15380   0.336   4.500   1.127  0.2741 -0.2024  0.1365
 4899SOL    HW115381   0.390   4.459   1.060 -0.5823 -2.9127  0.9978
 4899SOL    HW215382   0.253   4.454   1.123 -1.0338  1.9678  0.7401
 4900SOL     OW15383   1.453   2.115   5.909  0.0720 -0.2308  0.1359
 4900SOL    HW115384   1.379   2.101   5.968 -0.3336 -0.9213 -0.5193
 4900SOL    HW215385   1.507   2.181   5.953 -0.8577  0.1794  0.6865
 4901SOL     OW15386   6.288   4.106   5.187 -0.1037  0.6877  0.1471
 4901SOL    HW115387   6.196   4.132   5.178 -0.3503  0.5750  1.9004
 4901SOL    HW215388   6.287   4.041   5.257  1.2649  0.3273 -0.1415
 4902SOL     OW15389   5.656   3.195   0.749  0.6595 -0.5258  0.1264
 4902SOL    HW115390   5.588   3.188   0.681  0.8648 -1.3766  0.0036
 4902SOL    HW215391   5.618   3.253   0.815  0.4608  0.3213 -0.7170
 4903SOL     OW15392   0.138   3.585   3.483 -0.7931 -0.4600 -0.7712
 4903SOL    HW115393   0.171   3.495   3.488 -1.0183 -0.6619 -2.3773
 4903SOL    HW215394   0.055   3.583   3.532 -0.7516 -1.0955 -0.7226
 4904SOL     OW15395   6.000   2.071   5.962  0.0376 -0.6310  0.3091
 4904SOL    HW115396   6.046   2.152   5.940  2.4151 -1.6800  1.0871
 4904SOL    HW215397   5.949   2.092   6.041 -1.0255  0.5936 -0.6519
 4905SOL     OW15398   1.535   3.388   4.861  0.9960  0.2876 -0.2491
 4905SOL    HW115399   1.495   3.468   4.895 -2.7773 -0.7563 -1.6822
 4905SOL    HW215400   1.613   3.418   4.814  0.8993  2.8084  1.0316
 4906SOL     OW15401   6.111   2.740   4.912 -0.5577 -0.0220 -0.0260
 4906SOL    HW115402   6.108   2.677   4.841  0.7784 -1.0664  0.7901
 4906SOL    HW215403   6.179   2.707   4.971 -2.3874  0.1557  2.3430
 4907SOL     OW15404   6.038   3.233   1.684  0.1004  0.5663 -0.4638
 4907SOL    HW115405   6.001   3.147   1.705 -0.2472  0.5668 -1.0393
 4907SOL    HW215406   6.133   3.221   1.691  0.1055 -0.1466 -1.5522
 4908SOL     OW15407   4.816   1.023   5.342 -0.2990 -0.1460  0.2140
 4908SOL    HW115408   4.874   0.947   5.348  1.4516  1.2506  2.3523
 4908SOL    HW215409   4.807   1.039   5.248 -0.1434 -2.5123 -0.2699
 4909SOL     OW15410   1.767   3.673   5.098 -0.1523 -0.1403  0.0415
 4909SOL    HW115411   1.828   3.603   5.122  1.8299  1.1202 -1.0586
 4909SOL    HW215412   1.752   3.721   5.180 -0.1453 -0.8133  0.4416
 4910SOL     OW15413   5.579   0.279   1.123  0.6981  0.6166  0.1840
 4910SOL    HW115414   5.575   0.317   1.035 -1.8782 -0.2654 -0.1802
 4910SOL    HW215415   5.572   0.184   1.108 -0.1923  0.4763  1.3158
 4911SOL     OW15416   6.033   2.380   5.460  0.1266  0.4511 -0.5432
 4911SOL    HW115417   5.954   2.391   5.514 -0.9496 -0.9074 -1.7560
 4911SOL    HW215418   6.039   2.286   5.446  0.7832  0.7045 -2.1602
 4912SOL     OW15419   5.126   2.643   6.320 -0.6271 -0.6119  0.7424
 4912SOL    HW115420   5.160   2.556   6.341 -0.1297 -0.0761  2.2496
 4912SOL    HW215421   5.085   2.674   6.401 -1.1318  0.4104  0.1190
 4913SOL     OW15422   4.613   2.153   1.420 -0.1744  0.0000  0.0582
 4913SOL    HW115423   4.697   2.160   1.376 -0.5230  1.0900 -0.4555
 4913SOL    HW215424   4.630   2.180   1.510  0.5717 -2.3712  0.7288
 4914SOL     OW15425   3.156   4.732   4.528 -0.1278 -0.0434 -0.3189
 4914SOL    HW115426   3.135   4.781   4.608  1.0275  0.2529 -0.1827
 4914SOL    HW215427   3.124   4.788   4.458  2.3623  1.6391 -0.2374
 4915SOL     OW15428   3.134   3.744   4.955  0.0662  0.3875 -0.1650
 4915SOL    HW115429   3.170   3.661   4.985 -0.6852 -0.7866 -2.2786
 4915SOL    HW215430   3.064   3.764   5.018  2.3998  1.2564  2.3281
 4916SOL     OW15431   3.798   1.493   5.749 -0.3218  0.3997 -0.1005
 4916SOL    HW115432   3.870   1.552   5.729  1.5223 -1.5198  0.5511
 4916SOL    HW215433   3.758   1.474   5.664  2.2469 -1.2962 -1.0346
 4917SOL     OW15434   5.976   4.832   1.278  0.1290 -0.0316  0.3281
 4917SOL    HW115435   6.038   4.867   1.214  0.8133 -1.8069 -0.0513
 4917SOL    HW215436   6.008   4.744   1.297 -1.2126 -0.2982  1.5953
 4918SOL     OW15437   3.360   4.995   2.976 -0.1258  0.2821 -0.1639
 4918SOL    HW115438   3.445   5.029   3.006  0.1142  2.6336 -2.9929
 4918SOL    HW215439   3.382   4.923   2.918  0.0543  1.1759 -1.2526
 4919SOL     OW15440   4.843   5.433   1.639  0.1209 -0.3454  0.1036
 4919SOL    HW115441   4.858   5.460   1.729 -2.4984  0.9262  0.2337
 4919SOL    HW215442   4.929   5.443   1.597  1.3871 -0.9258  2.3777
 4920SOL     OW15443   6.159   4.803   0.414 -0.6011 -0.4475  0.2444
 4920SOL    HW115444   6.135   4.886   0.373 -0.1790 -1.1217 -1.4422
 4920SOL    HW215445   6.112   4.803   0.497 -1.9662  0.7288 -0.4769
 4921SOL     OW15446   4.239   0.481   4.043  0.0957  0.2481  0.0540
 4921SOL    HW115447   4.318   0.428   4.036  0.5486  1.1261 -3.1914
 4921SOL    HW215448   4.256   0.542   4.115  2.4518  0.5036 -0.6659
 4922SOL     OW15449   4.141   5.795   3.099  0.4255  0.3053 -0.1972
 4922SOL    HW115450   4.177   5.720   3.052  2.8424  0.8316  0.6216
 4922SOL    HW215451   4.062   5.763   3.140  0.3281 -1.2095 -1.4892
 4923SOL     OW15452   5.573   3.615   3.340  0.5365  0.2016  0.1586
 4923SOL    HW115453   5.624   3.665   3.404 -1.8502  2.0346  0.7994
 4923SOL    HW215454   5.630   3.543   3.314  3.4407  2.1072  0.7358
 4924SOL     OW15455   5.517   6.235   5.538  0.4247  0.1848  0.3130
 4924SOL    HW115456   5.566   6.303   5.492 -1.1498 -0.1717 -2.1514
 4924SOL    HW215457   5.501   6.168   5.471 -1.6356 -0.6269  1.5105
 4925SOL     OW15458   1.503   3.887   4.495  0.4116  0.1456 -0.2637
 4925SOL    HW115459   1.507   3.791   4.496 -0.5269  0.0994 -0.1801
 4925SOL    HW215460   1.458   3.908   4.414 -0.4319  0.4578  0.2723
 4926SOL     OW15461   6.505   1.997   2.322  0.3388  0.4862  0.1073
 4926SOL    HW115462   6.428   1.946   2.348  1.3548 -1.0344  0.2486
 4926SOL    HW215463   6.475   2.088   2.323 -1.8130 -0.1546 -1.1009
 4927SOL     OW15464   1.238   5.757   0.848 -0.0788  0.1089 -0.5893
 4927SOL    HW115465   1.237   5.662   0.849 -1.6296  0.0689 -1.8419
 4927SOL    HW215466   1.216   5.783   0.937 -0.9420 -0.7295 -0.5460
 4928SOL     OW15467   1.650   5.150   4.550 -0.2113  0.2486 -0.0058
 4928SOL    HW115468   1.691   5.105   4.476  0.2608 -0.3255  0.5914
 4928SOL    HW215469   1.669   5.243   4.534  0.8466  0.0455 -0.0378
 4929SOL     OW15470   4.154   4.247   1.546 -0.5162  0.5878 -0.4513
 4929SOL    HW115471   4.128   4.179   1.484 -0.6061  1.0691 -0.9493
 4929SOL    HW215472   4.150   4.328   1.496 -1.3697  1.0931  0.4011
 4930SOL     OW15473   4.144   5.932   4.485 -0.2409 -0.4107  0.0120
 4930SOL    HW115474   4.223   5.877   4.481 -1.3174 -1.9413 -1.8203
 4930SOL    HW215475   4.131   5.961   4.395 -0.2304  2.2048  0.7816
 4931SOL     OW15476   4.820   4.115   5.280  0.0688 -0.2496 -0.2738
 4931SOL    HW115477   4.833   4.200   5.322 -0.0969 -0.4501  0.2020
 4931SOL    HW215478   4.756   4.132   5.211  1.6803  0.4407 -1.6685
 4932SOL     OW15479   5.533   3.737   0.370 -0.6166  0.5513 -0.2216
 4932SOL    HW115480   5.553   3.825   0.340  0.0802  0.4623 -0.0519
 4932SOL    HW215481   5.438   3.732   0.372 -0.6603  1.4960  0.3590
 4933SOL     OW15482   2.745   2.081   5.187  0.0478  0.9273  0.1233
 4933SOL    HW115483   2.787   2.166   5.177 -0.5005  1.3764  1.4455
 4933SOL    HW215484   2.668   2.098   5.241  0.0418 -0.4330  0.5868
 4934SOL     OW15485   0.672   0.091   0.629  0.3649  0.0740  0.0010
 4934SOL    HW115486   0.653   0.182   0.650 -1.2900 -0.3659  0.5368
 4934SOL    HW215487   0.767   0.090   0.614  0.4737  1.8074  0.2869
 4935SOL     OW15488   1.983   3.974   3.096 -0.5155  0.3098 -0.4586
 4935SOL    HW115489   2.055   4.004   3.041  0.3906  1.3022  1.1924
 4935SOL    HW215490   1.966   4.047   3.155 -1.8903 -0.4707  0.1626
 4936SOL     OW15491   1.512   3.863   3.587 -0.4166 -0.9344  0.3638
 4936SOL    HW115492   1.450   3.866   3.514  0.9432  0.8220 -0.8058
 4936SOL    HW215493   1.567   3.787   3.568 -0.7415 -1.1135  0.1331
 4937SOL     OW15494   1.624   4.054   4.737  0.5012 -0.0092 -0.0111
 4937SOL    HW115495   1.638   4.085   4.827  3.4147 -1.3759  0.1367
 4937SOL    HW215496   1.644   4.129   4.682 -0.4783  0.5976  0.4297
 4938SOL     OW15497   5.485   2.945   3.894  0.5741  0.2137  0.0838
 4938SOL    HW115498   5.439   2.925   3.975 -0.4360 -0.9930 -0.7584
 4938SOL    HW215499   5.444   3.025   3.862 -0.0549 -0.1457 -0.0091
 4939SOL     OW15500   4.285   4.686   5.865 -0.1473  0.0892 -0.3327
 4939SOL    HW115501   4.305   4.594   5.881 -0.9361 -0.5248 -2.5006
 4939SOL    HW215502   4.370   4.728   5.856  0.2569 -0.1009  2.0428
 4940SOL     OW15503   4.168   0.210   2.958 -0.1627 -0.2661 -0.6333
 4940SOL    HW115504   4.173   0.241   3.048  0.3767  0.0579 -0.7684
 4940SOL    HW215505   4.083   0.242   2.927 -0.4248 -0.5239 -0.1925
 4941SOL     OW15506   4.464   3.661   0.946  0.2930 -0.0780 -0.3403
 4941SOL    HW115507   4.462   3.747   0.990 -0.9348 -0.4053  0.3072
 4941SOL    HW215508   4.437   3.679   0.856  1.2793  0.3814 -0.5544
 4942SOL     OW15509   2.735   4.640   5.942 -0.0370 -0.0959 -0.6972
 4942SOL    HW115510   2.782   4.689   5.874  0.7279 -0.9955 -0.8398
 4942SOL    HW215511   2.647   4.678   5.942  0.2023  0.5012 -1.5876
 4943SOL     OW15512   3.599   1.811   0.044  0.6966  0.3614 -0.1749
 4943SOL    HW115513   3.519   1.862   0.040 -0.8471 -1.9941 -2.6508
 4943SOL    HW215514   3.623   1.796  -0.047  1.8016 -2.1485  0.4371
 4944SOL     OW15515   5.937   3.797   4.828 -0.2364 -0.9489 -0.0896
 4944SOL    HW115516   5.853   3.790   4.783 -1.4969 -3.0841  2.3672
 4944SOL    HW215517   5.989   3.724   4.794 -0.6095 -1.6141  0.7550
 4945SOL     OW15518   0.773   5.253   1.050  0.1950 -0.3556 -0.2392
 4945SOL    HW115519   0.686   5.232   1.017  0.1844  0.1527 -0.5428
 4945SOL    HW215520   0.824   5.173   1.037 -0.2810 -0.7319  0.1472
 4946SOL     OW15521   1.204   2.377   2.911  0.1995 -0.4678 -0.1267
 4946SOL    HW115522   1.275   2.416   2.860 -1.6628  0.7903 -1.8887
 4946SOL    HW215523   1.196   2.433   2.988  1.7220 -1.2323  0.6559
 4947SOL     OW15524   3.653   6.485   3.439  0.0132  0.4723 -0.3622
 4947SOL    HW115525   3.627   6.565   3.394  0.4758  0.3965 -0.7875
 4947SOL    HW215526   3.625   6.414   3.381  1.2910  0.3958 -0.9303
 4948SOL     OW15527   5.044   5.498   5.736  0.2521 -0.1421  0.7561
 4948SOL    HW115528   5.120   5.557   5.737  1.5075 -1.6994  1.4627
 4948SOL    HW215529   5.009   5.503   5.826  0.4199 -0.5421  0.8437
 4949SOL     OW15530   4.155   6.132   5.900  0.0876 -0.1198  0.5141
 4949SOL    HW115531   4.221   6.200   5.888  0.3351 -0.5185 -0.4165
 4949SOL    HW215532   4.074   6.171   5.869  0.4399 -0.6187 -1.1119
 4950SOL     OW15533   1.400   3.431   2.202  0.6871 -0.3208  0.6874
 4950SOL    HW115534   1.368   3.378   2.275 -1.3199 -1.6465 -0.9976
 4950SOL    HW215535   1.372   3.382   2.124  0.2942  2.3403 -0.9745
 4951SOL     OW15536   5.094   1.027   0.638 -0.4131  0.4324 -0.1356
 4951SOL    HW115537   5.018   0.970   0.649 -0.4531  0.0956 -1.9181
 4951SOL    HW215538   5.163   0.969   0.605  1.4506  0.2019  3.5667
 4952SOL     OW15539   2.483   1.746   0.242  0.2736 -0.0341  0.2211
 4952SOL    HW115540   2.484   1.775   0.151 -1.8191  1.1424  0.5154
 4952SOL    HW215541   2.572   1.761   0.273  0.5219  1.3920 -1.0872
 4953SOL     OW15542   1.278   2.683   6.294 -0.1921 -0.1296 -0.0990
 4953SOL    HW115543   1.238   2.769   6.300 -0.3409 -0.2657  1.3916
 4953SOL    HW215544   1.362   2.692   6.340 -0.1887 -0.7673  0.0338
 4954SOL     OW15545   1.853   5.508   6.234 -0.5045  0.2400 -0.1551
 4954SOL    HW115546   1.948   5.511   6.231 -0.3534 -1.3111  1.2669
 4954SOL    HW215547   1.825   5.599   6.229  1.1375  0.8487  1.0178
 4955SOL     OW15548   2.772   1.348   2.257  0.4290  0.5002  0.3085
 4955SOL    HW115549   2.846   1.338   2.197 -0.6324  1.7994 -1.3055
 4955SOL    HW215550   2.797   1.419   2.316  0.5440  0.8155 -0.1200
 4956SOL     OW15551   3.262   4.242   2.074  0.2605 -0.2155  0.5902
 4956SOL    HW115552   3.203   4.315   2.054  2.4302  1.1683 -1.3302
 4956SOL    HW215553   3.210   4.183   2.127 -2.6201  1.2075 -0.4304
 4957SOL     OW15554   1.937   5.176   3.046 -0.4017 -0.2229  0.0247
 4957SOL    HW115555   1.993   5.142   3.116 -0.7544  1.2753  1.0835
 4957SOL    HW215556   1.866   5.221   3.092 -0.1171  1.6513 -1.2602
 4958SOL     OW15557   0.998   3.836   3.647  0.0498 -0.1703  0.4308
 4958SOL    HW115558   0.987   3.907   3.584 -2.3612 -0.7519  0.1201
 4958SOL    HW215559   1.057   3.872   3.713  1.9588  0.7649 -1.6349
 4959SOL     OW15560   1.586   4.576   3.985 -0.3608  0.0240  0.4474
 4959SOL    HW115561   1.536   4.595   3.906  0.6491  0.7419 -0.0592
 4959SOL    HW215562   1.563   4.487   4.008  0.6084 -0.8449 -1.6713
 4960SOL     OW15563   5.930   5.283   2.776  0.4184  0.0402 -0.4363
 4960SOL    HW115564   5.979   5.202   2.765 -0.7389 -0.9675  1.2702
 4960SOL    HW215565   5.961   5.318   2.860 -1.3974 -0.4152  0.4836
 4961SOL     OW15566   4.251   5.478   4.511  0.0001 -0.5494 -0.2504
 4961SOL    HW115567   4.334   5.439   4.484 -1.1612 -2.6700 -0.9727
 4961SOL    HW215568   4.231   5.436   4.595 -1.3886 -1.7989 -1.1533
 4962SOL     OW15569   2.543   2.185   0.215  0.0909  0.0622 -0.3648
 4962SOL    HW115570   2.511   2.227   0.295 -1.4469 -1.9742  0.1668
 4962SOL    HW215571   2.568   2.258   0.158 -1.6694  1.6661  0.8081
 4963SOL     OW15572   3.857   0.212   1.882 -0.0923  0.0587 -0.1082
 4963SOL    HW115573   3.826   0.141   1.825 -1.9950  0.4720  0.3236
 4963SOL    HW215574   3.870   0.170   1.967  1.0739 -0.2161 -0.4092
 4964SOL     OW15575   3.875   5.803   5.293  0.1680  0.1598  0.1190
 4964SOL    HW115576   3.903   5.847   5.373  0.6386  0.6884 -0.3298
 4964SOL    HW215577   3.953   5.757   5.262  0.6087  1.6696 -1.1524
 4965SOL     OW15578   1.906   2.184   3.251 -0.3969  0.0463  0.3470
 4965SOL    HW115579   1.969   2.238   3.299 -0.9431  2.7212 -1.6608
 4965SOL    HW215580   1.956   2.147   3.179 -0.0767 -2.0801  1.5963
 4966SOL     OW15581   5.259   0.731   3.103  0.8073  0.4511 -0.2151
 4966SOL    HW115582   5.235   0.638   3.103 -0.5955  0.7992  0.1325
 4966SOL    HW215583   5.267   0.754   3.010 -0.1297  0.2998 -0.3378
 4967SOL     OW15584   1.064   1.407   2.746  0.1270 -0.7296  0.7566
 4967SOL    HW115585   1.145   1.403   2.695 -0.7041 -1.2266 -0.5662
 4967SOL    HW215586   1.018   1.483   2.711 -1.3131 -2.1555 -0.6292
 4968SOL     OW15587   4.522   6.421   1.192  0.4853 -0.4716  0.5530
 4968SOL    HW115588   4.522   6.390   1.101  0.5336  0.4736  0.2192
 4968SOL    HW215589   4.565   6.351   1.241  2.3203 -0.1378 -0.4727
 4969SOL     OW15590   4.130   6.111   1.843  0.5747  0.0468 -0.1709
 4969SOL    HW115591   4.075   6.188   1.831 -0.3229 -0.2464  1.6465
 4969SOL    HW215592   4.199   6.140   1.904  1.2969 -0.1189 -0.8939
 4970SOL     OW15593   1.884   6.001   5.103  0.4208  0.2120 -0.3283
 4970SOL    HW115594   1.839   5.949   5.170  0.2181 -1.8845 -1.9771
 4970SOL    HW215595   1.832   6.081   5.096 -0.0154  0.1108  1.4191
 4971SOL     OW15596   5.271   1.774   5.233 -0.3271  0.4737 -0.0033
 4971SOL    HW115597   5.202   1.776   5.167 -0.4630 -0.7115  0.0961
 4971SOL    HW215598   5.346   1.734   5.189 -0.2077  0.2839  0.3681
 4972SOL     OW15599   5.507   1.209   6.444  0.0614 -0.2269 -0.5121
 4972SOL    HW115600   5.503   1.135   6.504 -1.5009  0.7647  0.7084
 4972SOL    HW215601   5.431   1.197   6.387 -1.0168  1.0670  0.5696
 4973SOL     OW15602   0.330   6.433   1.835  0.0608  0.0829 -0.0637
 4973SOL    HW115603   0.390   6.403   1.903 -0.1693 -1.5044 -0.5071
 4973SOL    HW215604   0.356   6.523   1.817  2.1982 -0.5075 -0.1294
 4974SOL     OW15605   1.366   3.184   1.942 -0.6938 -0.2130  0.2263
 4974SOL    HW115606   1.308   3.192   2.018 -0.1019  1.5144  0.5388
 4974SOL    HW215607   1.445   3.142   1.976 -1.2608 -1.4370  0.0698
 4975SOL     OW15608   6.058   5.906   5.446  0.2770 -0.5738  0.2185
 4975SOL    HW115609   6.020   5.951   5.522 -1.0963 -0.3988 -0.5516
 4975SOL    HW215610   6.024   5.953   5.370  0.4634 -1.6435 -0.5540
 4976SOL     OW15611   3.906   2.042   3.445  0.4604 -0.5089  0.1230
 4976SOL    HW115612   3.872   1.991   3.518 -0.9812 -0.0726 -0.2019
 4976SOL    HW215613   3.865   2.003   3.368 -0.0737  0.6444 -0.1981
 4977SOL     OW15614   1.858   1.437   5.822 -0.5755 -0.0001  0.4102
 4977SOL    HW115615   1.766   1.442   5.798 -0.5334 -0.1088  0.2177
 4977SOL    HW215616   1.900   1.504   5.768 -0.6566  0.5837  1.0723
 4978SOL     OW15617   4.637   0.847   0.724 -0.0362 -0.0055  0.5828
 4978SOL    HW115618   4.661   0.938   0.706  2.5982 -0.7490 -0.0603
 4978SOL    HW215619   4.611   0.847   0.816 -0.8655  1.5024  0.3854
 4979SOL     OW15620   1.222   1.415   2.967  0.2486 -0.7945 -0.1918
 4979SOL    HW115621   1.154   1.393   2.904  0.3444 -0.2618 -0.4918
 4979SOL    HW215622   1.206   1.357   3.041 -2.5930  1.4696  1.1645
 4980SOL     OW15623   0.080   1.770   5.837  0.4171 -0.0627  0.8926
 4980SOL    HW115624   0.135   1.714   5.782 -0.5509  0.1218 -0.3056
 4980SOL    HW215625   0.140   1.837   5.870  0.6584  1.2516 -1.8661
 4981SOL     OW15626   5.699   3.639   3.043  0.2480  0.2522 -0.4290
 4981SOL    HW115627   5.697   3.673   3.132  0.8460  0.4701 -0.4929
 4981SOL    HW215628   5.608   3.620   3.022  0.3481 -2.5466  1.2523
 4982SOL     OW15629   3.392   1.011   2.207  0.3285 -0.4716 -0.1434
 4982SOL    HW115630   3.459   0.943   2.204 -0.4392 -1.2411 -0.5836
 4982SOL    HW215631   3.341   0.998   2.126  1.4896  2.0473 -1.4096
 4983SOL     OW15632   2.536   1.559   1.457  1.0166  0.3763  0.2363
 4983SOL    HW115633   2.509   1.601   1.539  2.4558  0.8754  0.4729
 4983SOL    HW215634   2.609   1.612   1.426  0.6805  0.0219 -1.2344
 4984SOL     OW15635   0.365   4.094   0.171  0.1989  0.0732 -0.8853
 4984SOL    HW115636   0.349   4.120   0.080  0.1903 -1.4273 -1.3305
 4984SOL    HW215637   0.357   3.999   0.171  0.1946  0.0473  0.6969
 4985SOL     OW15638   0.716   1.664   2.709 -0.0524  0.1042  0.0370
 4985SOL    HW115639   0.623   1.643   2.708  0.0848 -0.5190 -0.5912
 4985SOL    HW215640   0.721   1.751   2.749 -0.8090 -0.2672  0.9863
 4986SOL     OW15641   6.192   2.352   3.929  0.0668 -0.1803 -0.0999
 4986SOL    HW115642   6.142   2.319   4.003  0.3906 -2.4561 -0.8406
 4986SOL    HW215643   6.282   2.360   3.961 -0.2216  1.3204  0.4413
 4987SOL     OW15644   5.522   4.970   6.034  0.5580  1.0141 -0.5710
 4987SOL    HW115645   5.511   5.001   6.124  0.2498  1.6286 -0.8137
 4987SOL    HW215646   5.490   4.880   6.035 -0.9198  1.5159 -0.3950
 4988SOL     OW15647   4.306   2.287   1.509  0.6568  0.3379 -0.9468
 4988SOL    HW115648   4.332   2.265   1.420 -0.2614  0.5961 -1.2933
 4988SOL    HW215649   4.364   2.359   1.535  1.5429 -0.3542 -0.9828
 4989SOL     OW15650   3.713   1.009   2.122  0.3107  0.0001 -0.2503
 4989SOL    HW115651   3.808   1.022   2.129  0.1910  1.1814 -0.6447
 4989SOL    HW215652   3.697   0.927   2.168  1.4832 -0.0372  0.1243
 4990SOL     OW15653   3.761   4.893   0.971 -0.3920  0.3228 -0.0058
 4990SOL    HW115654   3.669   4.916   0.957 -0.2983 -0.2798 -1.7823
 4990SOL    HW215655   3.788   4.850   0.890  1.3647  0.1517  0.6305
 4991SOL     OW15656   2.106   4.408   2.522  0.3227  0.5368 -0.0924
 4991SOL    HW115657   2.130   4.473   2.456 -0.1235  1.3080  0.4873
 4991SOL    HW215658   2.135   4.325   2.486 -0.6283  0.8364 -1.6227
 4992SOL     OW15659   3.036   1.155   1.271 -0.0154  0.0912 -0.3013
 4992SOL    HW115660   2.952   1.109   1.275  0.5784 -0.9287  1.2582
 4992SOL    HW215661   3.088   1.105   1.208 -0.5688  0.7555 -1.3095
 4993SOL     OW15662   1.156   1.535   1.345  0.2435 -0.5204  0.0199
 4993SOL    HW115663   1.227   1.498   1.398  0.3792  0.6423  0.6994
 4993SOL    HW215664   1.202   1.581   1.274  0.4256  2.4612  1.8707
 4994SOL     OW15665   2.342   2.708   1.738 -0.5729 -0.3945  0.5642
 4994SOL    HW115666   2.391   2.626   1.731  0.1362  0.0730 -0.0890
 4994SOL    HW215667   2.381   2.753   1.813 -2.0231 -1.3290  1.9447
 4995SOL     OW15668   4.094   0.238   2.579 -0.3916  0.1081  0.4744
 4995SOL    HW115669   4.119   0.178   2.510 -0.5963  0.4127  0.1326
 4995SOL    HW215670   3.999   0.228   2.587 -0.0977 -1.9431  2.5950
 4996SOL     OW15671   3.222   3.697   2.005 -1.1460  0.0692  0.1595
 4996SOL    HW115672   3.222   3.601   2.013  0.1195 -0.0690 -1.0464
 4996SOL    HW215673   3.300   3.724   2.055 -1.5404  0.4856  0.5567
 4997SOL     OW15674   0.786   5.424   4.897  0.7384  0.1085 -0.2401
 4997SOL    HW115675   0.845   5.499   4.890  1.0701 -0.1904 -0.6912
 4997SOL    HW215676   0.702   5.461   4.924  1.1606  0.5246  0.5205
 4998SOL     OW15677   4.870   4.984   1.963  0.2508 -0.0098 -0.3681
 4998SOL    HW115678   4.839   5.033   2.039  0.4071 -0.3435 -0.0838
 4998SOL    HW215679   4.803   4.917   1.948  0.8506 -0.7720  0.2865
 4999SOL     OW15680   1.032   5.112   4.082  0.3571 -0.3157 -0.0276
 4999SOL    HW115681   0.952   5.074   4.047  0.3851 -0.9434  0.5637
 4999SOL    HW215682   1.034   5.201   4.047 -0.9754 -0.0374  0.5484
 5000SOL     OW15683   4.158   0.358   2.301 -0.5104  0.0305 -0.2419
 5000SOL    HW115684   4.183   0.371   2.392  1.3110  2.7999 -1.0345
 5000SOL    HW215685   4.068   0.391   2.296  0.0512  1.6804  0.1904
 5001SOL     OW15686   4.702   5.607   4.180  0.3015 -0.3348 -0.6991
 5001SOL    HW115687   4.627   5.563   4.222  1.1534 -1.2387 -0.0772
 5001SOL    HW215688   4.725   5.551   4.106 -0.6713  0.8261 -1.9147
 5002SOL     OW15689   1.154   5.740   6.308  0.2819  0.6950 -0.0054
 5002SOL    HW115690   1.199   5.665   6.346 -1.4262  0.3298  1.3906
 5002SOL    HW215691   1.208   5.816   6.333  1.4144  0.0745 -0.4870
 5003SOL     OW15692   4.541   5.436   6.142 -0.0987 -0.6639 -0.0407
 5003SOL    HW115693   4.523   5.497   6.070  0.7888  0.0966  0.3637
 5003SOL    HW215694   4.455   5.405   6.169 -0.5227 -0.0681 -0.6691
 5004SOL     OW15695   2.252   4.924   4.988 -0.1704 -0.0869  0.5281
 5004SOL    HW115696   2.286   4.970   5.066  0.0794  0.1600  0.2751
 5004SOL    HW215697   2.242   4.993   4.923 -1.0847 -0.1710  0.5689
 5005SOL     OW15698   5.507   1.100   3.535  0.3613  0.2491  0.0815
 5005SOL    HW115699   5.447   1.060   3.473  0.2493 -0.6916  0.7854
 5005SOL    HW215700   5.593   1.064   3.513  0.3443  0.0242  0.3779
 5006SOL     OW15701   6.149   0.749   0.666  0.5566 -0.0119  0.3113
 5006SOL    HW115702   6.216   0.817   0.672 -0.1979  0.6346  1.9596
 5006SOL    HW215703   6.182   0.679   0.723  0.5094 -0.3052 -0.0196
 5007SOL     OW15704   1.233   0.326   0.123 -0.8649  0.2950  0.1172
 5007SOL    HW115705   1.231   0.294   0.032  0.7874 -1.7973  0.7173
 5007SOL    HW215706   1.322   0.360   0.134 -0.7509 -0.3086  1.1914
 5008SOL     OW15707   2.475   1.995   2.865 -0.1883  0.3562  0.3461
 5008SOL    HW115708   2.437   1.978   2.778 -2.6404  0.4457  1.3176
 5008SOL    HW215709   2.485   1.909   2.904  2.6407  0.1516 -0.5954
 5009SOL     OW15710   0.871   1.435   3.193  0.1553 -0.1254  0.6651
 5009SOL    HW115711   0.856   1.416   3.101  0.8015  1.0573  0.2939
 5009SOL    HW215712   0.893   1.528   3.195 -2.1884  0.5075  2.2814
 5010SOL     OW15713   0.038   4.200   5.165  0.0879  0.1866  0.7593
 5010SOL    HW115714  -0.055   4.179   5.174 -0.0807  0.9671  0.9615
 5010SOL    HW215715   0.048   4.227   5.073  0.1349  0.0112  0.7128
 5011SOL     OW15716   5.497   0.067   3.505  0.0126 -0.0167  0.2699
 5011SOL    HW115717   5.409   0.060   3.467  0.0700  0.2369  0.0815
 5011SOL    HW215718   5.555   0.053   3.430  0.1314  1.4518  0.0558
 5012SOL     OW15719   4.251   0.967   2.359  0.0242  0.0097 -0.7673
 5012SOL    HW115720   4.292   0.886   2.330 -0.5654 -0.5747 -0.0304
 5012SOL    HW215721   4.201   0.941   2.437  1.2058  1.4220  0.5123
 5013SOL     OW15722   5.128   1.961   3.151 -0.5351  0.1047 -0.4726
 5013SOL    HW115723   5.173   1.901   3.210  1.0559  0.7621 -0.9495
 5013SOL    HW215724   5.120   1.913   3.068  0.3058  0.3543 -0.7107
 5014SOL     OW15725   1.977   2.056   1.381  0.1565  0.2725 -0.7748
 5014SOL    HW115726   2.040   2.099   1.323 -0.3706  0.4083 -1.2590
 5014SOL    HW215727   1.891   2.084   1.348 -0.1679  1.9945  1.2846
 5015SOL     OW15728   4.651   6.243   2.701 -0.1009  0.0515 -0.4417
 5015SOL    HW115729   4.619   6.190   2.774  1.2438  1.6727  1.4198
 5015SOL    HW215730   4.686   6.180   2.638  1.2076 -1.3139  1.5651
 5016SOL     OW15731   1.434   4.535   4.705 -0.3540 -0.1374 -0.5680
 5016SOL    HW115732   1.500   4.531   4.635  0.8643 -0.4341  0.5664
 5016SOL    HW215733   1.484   4.545   4.785 -1.7160 -0.1583  0.3198
 5017SOL     OW15734   6.299   6.172   0.920 -0.3530  0.4222 -0.7230
 5017SOL    HW115735   6.353   6.250   0.911  1.5924 -0.6748  0.6927
 5017SOL    HW215736   6.213   6.204   0.947  0.3073  2.0668 -0.4955
 5018SOL     OW15737   5.946   6.045   5.973 -0.0770 -0.2019  0.5857
 5018SOL    HW115738   5.852   6.026   5.975 -0.5568  1.8068 -0.5545
 5018SOL    HW215739   5.953   6.133   6.008  1.4910 -0.5508  1.2326
 5019SOL     OW15740   5.218   2.192   2.863 -0.4046  0.1859 -0.2916
 5019SOL    HW115741   5.213   2.099   2.841  0.4798 -0.0679  0.5345
 5019SOL    HW215742   5.255   2.233   2.784 -1.0595 -0.1117 -0.7597
 5020SOL     OW15743   5.197   6.458   1.695 -0.0845  0.0748  0.3714
 5020SOL    HW115744   5.216   6.466   1.789 -0.6771 -0.2362  0.5173
 5020SOL    HW215745   5.153   6.374   1.686  1.3928 -0.6535 -0.4166
 5021SOL     OW15746   0.174   3.133   6.133 -0.3346  0.2721 -0.2616
 5021SOL    HW115747   0.130   3.140   6.217 -0.4475  1.3441 -0.3935
 5021SOL    HW215748   0.165   3.220   6.094 -0.1477 -0.1663 -1.3108
 5022SOL     OW15749   1.540   0.562   0.528 -0.2221  0.6723 -0.4246
 5022SOL    HW115750   1.470   0.586   0.467 -1.7115  1.2472  1.4455
 5022SOL    HW215751   1.620   0.587   0.482 -1.1991 -0.0050 -2.6247
 5023SOL     OW15752   0.417   5.241   5.969 -0.0279 -0.2448  0.1588
 5023SOL    HW115753   0.349   5.217   6.031  0.9717 -0.1458  1.3260
 5023SOL    HW215754   0.387   5.324   5.931 -0.9365 -0.6209  0.0322
 5024SOL     OW15755   6.512   1.180   3.526 -0.3202 -0.3704  0.4337
 5024SOL    HW115756   6.544   1.171   3.436  0.1722 -2.7197  0.7694
 5024SOL    HW215757   6.431   1.230   3.518 -0.0357 -0.1224 -1.2532
 5025SOL     OW15758   0.795   4.895   0.650 -0.3714  0.5849  0.3399
 5025SOL    HW115759   0.877   4.941   0.631  0.2091 -0.9887 -1.1092
 5025SOL    HW215760   0.766   4.860   0.566 -0.8902 -1.5445  1.3539
 5026SOL     OW15761   1.623   4.818   0.011 -0.3891 -0.2488  0.5100
 5026SOL    HW115762   1.661   4.828  -0.077 -1.4959 -0.2090  0.0155
 5026SOL    HW215763   1.698   4.817   0.070  0.3010  2.1238 -0.2127
 5027SOL     OW15764   5.254   3.655   4.310 -0.2613  0.6307 -0.2900
 5027SOL    HW115765   5.282   3.616   4.227  0.7746  0.3074  0.1960
 5027SOL    HW215766   5.207   3.585   4.355  0.9364  0.1590  0.2542
 5028SOL     OW15767   3.148   2.982   4.373  0.0857 -0.2334 -0.2286
 5028SOL    HW115768   3.228   2.929   4.371 -0.1484 -0.6271  0.5088
 5028SOL    HW215769   3.105   2.963   4.289  0.1899 -0.9365 -0.1313
 5029SOL     OW15770   4.171   4.610   4.221 -0.2627 -0.4994 -0.2154
 5029SOL    HW115771   4.144   4.670   4.291 -0.6482 -1.3105  0.3552
 5029SOL    HW215772   4.208   4.667   4.153 -0.3727  0.3517  0.4183
 5030SOL     OW15773   4.017   1.545   4.547  0.6269  0.0949 -0.6628
 5030SOL    HW115774   4.076   1.470   4.542  0.2010 -0.4641  1.5364
 5030SOL    HW215775   4.063   1.615   4.502  1.2182 -1.3517 -2.4152
 5031SOL     OW15776   6.012   1.208   5.321  0.1581 -0.2314  0.1657
 5031SOL    HW115777   5.966   1.134   5.360  0.6750 -0.9737 -0.6083
 5031SOL    HW215778   6.074   1.169   5.260 -0.0613  0.8660 -0.8040
 5032SOL     OW15779   4.549   5.825   4.981  0.0454  0.1697 -0.5443
 5032SOL    HW115780   4.644   5.820   4.976  0.0507  0.2255 -0.5070
 5032SOL    HW215781   4.528   5.796   5.070  0.1189  1.3036 -0.1430
 5033SOL     OW15782   6.196   4.183   2.818  0.5406  0.2417 -1.0707
 5033SOL    HW115783   6.160   4.227   2.895  1.1903  1.0164 -1.2003
 5033SOL    HW215784   6.199   4.090   2.843 -0.7888  0.2589 -0.7801
 5034SOL     OW15785   3.095   5.404   0.033 -0.2509 -0.1584 -0.0061
 5034SOL    HW115786   3.135   5.364  -0.044 -2.2540 -1.3414 -0.5238
 5034SOL    HW215787   3.157   5.471   0.061  1.1254 -0.5701 -1.8775
 5035SOL     OW15788   3.418   4.105   3.126  0.0914 -0.4616  0.3947
 5035SOL    HW115789   3.338   4.154   3.145  0.2999 -0.4609  1.3593
 5035SOL    HW215790   3.414   4.086   3.033  1.4568  3.9748 -0.7934
 5036SOL     OW15791   2.874   4.882   1.112  0.5778 -0.3951 -0.0924
 5036SOL    HW115792   2.846   4.812   1.053 -1.1888 -0.4285  0.7131
 5036SOL    HW215793   2.969   4.874   1.115  0.4351 -3.0155  0.2543
 5037SOL     OW15794   1.860   0.797   5.544  0.7226 -0.3972 -0.0755
 5037SOL    HW115795   1.918   0.869   5.518 -1.3510  1.0863 -0.8344
 5037SOL    HW215796   1.840   0.752   5.461 -0.7531  0.3320 -0.1360
 5038SOL     OW15797   1.456   1.194   5.355  0.2396  0.3196  0.1619
 5038SOL    HW115798   1.389   1.262   5.339 -0.3540 -0.5098 -1.0788
 5038SOL    HW215799   1.458   1.184   5.450 -1.2431  0.5317  0.2398
 5039SOL     OW15800   5.447   2.048   3.335 -0.3016  0.2412  0.3227
 5039SOL    HW115801   5.431   2.106   3.410 -2.9635 -0.3451  0.3263
 5039SOL    HW215802   5.455   2.107   3.260  0.1707  0.7464  0.7699
 5040SOL     OW15803   1.614   5.908   1.972 -0.6053 -0.0448  0.0489
 5040SOL    HW115804   1.661   5.945   2.046 -1.2910 -1.9827  1.5575
 5040SOL    HW215805   1.597   5.817   1.997 -2.6856 -0.2062 -1.5984
 5041SOL     OW15806   1.205   1.446   0.115  0.5521  0.2131  0.2858
 5041SOL    HW115807   1.130   1.491   0.075  0.5624 -1.1965 -1.4390
 5041SOL    HW215808   1.167   1.400   0.190 -0.3739 -0.5599 -0.6192
 5042SOL     OW15809   4.879   0.949   6.388  0.1195  0.0440  0.4192
 5042SOL    HW115810   4.811   0.909   6.442  0.0948 -0.2552  0.1722
 5042SOL    HW215811   4.857   0.921   6.299  0.0416  0.6978  0.2331
 5043SOL     OW15812   4.698   5.585   1.081  0.3563 -0.4281 -0.2201
 5043SOL    HW115813   4.690   5.608   1.173  1.8644 -1.4100  0.1870
 5043SOL    HW215814   4.610   5.555   1.056  0.2695 -1.4985  1.2824
 5044SOL     OW15815   1.560   2.974   1.037  0.0447 -0.4417  0.3562
 5044SOL    HW115816   1.480   2.941   0.995 -1.2159  0.2916  2.0813
 5044SOL    HW215817   1.586   3.048   0.982 -1.5077  0.4267  0.7195
 5045SOL     OW15818   5.373   0.533   1.851 -0.0414 -0.0247  0.1881
 5045SOL    HW115819   5.323   0.451   1.860 -2.5649  1.2227 -1.2593
 5045SOL    HW215820   5.353   0.581   1.932  0.1759 -0.2030  0.3492
 5046SOL     OW15821   0.010   4.148   4.403 -0.0549  0.0476 -0.3872
 5046SOL    HW115822   0.034   4.224   4.350  0.8189 -0.6285 -1.0184
 5046SOL    HW215823  -0.074   4.170   4.442  0.9540  2.0002  0.7913
 5047SOL     OW15824   4.393   5.667   4.206 -0.6717 -0.2630  0.1051
 5047SOL    HW115825   4.424   5.698   4.291 -0.7912 -0.5331  0.2518
 5047SOL    HW215826   4.418   5.735   4.144 -0.6815 -0.0111  0.3749
 5048SOL     OW15827   4.218   0.410   2.746 -0.0262  0.1636 -1.2990
 5048SOL    HW115828   4.242   0.369   2.829  0.9857  1.2225 -1.0475
 5048SOL    HW215829   4.175   0.340   2.696 -3.8501  0.2924  1.3737
 5049SOL     OW15830   1.194   2.933   6.348 -0.1294  0.0566 -0.2603
 5049SOL    HW115831   1.166   3.024   6.340 -0.1508  0.0419 -0.3569
 5049SOL    HW215832   1.125   2.891   6.400  0.5399  0.3909  0.9316
 5050SOL     OW15833   3.062   6.102   5.659  0.1835  0.1527  0.4447
 5050SOL    HW115834   3.000   6.074   5.592  1.1761  1.7035 -1.2280
 5050SOL    HW215835   3.014   6.166   5.711 -0.1398  0.0791  0.2396
 5051SOL     OW15836   5.838   0.620   0.193 -0.8811 -0.0911 -0.1171
 5051SOL    HW115837   5.885   0.696   0.226  0.6038 -1.3796  0.9116
 5051SOL    HW215838   5.746   0.648   0.188 -0.4250  1.6271  0.5622
 5052SOL     OW15839   3.866   5.362   5.420 -0.0284  0.4917 -0.2544
 5052SOL    HW115840   3.883   5.403   5.335 -2.4534  2.2387 -0.0027
 5052SOL    HW215841   3.817   5.282   5.399 -0.6973  0.9636 -0.5181
 5053SOL     OW15842   0.322   2.719   3.213  0.1886 -0.1266  0.1193
 5053SOL    HW115843   0.321   2.799   3.160  0.1803 -0.4436 -0.3631
 5053SOL    HW215844   0.272   2.742   3.292  0.0582  0.2955 -0.0857
 5054SOL     OW15845   3.532   3.575   1.704 -0.3030  0.3861  0.1298
 5054SOL    HW115846   3.558   3.497   1.753  0.2763  0.5203  0.0447
 5054SOL    HW215847   3.580   3.569   1.622 -0.4612  0.7020  0.0126
 5055SOL     OW15848   2.985   3.222   1.348  0.0752 -0.3059  0.4168
 5055SOL    HW115849   2.898   3.254   1.326 -0.7527 -2.6534 -0.0869
 5055SOL    HW215850   2.991   3.137   1.304  3.1430  0.3267 -0.6427
 5056SOL     OW15851   2.076   5.439   2.975 -0.3197 -0.0444  0.1524
 5056SOL    HW115852   2.017   5.364   2.978 -0.7187  0.2628  0.0944
 5056SOL    HW215853   2.036   5.499   2.912 -0.4142  0.5529  0.7608
 5057SOL     OW15854   4.741   1.460   0.708  0.3345  0.2803 -0.1441
 5057SOL    HW115855   4.818   1.471   0.652  1.3105 -3.3618  0.2024
 5057SOL    HW215856   4.669   1.444   0.647  0.4261  0.8696 -0.4122
 5058SOL     OW15857   3.379   2.073   1.230  0.0132 -0.3915  0.1749
 5058SOL    HW115858   3.465   2.089   1.192  0.8248 -1.1432  1.6212
 5058SOL    HW215859   3.379   2.124   1.312  0.5341 -3.1512  2.0326
 5059SOL     OW15860   4.918   5.171   3.720 -0.1548 -0.6323  0.2793
 5059SOL    HW115861   4.880   5.083   3.716 -2.4127  0.1416  2.3041
 5059SOL    HW215862   4.978   5.168   3.795 -0.3154 -0.4493  0.4182
 5060SOL     OW15863   2.018   0.580   2.963  0.4448  0.3912 -0.1560
 5060SOL    HW115864   2.015   0.493   2.923 -0.2522 -0.3975  1.5204
 5060SOL    HW215865   1.927   0.605   2.974  0.6206  0.5846  0.9170
 5061SOL     OW15866   6.423   0.112   5.982 -0.4909  0.0312 -0.2145
 5061SOL    HW115867   6.334   0.134   5.954 -0.6515 -0.6738 -0.2885
 5061SOL    HW215868   6.458   0.060   5.910  0.1061  0.5936 -0.3326
 5062SOL     OW15869   4.559   0.539   1.741 -0.0060  0.1575  0.1908
 5062SOL    HW115870   4.489   0.570   1.799  0.9367 -2.4208  2.9176
 5062SOL    HW215871   4.635   0.592   1.765 -0.3799  1.3305 -1.0984
 5063SOL     OW15872   3.853   5.682   1.705  0.6385  0.0918 -0.3694
 5063SOL    HW115873   3.865   5.776   1.717 -0.1494  0.0823  0.6035
 5063SOL    HW215874   3.853   5.670   1.610  3.7093  0.6362 -0.5361
 5064SOL     OW15875   3.461   1.880   4.462  0.3124  1.1322 -0.5926
 5064SOL    HW115876   3.510   1.878   4.380 -0.4377  0.5092 -1.0391
 5064SOL    HW215877   3.393   1.814   4.451 -0.7794  2.1292 -0.0917
 5065SOL     OW15878   4.979   0.800   5.343  0.2607  0.6923  0.2202
 5065SOL    HW115879   5.056   0.747   5.361 -0.2842 -0.6396 -1.1865
 5065SOL    HW215880   4.906   0.737   5.342 -0.9490  1.9474  1.8932
 5066SOL     OW15881   3.824   1.374   0.016 -0.2129  0.2251 -0.0977
 5066SOL    HW115882   3.889   1.444   0.026  1.4693 -1.5313  2.8520
 5066SOL    HW215883   3.876   1.294   0.009 -2.0860 -1.0132 -0.4912
 5067SOL     OW15884   2.552   2.162   6.381 -0.3579  0.0777  0.0421
 5067SOL    HW115885   2.464   2.136   6.409 -0.8288  0.8471 -0.6665
 5067SOL    HW215886   2.568   2.244   6.428  0.4388 -0.5946  0.9932
 5068SOL     OW15887   2.592   1.168   5.317 -0.0232 -0.2049 -0.1988
 5068SOL    HW115888   2.608   1.262   5.305 -0.3478 -0.1049  0.1208
 5068SOL    HW215889   2.673   1.136   5.358 -0.0863  0.0259  0.1137
 5069SOL     OW15890   4.923   1.321   5.736  0.8916  0.1135 -0.6469
 5069SOL    HW115891   4.836   1.326   5.776  2.2444 -0.6971  2.7772
 5069SOL    HW215892   4.936   1.229   5.717  2.0937 -0.3291  1.8930
 5070SOL     OW15893   2.327   1.837   1.720 -0.4083 -0.6410 -0.0859
 5070SOL    HW115894   2.372   1.882   1.649  2.3726 -0.7567  1.4325
 5070SOL    HW215895   2.307   1.906   1.783  0.7390 -0.9916  0.7065
 5071SOL     OW15896   1.355   1.496   1.754  0.1269 -0.0606  0.0114
 5071SOL    HW115897   1.424   1.531   1.811  0.9910 -0.0333 -1.0215
 5071SOL    HW215898   1.284   1.560   1.760  0.7541  0.6540 -0.0033
 5072SOL     OW15899   4.870   5.391   1.939  0.6983 -0.1411  0.3172
 5072SOL    HW115900   4.823   5.433   2.011 -2.3404  1.6843 -2.4685
 5072SOL    HW215901   4.826   5.307   1.927  1.9178 -0.9406  1.1642
 5073SOL     OW15902   1.553   1.102   0.719 -0.1169  0.5015  0.4035
 5073SOL    HW115903   1.577   1.009   0.728 -1.2309  0.3830  3.6507
 5073SOL    HW215904   1.628   1.149   0.755 -0.9183  0.6128  2.0089
 5074SOL     OW15905   0.854   1.656   5.227 -0.2248 -0.5543  0.1536
 5074SOL    HW115906   0.846   1.581   5.285 -2.1278 -0.7030 -0.2152
 5074SOL    HW215907   0.886   1.727   5.283 -2.7719 -0.4789  1.6689
 5075SOL     OW15908   2.716   5.041   4.142 -0.7708  0.0441  0.1324
 5075SOL    HW115909   2.718   5.132   4.173 -1.4874  0.4718 -0.9850
 5075SOL    HW215910   2.623   5.021   4.134 -0.6144 -0.7018  0.0992
 5076SOL     OW15911   5.811   2.348   2.712  0.1049 -0.1697 -0.3566
 5076SOL    HW115912   5.734   2.401   2.733 -0.8186 -1.0563 -1.4011
 5076SOL    HW215913   5.884   2.410   2.716 -1.0779  1.4957 -2.6492
 5077SOL     OW15914   3.860   0.632   3.684 -0.0983 -0.3693 -0.4302
 5077SOL    HW115915   3.916   0.604   3.756 -2.3917 -2.2086  0.7838
 5077SOL    HW215916   3.850   0.727   3.697  0.2426 -0.5215  1.1474
 5078SOL     OW15917   0.437   0.258   0.139 -0.2709 -0.4015  0.1598
 5078SOL    HW115918   0.486   0.204   0.201 -0.0164 -0.0167  0.3001
 5078SOL    HW215919   0.453   0.217   0.054 -1.4553 -1.5395  0.4538
 5079SOL     OW15920   1.272   4.100   5.530 -0.1004  0.2974  0.1214
 5079SOL    HW115921   1.199   4.039   5.542  0.1295 -0.2497 -1.0776
 5079SOL    HW215922   1.277   4.148   5.612 -1.3702 -0.1337  0.4800
 5080SOL     OW15923   6.275   2.432   1.574  0.0732  0.4251 -0.5546
 5080SOL    HW115924   6.216   2.357   1.568 -0.0964  0.3514  1.4051
 5080SOL    HW215925   6.224   2.499   1.621  0.7337  1.2248 -0.9558
 5081SOL     OW15926   2.376   1.843   5.276  0.6401 -0.4373 -0.1818
 5081SOL    HW115927   2.375   1.750   5.253  1.1601 -0.5217  0.1110
 5081SOL    HW215928   2.466   1.859   5.303  0.5631  0.1687 -0.2868
 5082SOL     OW15929   5.201   5.378   2.758  0.4662 -0.4975  0.6298
 5082SOL    HW115930   5.166   5.402   2.844 -1.0308  0.8584 -0.3096
 5082SOL    HW215931   5.141   5.418   2.696  0.7735 -2.5425 -1.0787
 5083SOL     OW15932   6.155   3.874   3.965  0.3579 -0.2664  0.6658
 5083SOL    HW115933   6.159   3.934   3.891 -0.6385  0.5130  1.2251
 5083SOL    HW215934   6.129   3.790   3.927  0.5262 -0.0405  0.0432
 5084SOL     OW15935   4.707   3.743   2.461 -0.2502 -0.2724 -0.1073
 5084SOL    HW115936   4.614   3.749   2.482 -0.5894 -1.4271 -1.1183
 5084SOL    HW215937   4.721   3.650   2.442  0.6307  0.1848 -1.9404
 5085SOL     OW15938   6.227   3.666   1.929 -0.0544 -0.1704  0.0168
 5085SOL    HW115939   6.148   3.675   1.877  1.1322  0.8703 -1.7280
 5085SOL    HW215940   6.201   3.690   2.018 -1.6287  0.4195 -0.5724
 5086SOL     OW15941   1.750   6.448   3.608 -0.0850 -0.3153  0.1468
 5086SOL    HW115942   1.786   6.528   3.570 -2.0907  0.6937  0.1992
 5086SOL    HW215943   1.688   6.416   3.543 -2.3162  0.4917  1.7446
 5087SOL     OW15944   1.516   6.423   5.753 -0.0956 -0.8702 -0.3856
 5087SOL    HW115945   1.437   6.398   5.800 -1.5582  2.1238 -0.9723
 5087SOL    HW215946   1.527   6.356   5.686 -2.8072 -0.8651 -0.9535
 5088SOL     OW15947   4.591   2.598   2.497  0.4454 -0.2335 -0.3658
 5088SOL    HW115948   4.570   2.590   2.590 -2.0241  0.5768 -0.7625
 5088SOL    HW215949   4.577   2.510   2.462 -1.1574 -0.0102 -0.3651
 5089SOL     OW15950   6.091   4.230   6.139  0.4961  0.0857  0.3595
 5089SOL    HW115951   6.002   4.208   6.111  0.7131 -1.1219  0.5641
 5089SOL    HW215952   6.081   4.311   6.189 -0.4646  0.0483  0.2491
 5090SOL     OW15953   0.812   5.210   3.062  0.0607 -0.9054  0.2601
 5090SOL    HW115954   0.767   5.156   2.997 -0.6671  0.8856 -0.7794
 5090SOL    HW215955   0.842   5.286   3.013  1.3415 -0.4816  1.6279
 5091SOL     OW15956   0.631   4.605   6.264  0.7346 -0.3006  0.3262
 5091SOL    HW115957   0.619   4.510   6.270  0.9136 -0.2705  1.3299
 5091SOL    HW215958   0.551   4.641   6.301  0.8929 -0.0613  0.4355
 5092SOL     OW15959   5.134   5.977   6.495  0.1485  0.6263  0.0670
 5092SOL    HW115960   5.146   5.979   6.400 -2.5293  0.5500 -0.3284
 5092SOL    HW215961   5.164   5.889   6.520 -1.0027 -0.1073 -1.0263
 5093SOL     OW15962   1.557   2.558   3.190 -0.3855 -0.7206 -0.2671
 5093SOL    HW115963   1.525   2.544   3.279  2.8176 -1.0913  0.9787
 5093SOL    HW215964   1.629   2.494   3.180  1.2153  1.2024 -2.0266
 5094SOL     OW15965   5.985   5.528   5.195 -0.3377 -0.5377  0.1131
 5094SOL    HW115966   5.943   5.605   5.158  0.1722  0.9670  2.4381
 5094SOL    HW215967   6.076   5.535   5.168 -0.0113  0.4477  1.3327
 5095SOL     OW15968   6.251   5.532   3.095 -0.9290  0.3080  0.6322
 5095SOL    HW115969   6.291   5.446   3.105 -0.1483  0.7582  1.4476
 5095SOL    HW215970   6.207   5.528   3.010 -0.9234 -0.8960  0.6732
 5096SOL     OW15971   2.869   5.791   5.294  0.0653  0.4938 -0.1238
 5096SOL    HW115972   2.799   5.849   5.323 -1.2603 -0.9184 -0.3609
 5096SOL    HW215973   2.866   5.795   5.199  1.9847  2.2971 -0.1795
 5097SOL     OW15974   5.807   3.307   5.719  0.6834  0.3143 -0.2437
 5097SOL    HW115975   5.724   3.296   5.766 -0.1359  0.0433 -1.6743
 5097SOL    HW215976   5.813   3.400   5.701  1.4814  0.5659  1.1876
 5098SOL     OW15977   5.298   4.434   4.630 -0.1168 -0.0507 -0.5349
 5098SOL    HW115978   5.305   4.483   4.712  0.8155 -0.6665 -0.2383
 5098SOL    HW215979   5.222   4.473   4.586 -0.3099  0.6396  0.3738
 5099SOL     OW15980   5.310   3.335   1.342 -0.2234 -0.1656 -0.4794
 5099SOL    HW115981   5.361   3.304   1.267  1.0164  1.2916 -0.2657
 5099SOL    HW215982   5.322   3.430   1.342  0.3787 -0.1861  1.9637
 5100SOL     OW15983   3.407   3.890   3.471  0.2891  0.1086  0.1207
 5100SOL    HW115984   3.354   3.911   3.548  0.8385 -1.2907  0.9270
 5100SOL    HW215985   3.461   3.816   3.499  0.3561 -0.5784 -1.6807
 5101SOL     OW15986   4.945   3.694   3.328 -0.3152 -0.2181 -0.2596
 5101SOL    HW115987   4.876   3.753   3.299  0.3467  0.0693 -1.3077
 5101SOL    HW215988   4.912   3.607   3.307 -0.5245 -0.1088 -0.3908
 5102SOL     OW15989   3.797   2.443   1.862 -0.2080  0.1991 -0.0427
 5102SOL    HW115990   3.719   2.474   1.909  0.6022 -0.0275  1.5049
 5102SOL    HW215991   3.859   2.515   1.868  0.0584  0.0089 -0.4453
 5103SOL     OW15992   3.065   6.020   0.573 -0.3647  0.0509  0.1733
 5103SOL    HW115993   3.122   5.946   0.592  1.1748  1.4758  1.5319
 5103SOL    HW215994   3.000   6.019   0.644  0.5793  0.8221  1.0834
 5104SOL     OW15995   5.594   3.334   1.688 -0.3113 -0.2239 -0.5931
 5104SOL    HW115996   5.690   3.330   1.684 -0.2658  0.7263 -0.7353
 5104SOL    HW215997   5.571   3.406   1.630 -1.1440 -0.6632 -0.8233
 5105SOL     OW15998   3.911   5.254   2.551  0.5911 -0.5033 -0.6399
 5105SOL    HW115999   3.849   5.182   2.540  1.1574 -0.7439 -2.5886
 5105SOL    HW216000   3.857   5.329   2.576 -0.2458 -1.1207 -0.5388
 5106SOL     OW16001   0.706   2.954   4.233 -0.6281  0.0935 -0.2464
 5106SOL    HW116002   0.732   2.895   4.303  1.0443  0.3970 -0.5806
 5106SOL    HW216003   0.778   2.950   4.170 -1.5527  0.7294 -1.3794
 5107SOL     OW16004   0.024   0.744   1.611 -0.0047 -0.0416 -0.2913
 5107SOL    HW116005  -0.052   0.793   1.643 -0.4216 -1.0489  0.3073
 5107SOL    HW216006   0.098   0.804   1.624 -0.7383  1.1579 -1.3856
 5108SOL     OW16007   3.474   2.680   4.801 -0.2768  0.2952  0.9234
 5108SOL    HW116008   3.466   2.764   4.754 -0.8942  1.2187  2.6107
 5108SOL    HW216009   3.569   2.666   4.809 -0.1705  0.7465  0.5209
 5109SOL     OW16010   0.927   2.957   0.176  0.2189 -0.4807 -0.2721
 5109SOL    HW116011   0.932   2.941   0.270  0.3947 -1.0266 -0.3696
 5109SOL    HW216012   0.871   3.034   0.167 -1.2383 -1.4371  0.1839
 5110SOL     OW16013   1.373   4.810   6.176 -0.1873  0.3894  0.2400
 5110SOL    HW116014   1.355   4.754   6.252 -0.1312  1.5444  1.1267
 5110SOL    HW216015   1.457   4.780   6.143  0.0719  0.2659  0.9974
 5111SOL     OW16016   0.386   2.400   3.471 -0.0426  0.2854  0.7218
 5111SOL    HW116017   0.386   2.420   3.377  1.8505 -0.4275  0.5095
 5111SOL    HW216018   0.371   2.484   3.514 -0.7105  0.6631 -0.2135
 5112SOL     OW16019   1.365   4.296   0.314  0.1334 -0.2345 -0.5554
 5112SOL    HW116020   1.311   4.233   0.266  0.0081 -0.0224 -0.6978
 5112SOL    HW216021   1.455   4.270   0.294  0.1641 -1.9837  1.4827
 5113SOL     OW16022   5.195   4.844   1.761  0.3812  0.6029 -0.4385
 5113SOL    HW116023   5.237   4.883   1.684  1.6736  0.5629  0.2152
 5113SOL    HW216024   5.256   4.862   1.832 -0.8141  0.6706  0.5944
 5114SOL     OW16025   0.973   2.770   2.314 -0.1527  0.0725  0.0786
 5114SOL    HW116026   0.943   2.743   2.401 -0.7780  0.9636  0.1538
 5114SOL    HW216027   0.894   2.776   2.261 -0.1970  2.6039  0.3270
 5115SOL     OW16028   1.537   1.885   5.768 -0.0852  0.4831  0.3675
 5115SOL    HW116029   1.513   1.962   5.819  0.0710  0.5278  0.3744
 5115SOL    HW216030   1.471   1.880   5.700 -0.6097  0.1115  0.8945
 5116SOL     OW16031   0.169   5.212   4.012  0.3915  0.4175 -0.4157
 5116SOL    HW116032   0.083   5.172   3.999  0.0883  1.4425 -1.8434
 5116SOL    HW216033   0.231   5.142   3.991 -0.0120 -0.6996  1.7940
 5117SOL     OW16034   1.536   5.649   1.978 -0.7790 -0.1429  0.3855
 5117SOL    HW116035   1.588   5.580   2.019  0.3159  0.1024 -0.5360
 5117SOL    HW216036   1.493   5.606   1.904 -2.4600 -0.4981  1.5033
 5118SOL     OW16037   0.456   0.958   0.557 -0.6702  0.2665  0.2228
 5118SOL    HW116038   0.381   0.968   0.616  1.0869 -0.8904  2.8095
 5118SOL    HW216039   0.525   1.012   0.596  0.2460  0.3710 -1.4439
 5119SOL     OW16040   6.003   6.281   6.111 -0.5215 -0.1502  0.4414
 5119SOL    HW116041   5.911   6.305   6.122  0.0232  2.5291 -0.1603
 5119SOL    HW216042   6.044   6.305   6.194  0.2093  2.0172 -0.4980
 5120SOL     OW16043   3.826   0.777   4.475  0.2442  0.1587  0.0349
 5120SOL    HW116044   3.736   0.774   4.506  0.0613 -1.1784 -0.5644
 5120SOL    HW216045   3.823   0.832   4.396  0.5362  2.6996  1.6627
 5121SOL     OW16046   3.529   0.309   2.295  0.0852  0.1218  0.1011
 5121SOL    HW116047   3.552   0.225   2.334  0.6367  0.3064  0.1841
 5121SOL    HW216048   3.475   0.352   2.361  1.9970  0.9405  1.2220
 5122SOL     OW16049   4.529   1.790   1.982 -0.4242 -0.2486  0.7264
 5122SOL    HW116050   4.461   1.819   2.043 -1.6317  2.0394 -1.5180
 5122SOL    HW216051   4.509   1.698   1.965 -2.0030 -0.0410  1.3098
 5123SOL     OW16052   5.986   2.400   2.017 -0.4884 -0.4273  0.4314
 5123SOL    HW116053   6.051   2.334   2.038  1.1452  1.1826  0.6896
 5123SOL    HW216054   5.988   2.461   2.091 -0.1732  1.2042 -0.8568
 5124SOL     OW16055   3.175   2.983   4.907  0.0504  0.3358 -0.6052
 5124SOL    HW116056   3.147   3.039   4.980 -0.6857 -1.3019  0.4172
 5124SOL    HW216057   3.122   2.904   4.916  0.9437 -0.4708 -2.1217
 5125SOL     OW16058   2.373   3.340   4.715  0.1276  0.6377 -0.4888
 5125SOL    HW116059   2.404   3.254   4.744  0.0910  0.7417 -0.1401
 5125SOL    HW216060   2.291   3.322   4.669  1.3944  0.1819 -2.6949
 5126SOL     OW16061   2.011   5.707   2.277  0.0855 -0.3717  0.2167
 5126SOL    HW116062   2.102   5.698   2.250 -0.4461 -0.0404 -1.9030
 5126SOL    HW216063   1.961   5.681   2.199 -1.6629 -2.0301  1.7933
 5127SOL     OW16064   1.079   2.398   6.502  0.1910  0.4753  0.0397
 5127SOL    HW116065   0.983   2.398   6.497  0.1522 -0.1266  0.6998
 5127SOL    HW216066   1.101   2.315   6.543  1.0500  0.1691 -1.0035
 5128SOL     OW16067   6.016   5.256   6.285 -0.4076  0.0377 -0.1361
 5128SOL    HW116068   6.079   5.228   6.351 -1.5443  1.8800  1.8667
 5128SOL    HW216069   6.024   5.191   6.215  3.3596 -0.0565  0.1758
 5129SOL     OW16070   5.759   4.900   4.073  0.2790  0.2730 -0.4224
 5129SOL    HW116071   5.692   4.832   4.076 -0.8977  1.4251  0.2929
 5129SOL    HW216072   5.717   4.977   4.111  3.0978  0.1458  3.5774
 5130SOL     OW16073   3.236   5.680   6.062  0.2601 -0.5487  0.1074
 5130SOL    HW116074   3.214   5.669   6.154  2.3011 -1.9368  0.5013
 5130SOL    HW216075   3.227   5.774   6.046 -1.8639 -0.5116  1.2066
 5131SOL     OW16076   1.243   0.574   6.128  0.2044  0.3441  0.5851
 5131SOL    HW116077   1.275   0.510   6.192 -1.3676  0.6213  1.7051
 5131SOL    HW216078   1.152   0.549   6.113  0.8115 -0.4089 -2.4721
 5132SOL     OW16079   5.653   3.822   5.573  0.0340 -0.4314  0.1802
 5132SOL    HW116080   5.618   3.798   5.488 -2.0122 -0.0935  0.8526
 5132SOL    HW216081   5.648   3.918   5.575  1.2097 -0.3531  0.2523
 5133SOL     OW16082   2.518   2.082   5.896  0.2556 -0.5621  0.4714
 5133SOL    HW116083   2.547   2.113   5.982  0.0687  0.9235  0.0355
 5133SOL    HW216084   2.588   2.108   5.836 -1.1721  1.6434 -0.3434
 5134SOL     OW16085   1.601   0.921   1.899  0.5206  0.0662 -0.4128
 5134SOL    HW116086   1.542   0.891   1.830  0.4590 -1.4634  0.2788
 5134SOL    HW216087   1.603   0.850   1.963  1.8599  0.7541  0.3701
 5135SOL     OW16088   6.501   5.325   6.077  0.3539 -0.5807 -0.0804
 5135SOL    HW116089   6.439   5.298   6.145 -1.6478  2.2800 -0.6289
 5135SOL    HW216090   6.454   5.313   5.995  0.8806  0.6756 -0.5890
 5136SOL     OW16091   1.065   4.665   1.461  0.6135 -0.3822  0.7139
 5136SOL    HW116092   1.103   4.753   1.460  1.0323 -0.5660  0.3142
 5136SOL    HW216093   0.996   4.670   1.527  0.2031  0.4261  0.2402
 5137SOL     OW16094   1.033   1.945   1.749 -0.1635  0.3831 -0.1164
 5137SOL    HW116095   0.967   1.997   1.705  0.2684  1.3187  0.3240
 5137SOL    HW216096   1.019   1.961   1.843 -0.2295 -0.5445  0.0460
 5138SOL     OW16097   1.854   2.932   5.990  0.5428  0.4195 -0.6712
 5138SOL    HW116098   1.914   2.909   6.061  1.7602  0.7748 -1.5292
 5138SOL    HW216099   1.814   2.849   5.964  0.6549  0.1757 -0.0657
 5139SOL     OW16100   0.486   4.969   2.431  0.3415  0.1538  0.2721
 5139SOL    HW116101   0.408   4.924   2.397  1.7987 -0.3500 -2.7399
 5139SOL    HW216102   0.470   5.061   2.411  0.3210  0.0999  0.0257
 5140SOL     OW16103   0.027   2.922   6.032 -0.0943 -0.0121 -0.4429
 5140SOL    HW116104   0.101   2.976   6.059  0.2944 -0.8845  0.3342
 5140SOL    HW216105   0.061   2.871   5.958 -0.3793  0.6085 -1.0087
 5141SOL     OW16106   3.559   4.816   1.515  0.4233 -0.6110 -0.0658
 5141SOL    HW116107   3.599   4.896   1.550  2.0158 -1.8240  1.0152
 5141SOL    HW216108   3.563   4.828   1.420  1.5100  0.2182  0.0614
 5142SOL     OW16109   5.497   0.918   5.895 -0.4535 -0.0709 -0.1413
 5142SOL    HW116110   5.524   0.984   5.959  0.8228  0.2243 -0.9481
 5142SOL    HW216111   5.495   0.836   5.944  2.3542 -0.1962 -0.0695
 5143SOL     OW16112   2.770   1.087   2.340 -0.5613  0.0422 -0.3367
 5143SOL    HW116113   2.849   1.067   2.389 -1.2738 -0.2903  0.7253
 5143SOL    HW216114   2.785   1.175   2.305  0.1582  0.1001  0.0946
 5144SOL     OW16115   2.730   2.815   5.147 -0.4775 -0.5227 -0.2070
 5144SOL    HW116116   2.684   2.795   5.066  0.1424 -2.9817 -0.0275
 5144SOL    HW216117   2.821   2.826   5.121 -0.4863  0.0930  0.0004
 5145SOL     OW16118   0.467   3.792   5.292 -0.5763 -0.2364 -0.3568
 5145SOL    HW116119   0.411   3.866   5.316  0.0050  0.8874 -2.2713
 5145SOL    HW216120   0.452   3.781   5.198  0.4519 -1.6253 -0.3757
 5146SOL     OW16121   0.596   0.397   1.769 -0.7101  0.0837 -0.0925
 5146SOL    HW116122   0.657   0.357   1.706 -0.4983 -0.4647  0.4521
 5146SOL    HW216123   0.617   0.490   1.766  2.2594 -0.3491  2.1993
 5147SOL     OW16124   1.650   5.967   3.317  0.1373 -0.2728 -0.7104
 5147SOL    HW116125   1.562   5.945   3.347  0.6943 -1.8369 -0.0718
 5147SOL    HW216126   1.701   5.976   3.398  0.2843  2.1452 -1.0038
 5148SOL     OW16127   5.667   1.247   0.273  0.0987  0.5128 -0.5725
 5148SOL    HW116128   5.645   1.159   0.305 -1.0120 -0.4523 -3.5765
 5148SOL    HW216129   5.584   1.282   0.240  0.9406  1.7462 -1.4833
 5149SOL     OW16130   2.892   6.015   5.472  0.2357 -0.6756 -0.3354
 5149SOL    HW116131   2.920   6.011   5.380  0.6877 -0.2293 -0.2255
 5149SOL    HW216132   2.797   6.010   5.468  0.1715  0.6093 -0.9316
 5150SOL     OW16133   5.244   6.256   3.026  0.2439  0.4035 -0.0823
 5150SOL    HW116134   5.225   6.188   3.090  1.7981 -0.1664 -0.1680
 5150SOL    HW216135   5.328   6.293   3.054  0.0832  1.3751 -0.7969
 5151SOL     OW16136   3.209   3.791   1.702  0.5742  0.3664 -0.0720
 5151SOL    HW116137   3.202   3.756   1.790  2.2566 -1.3868 -0.5817
 5151SOL    HW216138   3.234   3.717   1.647  0.7340  1.6368 -1.8336
 5152SOL     OW16139   3.015   4.945   4.386  0.1364  0.0198  0.8173
 5152SOL    HW116140   3.019   4.984   4.473  2.1433  1.7996  0.0168
 5152SOL    HW216141   3.028   5.019   4.326 -4.0599 -0.6286 -1.2284
 5153SOL     OW16142   4.482   3.981   3.856  0.5256  0.1357  0.0331
 5153SOL    HW116143   4.437   4.066   3.859 -0.5416 -0.3314 -1.4899
 5153SOL    HW216144   4.575   4.004   3.854  0.2896  1.2297  0.6262
 5154SOL     OW16145   1.370   4.063   6.218 -0.7328 -0.4908  0.4278
 5154SOL    HW116146   1.459   4.084   6.189 -0.7218  1.2357  1.5679
 5154SOL    HW216147   1.344   3.989   6.163  0.7069  0.1503 -1.2257
 5155SOL     OW16148   4.434   3.857   6.051 -0.1804 -1.0655  0.0325
 5155SOL    HW116149   4.463   3.767   6.035 -1.4096 -1.3751 -0.5293
 5155SOL    HW216150   4.454   3.873   6.143  0.2949 -1.8158  0.0639
 5156SOL     OW16151   5.567   2.585   0.426  0.3155  0.1358 -0.0696
 5156SOL    HW116152   5.504   2.532   0.378  0.1628 -0.7900  1.0943
 5156SOL    HW216153   5.554   2.560   0.517 -0.0841  2.5504  0.5936
 5157SOL     OW16154   1.593   5.249   6.406 -0.4441 -0.2636  0.3754
 5157SOL    HW116155   1.645   5.323   6.438  1.4006 -1.9443  1.5432
 5157SOL    HW216156   1.540   5.223   6.480 -1.1942 -0.0526 -0.0763
 5158SOL     OW16157   1.057   0.140   1.278 -0.4454 -0.2012 -0.3459
 5158SOL    HW116158   1.019   0.214   1.324  1.0861  0.4989 -0.1289
 5158SOL    HW216159   1.099   0.179   1.201  0.0518 -0.8916 -0.4325
 5159SOL     OW16160   3.685   3.404   1.870  0.2750  0.4119 -0.3157
 5159SOL    HW116161   3.678   3.447   1.955  0.7759  0.1816 -0.1556
 5159SOL    HW216162   3.776   3.416   1.844  0.4008 -0.4757 -0.3054
 5160SOL     OW16163   5.309   2.354   2.666 -0.3445 -0.5307  0.5933
 5160SOL    HW116164   5.313   2.310   2.581 -0.7174 -0.3922  0.5046
 5160SOL    HW216165   5.250   2.428   2.653 -1.2222 -1.0924  1.2377
 5161SOL     OW16166   4.284   6.392   3.184 -0.4735 -0.3810 -0.0613
 5161SOL    HW116167   4.273   6.463   3.248 -1.1238 -0.1025 -0.4636
 5161SOL    HW216168   4.195   6.377   3.151 -0.3869 -1.6064  0.2523
 5162SOL     OW16169   0.472   3.511   5.138  0.5268  0.4705 -0.3517
 5162SOL    HW116170   0.436   3.589   5.097  1.0418  0.6814 -0.4064
 5162SOL    HW216171   0.421   3.501   5.219 -0.6481 -0.0855 -1.1316
 5163SOL     OW16172   2.406   2.923   6.180  0.6580  0.0220  0.4408
 5163SOL    HW116173   2.331   2.904   6.123 -1.1258  3.1706  1.5501
 5163SOL    HW216174   2.373   2.908   6.268  2.2603 -1.2041  0.8697
 5164SOL     OW16175   1.681   0.030   3.087  0.4415 -0.3630  0.0542
 5164SOL    HW116176   1.745   0.016   3.156 -0.6804  0.6703  1.3476
 5164SOL    HW216177   1.682  -0.051   3.037  1.0226 -1.2755  1.4899
 5165SOL     OW16178   4.989   3.811   4.389  0.5102 -0.0093 -0.4728
 5165SOL    HW116179   5.052   3.805   4.318 -1.1845 -1.8437 -1.9728
 5165SOL    HW216180   4.993   3.725   4.431  0.8256  0.7430  1.0839
 5166SOL     OW16181   5.538   0.246   4.661 -0.0473 -0.1866 -0.0358
 5166SOL    HW116182   5.594   0.172   4.638 -1.2133 -0.7827 -1.1347
 5166SOL    HW216183   5.454   0.225   4.621 -0.1896  2.1414 -1.1029
 5167SOL     OW16184   0.286   2.584   4.657 -0.0234 -0.1617 -0.1212
 5167SOL    HW116185   0.228   2.570   4.732 -1.7232  0.3472 -1.2763
 5167SOL    HW216186   0.227   2.600   4.583  1.5428 -2.0350 -1.9058
 5168SOL     OW16187   2.929   4.793   1.905  0.2482 -0.0861  0.4929
 5168SOL    HW116188   2.973   4.711   1.879  2.4472  1.4119 -0.8683
 5168SOL    HW216189   2.876   4.816   1.829  0.8588  0.5119  0.2382
 5169SOL     OW16190   4.884   5.940   5.173  0.0996 -0.2511  0.3393
 5169SOL    HW116191   4.880   5.961   5.266  1.4938 -0.9308  0.5804
 5169SOL    HW216192   4.977   5.936   5.153 -0.1518 -1.5719 -0.7462
 5170SOL     OW16193   0.408   2.068   5.547  0.2692  0.1224 -0.1391
 5170SOL    HW116194   0.496   2.032   5.533  0.0231 -0.7898  0.5935
 5170SOL    HW216195   0.349   2.005   5.505 -0.0241  1.0194 -1.1326
 5171SOL     OW16196   2.231   2.599   5.610  0.4469  0.3448 -0.2367
 5171SOL    HW116197   2.306   2.653   5.587  0.8481 -0.6404 -1.3381
 5171SOL    HW216198   2.227   2.532   5.542 -0.1451 -0.9100  0.9576
 5172SOL     OW16199   1.185   3.906   0.653 -0.8649 -0.2808  0.1563
 5172SOL    HW116200   1.125   3.968   0.694 -0.2327 -0.1809  0.9418
 5172SOL    HW216201   1.251   3.888   0.720 -0.4674 -1.0132 -0.4171
 5173SOL     OW16202   3.230   1.028   0.736 -0.0931  0.6868 -0.4991
 5173SOL    HW116203   3.173   1.042   0.661  0.0868  1.3791 -0.5121
 5173SOL    HW216204   3.309   1.078   0.716  0.4420 -0.0901 -0.3869
 5174SOL     OW16205   0.323   2.898   4.807  0.2975 -0.8173  0.2671
 5174SOL    HW116206   0.329   2.993   4.797 -0.5048 -0.8844 -1.1860
 5174SOL    HW216207   0.376   2.863   4.736 -1.2556 -1.4112 -0.6691
 5175SOL     OW16208   2.245   1.351   4.914  0.1009  0.1262 -0.2089
 5175SOL    HW116209   2.200   1.429   4.948  2.2991  1.3091  0.2043
 5175SOL    HW216210   2.175   1.295   4.882 -1.6157  2.0919 -0.1393
 5176SOL     OW16211   4.443   1.721   3.328 -0.1369 -0.2162  0.6661
 5176SOL    HW116212   4.534   1.705   3.303 -0.0236 -1.4732  1.7991
 5176SOL    HW216213   4.395   1.714   3.245  0.6976 -0.3062  0.1724
 5177SOL     OW16214   2.163   3.173   4.949  0.1540  0.7102 -0.2869
 5177SOL    HW116215   2.110   3.180   4.869  0.8851 -0.5654 -0.9149
 5177SOL    HW216216   2.227   3.106   4.929 -0.4854 -0.6378  1.8640
 5178SOL     OW16217   1.033   0.989   0.181 -0.5883 -0.2199 -0.5501
 5178SOL    HW116218   0.940   1.010   0.189 -0.7440 -0.5199 -1.4384
 5178SOL    HW216219   1.062   1.037   0.103  0.0384 -0.0180 -0.2050
 5179SOL     OW16220   2.892   5.933   6.504 -0.1946  0.5143 -0.1521
 5179SOL    HW116221   2.841   6.011   6.480 -1.0459  0.4966  1.4764
 5179SOL    HW216222   2.841   5.860   6.467 -0.7300  0.5789  0.4388
 5180SOL     OW16223   5.691   6.434   5.456 -0.5227  0.1128 -0.1363
 5180SOL    HW116224   5.777   6.402   5.483 -0.8689 -1.0683 -0.3870
 5180SOL    HW216225   5.686   6.523   5.491  0.4193 -0.1533  0.7007
 5181SOL     OW16226   5.239   2.497   4.451  0.0039  0.0936  0.3488
 5181SOL    HW116227   5.288   2.570   4.413  2.1955  0.0907  2.8348
 5181SOL    HW216228   5.152   2.534   4.470  0.8492  1.8866  0.9349
 5182SOL     OW16229   3.205   6.505   3.714  0.6213 -0.4806  0.3430
 5182SOL    HW116230   3.224   6.412   3.727 -1.5125 -0.9888  0.1799
 5182SOL    HW216231   3.232   6.523   3.624  0.6323 -1.0565  0.2276
 5183SOL     OW16232   4.383   6.016   5.098 -0.0765 -0.2485 -0.1904
 5183SOL    HW116233   4.427   5.952   5.041  0.0491 -1.6187  1.3578
 5183SOL    HW216234   4.311   6.050   5.045  0.7759 -0.5037 -1.5900
 5184SOL     OW16235   5.816   5.458   6.318  0.2885  0.7172 -0.4063
 5184SOL    HW116236   5.875   5.389   6.348  1.5278  1.3609 -1.3003
 5184SOL    HW216237   5.737   5.411   6.290  0.9236 -0.2909 -0.5362
 5185SOL     OW16238   0.811   1.866   0.750  0.0460  0.2714 -0.5131
 5185SOL    HW116239   0.753   1.838   0.821  1.0294 -1.7079 -0.4000
 5185SOL    HW216240   0.761   1.930   0.701 -2.7379 -2.1705 -1.1056
 5186SOL     OW16241   4.062   6.489   3.999 -0.0497 -0.1801 -0.4225
 5186SOL    HW116242   4.000   6.449   4.059  0.1362 -1.1890 -0.8840
 5186SOL    HW216243   4.098   6.563   4.048 -1.7718  0.5888 -0.2337
 5187SOL     OW16244   2.316   5.502   6.048 -0.0208 -0.3254 -0.3010
 5187SOL    HW116245   2.394   5.519   5.995  0.6892 -0.9745  0.4954
 5187SOL    HW216246   2.335   5.419   6.093 -1.1091 -0.4193  0.0224
 5188SOL     OW16247   2.854   3.574   4.550  0.6119 -0.7325 -0.0787
 5188SOL    HW116248   2.888   3.485   4.564  1.9414 -0.6918 -2.5203
 5188SOL    HW216249   2.915   3.630   4.600  1.0343 -1.0442 -0.2359
 5189SOL     OW16250   3.409   4.817   6.219 -0.1216 -0.1542  0.3055
 5189SOL    HW116251   3.382   4.873   6.292 -1.2111  0.4736 -0.5297
 5189SOL    HW216252   3.497   4.846   6.197 -0.1498  0.2913  0.7718
 5190SOL     OW16253   2.942   3.785   5.130  0.0603 -0.1078 -0.0144
 5190SOL    HW116254   2.985   3.790   5.216  0.5587 -2.4780 -0.0559
 5190SOL    HW216255   2.890   3.865   5.124  1.8873  1.2880  1.4578
 5191SOL     OW16256   3.523   2.541   2.693 -0.1936  0.4878  0.0258
 5191SOL    HW116257   3.574   2.480   2.745 -1.3803 -1.9671 -1.5226
 5191SOL    HW216258   3.553   2.526   2.603 -0.7616  1.9728 -0.4465
 5192SOL     OW16259   5.195   5.986   6.095  0.2065  0.3920 -0.0564
 5192SOL    HW116260   5.159   6.012   6.010  1.4836  0.4200 -0.6098
 5192SOL    HW216261   5.211   5.892   6.087  3.1363  0.8745 -0.9784
 5193SOL     OW16262   1.250   5.546   2.724  0.1538  0.3676 -0.4177
 5193SOL    HW116263   1.230   5.511   2.638  1.8305 -0.1810 -0.6337
 5193SOL    HW216264   1.325   5.494   2.754 -0.3561  0.5654  1.3567
 5194SOL     OW16265   0.255   1.810   6.402 -0.0021  0.6095  0.2923
 5194SOL    HW116266   0.180   1.785   6.348 -0.0107 -0.6067  0.8287
 5194SOL    HW216267   0.217   1.861   6.473 -0.2745  0.3424  0.3408
 5195SOL     OW16268   5.905   0.333   4.532 -0.2337 -0.5078  0.0582
 5195SOL    HW116269   5.831   0.310   4.476 -1.1213 -0.9854  1.3652
 5195SOL    HW216270   5.937   0.416   4.497 -2.2861  0.4437  0.2878
 5196SOL     OW16271   6.360   3.589   3.968  0.1078 -0.5798  0.2763
 5196SOL    HW116272   6.439   3.639   3.949  1.1930 -0.9719  3.2476
 5196SOL    HW216273   6.367   3.511   3.913  1.9304 -0.7014  0.6093
 5197SOL     OW16274   0.187   5.440   2.424  0.4149  0.5825 -0.3796
 5197SOL    HW116275   0.129   5.421   2.498  1.0805 -1.0337 -0.2169
 5197SOL    HW216276   0.133   5.488   2.362 -0.3642  1.3067  0.8410
 5198SOL     OW16277   1.428   0.152   6.052  0.5570 -0.6209 -0.4274
 5198SOL    HW116278   1.463   0.176   6.138 -0.7148  1.7311 -0.4937
 5198SOL    HW216279   1.503   0.153   5.994  1.1848 -0.7321  0.3708
 5199SOL     OW16280   2.194   5.288   2.682  0.1771 -0.1412 -0.4481
 5199SOL    HW116281   2.100   5.285   2.666 -0.0906 -1.4341  1.1668
 5199SOL    HW216282   2.223   5.367   2.637 -1.2627 -0.9457 -2.9689
 5200SOL     OW16283   5.600   2.556   0.692 -0.0313 -0.5827  0.1229
 5200SOL    HW116284   5.664   2.626   0.708 -1.3932  1.0835 -1.2857
 5200SOL    HW216285   5.566   2.534   0.778  1.4190 -0.5232  0.7413
 5201SOL     OW16286   2.516   4.212   1.089  0.2639 -0.4377  0.1135
 5201SOL    HW116287   2.479   4.161   1.016  0.2755 -1.0346  0.5201
 5201SOL    HW216288   2.590   4.259   1.049 -1.3856  1.4447 -0.9161
 5202SOL     OW16289   2.787   2.815   3.713  0.6252 -0.7846  0.1334
 5202SOL    HW116290   2.749   2.733   3.681  0.9418 -1.3559  1.1581
 5202SOL    HW216291   2.850   2.787   3.780  0.2048  0.3237  1.0210
 5203SOL     OW16292   2.692   5.669   6.501 -0.5117  0.2110  0.0959
 5203SOL    HW116293   2.691   5.610   6.426  0.5205  0.3941 -0.0688
 5203SOL    HW216294   2.612   5.720   6.492 -1.1216 -0.7453 -0.0870
 5204SOL     OW16295   3.690   6.047   1.279 -0.0410 -0.6586 -0.3025
 5204SOL    HW116296   3.595   6.036   1.288 -0.0118 -0.7676 -0.1327
 5204SOL    HW216297   3.701   6.079   1.189 -0.2942  0.0052 -0.1072
 5205SOL     OW16298   0.196   1.831   5.518 -0.4273  0.1612  0.2264
 5205SOL    HW116299   0.183   1.741   5.547 -3.8201  0.3442 -0.3734
 5205SOL    HW216300   0.108   1.864   5.501  0.7531  3.3508 -0.3881
 5206SOL     OW16301   1.204   4.082   0.199  0.1268 -0.0743  0.3444
 5206SOL    HW116302   1.280   4.025   0.191 -0.9279 -1.4247 -0.3483
 5206SOL    HW216303   1.158   4.050   0.277 -0.5150 -0.2213 -0.0937
 5207SOL     OW16304   1.343   1.954   0.652 -0.3784  0.2287  0.5910
 5207SOL    HW116305   1.412   1.902   0.611  0.9073  1.0755  1.5848
 5207SOL    HW216306   1.354   2.041   0.615 -0.1053  0.6585  1.6304
 5208SOL     OW16307   5.429   5.004   4.049 -0.4444 -0.2664  0.2762
 5208SOL    HW116308   5.419   5.007   3.954 -0.0548 -0.8416  0.2131
 5208SOL    HW216309   5.358   5.059   4.083 -0.1699  0.4950 -0.3681
 5209SOL     OW16310   3.810   0.322   2.320  0.3231  0.1955  0.5384
 5209SOL    HW116311   3.715   0.330   2.321  0.4192  1.5566  0.3117
 5209SOL    HW216312   3.835   0.323   2.412 -0.0329 -2.9305  0.7826
 5210SOL     OW16313   2.095   3.309   3.029 -0.2060 -0.2268  0.0767
 5210SOL    HW116314   2.058   3.310   2.941 -1.9304  1.8467  0.7363
 5210SOL    HW216315   2.177   3.262   3.020  0.0591  0.6037 -2.8070
 5211SOL     OW16316   4.607   2.256   3.330 -0.3234  0.3075 -0.1295
 5211SOL    HW116317   4.610   2.341   3.374  2.5967  0.4835 -0.4979
 5211SOL    HW216318   4.645   2.273   3.244  1.9016 -1.6198  0.3738
 5212SOL     OW16319   2.410   1.307   3.665  0.2601 -0.0824 -0.7385
 5212SOL    HW116320   2.374   1.219   3.672 -0.2289  0.0520 -1.4499
 5212SOL    HW216321   2.386   1.336   3.577 -0.0218  0.9579 -0.3315
 5213SOL     OW16322   3.401   5.136   5.824 -0.4090  0.8314 -0.1388
 5213SOL    HW116323   3.492   5.113   5.807 -0.6480 -1.6894  1.3949
 5213SOL    HW216324   3.368   5.168   5.741  1.3677  0.0271 -1.2152
 5214SOL     OW16325   3.288   1.716   6.146 -0.0599  0.0470  0.6354
 5214SOL    HW116326   3.256   1.784   6.205 -2.3369  0.8187 -1.3217
 5214SOL    HW216327   3.239   1.638   6.169  1.3104 -0.5103  1.7543
 5215SOL     OW16328   0.797   2.552   1.570  0.2651  0.2104 -0.1226
 5215SOL    HW116329   0.851   2.605   1.511 -0.8179 -0.4036 -1.7356
 5215SOL    HW216330   0.745   2.497   1.512  0.3573 -1.6622  1.4586
 5216SOL     OW16331   3.627   2.635   3.022  0.5060 -0.7909 -0.1738
 5216SOL    HW116332   3.596   2.711   2.972  2.4569 -1.1106 -1.9884
 5216SOL    HW216333   3.554   2.615   3.082 -0.3486  2.0321 -0.1148
 5217SOL     OW16334   0.515   5.531   1.448  0.7048  0.8306 -0.1817
 5217SOL    HW116335   0.512   5.522   1.544  1.9378  0.3049 -0.1648
 5217SOL    HW216336   0.458   5.605   1.429 -1.4135 -0.4797  0.7311
 5218SOL     OW16337   3.673   5.620   5.398  0.2316 -0.5271 -0.8443
 5218SOL    HW116338   3.578   5.633   5.390  0.3339 -0.4550 -2.1566
 5218SOL    HW216339   3.708   5.650   5.314  1.4514 -0.2902 -0.2656
 5219SOL     OW16340   4.123   3.381   1.598  0.3509  0.3468 -0.1099
 5219SOL    HW116341   4.162   3.408   1.515 -0.1322  0.8606 -0.1718
 5219SOL    HW216342   4.097   3.290   1.582  3.3715 -0.7634  0.5956
 5220SOL     OW16343   1.834   6.206   6.306  0.4149  0.4820 -0.2640
 5220SOL    HW116344   1.819   6.297   6.281 -1.3119  0.7456  1.5096
 5220SOL    HW216345   1.750   6.162   6.292  0.5610 -0.2843  1.0905
 5221SOL     OW16346   0.015   0.069   5.061 -0.1021 -0.3113  0.0843
 5221SOL    HW116347   0.059   0.137   5.112  0.5134  0.0563 -0.9099
 5221SOL    HW216348   0.023   0.099   4.971 -0.3120 -1.4432 -0.3171
 5222SOL     OW16349   2.627   2.167   6.121  0.3767 -0.2388  0.0817
 5222SOL    HW116350   2.699   2.106   6.138 -0.9413 -1.8918 -0.1098
 5222SOL    HW216351   2.577   2.169   6.202  0.2945  0.4533  0.0193
 5223SOL     OW16352   2.416   6.104   5.925  0.0095  0.1519 -0.0109
 5223SOL    HW116353   2.365   6.178   5.891 -0.3478 -0.4969 -0.9057
 5223SOL    HW216354   2.362   6.027   5.908  1.0682 -0.4996 -0.5127
 5224SOL     OW16355   4.222   4.765   0.137  0.0626 -0.4387 -0.2274
 5224SOL    HW116356   4.295   4.773   0.198 -0.0376  1.7863 -0.3008
 5224SOL    HW216357   4.192   4.855   0.124 -1.3075 -1.0712 -1.8799
 5225SOL     OW16358   5.124   3.502   3.112 -0.0298 -0.6757 -0.5701
 5225SOL    HW116359   5.052   3.519   3.051 -1.9376  0.8716  1.9213
 5225SOL    HW216360   5.082   3.467   3.190  1.3957  2.9095  2.0618
 5226SOL     OW16361   1.854   1.833   2.339  0.3461 -0.6416  0.0818
 5226SOL    HW116362   1.915   1.861   2.271 -0.4391  1.8652  0.3096
 5226SOL    HW216363   1.781   1.794   2.291 -1.0485  2.7155 -0.8306
 5227SOL     OW16364   0.290   4.018   1.209 -0.6953 -0.0452 -0.2304
 5227SOL    HW116365   0.255   3.934   1.180 -1.0453  0.6056 -1.7573
 5227SOL    HW216366   0.246   4.083   1.155 -0.5692  1.1612  1.0482
 5228SOL     OW16367   2.784   5.598   3.894  0.2348  0.1082  0.0647
 5228SOL    HW116368   2.762   5.630   3.982 -0.7606 -0.7326  0.1406
 5228SOL    HW216369   2.838   5.521   3.909  0.7177  0.4116 -0.0855
 5229SOL     OW16370   4.226   4.405   2.328  0.2645 -0.4239  0.6161
 5229SOL    HW116371   4.245   4.322   2.285  0.3141 -0.8317  1.4035
 5229SOL    HW216372   4.305   4.423   2.380  0.0895 -0.0907  0.7673
 5230SOL     OW16373   0.344   2.598   0.006 -0.1967 -0.1098 -0.1033
 5230SOL    HW116374   0.382   2.580  -0.080 -0.1507 -1.3618  0.1553
 5230SOL    HW216375   0.412   2.646   0.053 -0.3518  0.8810 -0.8716
 5231SOL     OW16376   0.526   6.061   3.588  0.0503  0.7950  0.2280
 5231SOL    HW116377   0.484   6.031   3.669 -0.5992 -0.7713 -0.6568
 5231SOL    HW216378   0.601   6.002   3.578 -1.4414 -0.8817 -1.7308
 5232SOL     OW16379   5.023   1.577   0.979 -0.4761  0.4009  0.2840
 5232SOL    HW116380   5.084   1.533   0.920 -1.8685 -0.1631 -0.7853
 5232SOL    HW216381   4.965   1.625   0.921 -1.3551  0.5283  1.2524
 5233SOL     OW16382   6.041   3.629   6.105 -0.6713 -0.2895 -0.2901
 5233SOL    HW116383   6.066   3.570   6.176 -0.0380 -0.6316 -0.7932
 5233SOL    HW216384   6.085   3.594   6.027  1.8735  2.2874 -0.1644
 5234SOL     OW16385   4.648   4.473   2.077 -0.1848  0.1732  0.3254
 5234SOL    HW116386   4.647   4.469   1.981 -2.3704  1.7950  0.2080
 5234SOL    HW216387   4.585   4.541   2.099  0.3918 -0.0376  2.9404
 5235SOL     OW16388   5.242   5.361   5.376 -0.2311  0.8019 -0.2200
 5235SOL    HW116389   5.222   5.267   5.382  1.1110  0.5819  2.6772
 5235SOL    HW216390   5.328   5.365   5.335 -0.7509  0.8797 -1.3360
 5236SOL     OW16391   3.712   2.837   6.294 -0.0849 -0.4133 -0.1869
 5236SOL    HW116392   3.655   2.765   6.266 -0.2417 -0.1783 -0.4731
 5236SOL    HW216393   3.680   2.913   6.245  0.3329 -0.2344 -0.1804
 5237SOL     OW16394   1.852   3.241   4.906  0.4051 -0.2515  0.2761
 5237SOL    HW116395   1.825   3.322   4.863  0.3711  0.1560  1.0456
 5237SOL    HW216396   1.839   3.257   5.000  0.7026 -1.0299  0.4659
 5238SOL     OW16397   3.611   6.233   5.563 -0.3067  0.4365 -0.5189
 5238SOL    HW116398   3.680   6.173   5.591 -0.2209  1.1246  0.7882
 5238SOL    HW216399   3.575   6.192   5.484  1.5352  0.0278 -1.1955
 5239SOL     OW16400   0.203   0.703   0.849  0.3487  0.5188 -0.6180
 5239SOL    HW116401   0.174   0.747   0.769 -0.2888  1.3476  0.0505
 5239SOL    HW216402   0.292   0.734   0.863  0.4935  0.2999 -1.0551
 5240SOL     OW16403   3.114   0.693   1.813  0.0821 -0.4246  0.3681
 5240SOL    HW116404   3.146   0.660   1.897  1.6416  0.5934  0.2344
 5240SOL    HW216405   3.024   0.718   1.829 -0.0291 -1.3936  1.3958
 5241SOL     OW16406   2.010   6.213   0.980 -0.0444 -0.3001  0.7259
 5241SOL    HW116407   2.091   6.166   0.959  0.2977 -0.2351  1.8326
 5241SOL    HW216408   1.946   6.180   0.918  0.5204 -1.2806  0.6519
 5242SOL     OW16409   2.742   1.785   0.365 -0.0936  0.0858 -0.3274
 5242SOL    HW116410   2.805   1.855   0.345 -1.3570  1.6534  0.9031
 5242SOL    HW216411   2.775   1.745   0.446  0.9553 -1.1965 -1.3542
 5243SOL     OW16412   3.323   6.270   3.234  0.3958 -0.0766 -0.7071
 5243SOL    HW116413   3.379   6.201   3.270 -1.2202 -1.9891 -1.6290
 5243SOL    HW216414   3.377   6.313   3.168  1.3178 -0.7751 -0.4275
 5244SOL     OW16415   2.423   5.444   6.508 -0.6827 -0.1803  0.2519
 5244SOL    HW116416   2.410   5.360   6.552  0.8339 -0.4059  0.3475
 5244SOL    HW216417   2.425   5.508   6.578  0.3450 -0.3635  0.4085
 5245SOL     OW16418   1.118   3.753   1.138  0.0656 -0.2039  0.1985
 5245SOL    HW116419   1.157   3.829   1.095 -0.8665 -0.2563 -0.7705
 5245SOL    HW216420   1.179   3.682   1.120 -0.1798 -0.1686 -0.8399
 5246SOL     OW16421   3.076   5.885   4.424 -0.4267  0.1487 -0.2567
 5246SOL    HW116422   3.156   5.865   4.472 -0.8873 -1.9112 -0.2511
 5246SOL    HW216423   3.106   5.915   4.339  0.3599 -0.0399 -0.0546
 5247SOL     OW16424   6.008   5.840   2.731 -0.3913  0.4244  0.6739
 5247SOL    HW116425   5.963   5.782   2.792  0.2952  1.0799  1.8654
 5247SOL    HW216426   5.956   5.920   2.731 -0.8044  0.1668 -0.2117
 5248SOL     OW16427   2.864   3.857   0.365  0.1434 -0.5434 -0.4430
 5248SOL    HW116428   2.810   3.867   0.286  0.7361  1.1140 -0.6901
 5248SOL    HW216429   2.816   3.794   0.419 -3.0030  2.0407  0.1107
 5249SOL     OW16430   2.488   4.189   1.598 -0.2342 -0.0518  0.4089
 5249SOL    HW116431   2.580   4.205   1.576 -0.3802 -1.4032 -1.3611
 5249SOL    HW216432   2.491   4.163   1.691  0.9855  1.1442  0.7491
 5250SOL     OW16433   2.277   5.380   4.151  0.3088 -0.2472  0.8687
 5250SOL    HW116434   2.227   5.337   4.220 -0.3676  1.8375  1.7538
 5250SOL    HW216435   2.212   5.397   4.082  0.9351 -2.1238 -0.2687
 5251SOL     OW16436   3.618   1.359   5.264 -0.4890  0.4001 -0.6091
 5251SOL    HW116437   3.620   1.293   5.194 -0.6761  0.3046 -0.5243
 5251SOL    HW216438   3.572   1.433   5.226 -1.9166 -0.2011 -0.1107
 5252SOL     OW16439   0.300   2.001   3.719  0.2078 -0.3293 -0.1849
 5252SOL    HW116440   0.286   1.911   3.690 -5.0957 -0.0313  0.4543
 5252SOL    HW216441   0.274   2.055   3.644  1.0354  0.7147  0.2393
 5253SOL     OW16442   3.471   4.172   4.300 -0.1373 -0.4235 -0.2294
 5253SOL    HW116443   3.517   4.224   4.234 -2.4307  0.8551 -0.9372
 5253SOL    HW216444   3.535   4.106   4.327  1.9394  0.9661 -1.4104
 5254SOL     OW16445   5.431   5.453   5.200 -1.0749  0.2587 -0.6230
 5254SOL    HW116446   5.434   5.547   5.183  0.1909  0.1853 -0.9012
 5254SOL    HW216447   5.384   5.416   5.125 -0.5089  0.5405 -1.1168
 5255SOL     OW16448   4.483   3.502   0.369  0.2463 -0.2388  0.3980
 5255SOL    HW116449   4.511   3.428   0.424  2.6023 -0.2514 -0.7257
 5255SOL    HW216450   4.415   3.465   0.312  0.8352 -1.3239  0.3833
 5256SOL     OW16451   0.048   0.148   4.811  0.3604  0.1740 -0.3678
 5256SOL    HW116452   0.027   0.139   4.718 -0.0673  0.1650 -0.2698
 5256SOL    HW216453   0.118   0.213   4.813  0.3919  0.1530 -0.6980
 5257SOL     OW16454   3.796   4.065   3.838 -0.3238  0.3654  0.3696
 5257SOL    HW116455   3.866   4.086   3.900 -0.6000  2.4170  0.0578
 5257SOL    HW216456   3.720   4.046   3.893 -0.5340  2.0439  0.7152
 5258SOL     OW16457   5.124   5.718   1.143  0.3194 -0.1158 -0.5102
 5258SOL    HW116458   5.048   5.764   1.180  0.5108  1.3366 -1.8160
 5258SOL    HW216459   5.200   5.759   1.184  0.4681  0.1551 -1.0498
 5259SOL     OW16460   5.290   0.282   1.919  0.1744 -0.4428  0.1074
 5259SOL    HW116461   5.282   0.188   1.901  1.1326 -0.5103 -0.0150
 5259SOL    HW216462   5.318   0.287   2.010 -1.1392 -0.2156  0.5244
 5260SOL     OW16463   4.025   6.390   0.145 -0.2258  0.0429 -0.3153
 5260SOL    HW116464   3.991   6.323   0.087  0.2393 -0.2584 -0.2510
 5260SOL    HW216465   4.112   6.357   0.171  0.3354  1.0243 -0.8910
 5261SOL     OW16466   6.270   3.871   3.138 -0.2048  0.1415 -0.9051
 5261SOL    HW116467   6.193   3.928   3.139  0.1499  0.6392 -1.2273
 5261SOL    HW216468   6.250   3.805   3.072  0.6666  1.7584 -2.8995
 5262SOL     OW16469   3.804   6.311   2.414 -0.0227  0.0975 -0.0846
 5262SOL    HW116470   3.878   6.326   2.355 -0.5166  0.3686 -0.6481
 5262SOL    HW216471   3.745   6.255   2.363 -0.6015  0.5986  0.0324
 5263SOL     OW16472   5.622   2.245   1.422  0.1542  0.1621  0.8202
 5263SOL    HW116473   5.651   2.332   1.393 -1.2290  1.2679  2.5421
 5263SOL    HW216474   5.682   2.184   1.379  2.6611  2.0810  1.3409
 5264SOL     OW16475   2.131   5.447   1.501  0.3804 -0.6153  0.1911
 5264SOL    HW116476   2.079   5.505   1.446  1.8391  1.2556  0.6802
 5264SOL    HW216477   2.160   5.378   1.442  0.0885  0.1293 -0.8612
 5265SOL     OW16478   1.582   1.015   1.478 -0.2821  0.8977  0.7393
 5265SOL    HW116479   1.539   1.072   1.415 -1.4303 -2.6079 -1.9698
 5265SOL    HW216480   1.513   0.958   1.511  1.3010 -1.2595  0.5367
 5266SOL     OW16481   2.368   2.579   1.413 -0.2807  0.4147 -0.2947
 5266SOL    HW116482   2.305   2.554   1.480  1.2735 -0.7444  0.7912
 5266SOL    HW216483   2.396   2.497   1.373 -0.5650  1.0266 -1.8189
 5267SOL     OW16484   2.861   2.162   5.462  0.0371  0.2199  0.8590
 5267SOL    HW116485   2.840   2.230   5.398  0.8451  0.8590  1.2495
 5267SOL    HW216486   2.936   2.116   5.424 -1.1127 -1.1446  0.1214
 5268SOL     OW16487   2.588   1.247   2.515 -0.5399 -0.1623  0.4039
 5268SOL    HW116488   2.516   1.184   2.516 -1.5791  0.9638 -0.1911
 5268SOL    HW216489   2.649   1.214   2.450 -0.9903 -0.6539  0.2257
 5269SOL     OW16490   5.457   2.029   2.597  0.1663 -0.3674  0.1602
 5269SOL    HW116491   5.364   2.018   2.612  0.2000  1.4114  2.0180
 5269SOL    HW216492   5.478   2.115   2.633  2.6566 -1.0192  0.4951
 5270SOL     OW16493   6.514   3.932   4.592  0.8884  0.0041 -0.5391
 5270SOL    HW116494   6.535   3.992   4.520 -2.8606  0.9260 -1.0892
 5270SOL    HW216495   6.442   3.879   4.558  1.5028 -2.1473  1.3269
 5271SOL     OW16496   4.230   1.195   1.941 -0.0623  0.2792 -0.2435
 5271SOL    HW116497   4.150   1.164   1.983 -1.1821  2.3344 -0.7282
 5271SOL    HW216498   4.204   1.275   1.894  2.1895  0.8204 -0.7204
 5272SOL     OW16499   5.075   3.773   1.410 -0.0457  0.1686  0.2174
 5272SOL    HW116500   5.073   3.866   1.431 -1.1379  0.1104  0.3848
 5272SOL    HW216501   5.076   3.729   1.495 -0.7567  0.0040  0.1434
 5273SOL     OW16502   1.062   5.362   1.536  0.8790  1.0531  0.5454
 5273SOL    HW116503   0.992   5.425   1.550 -0.2187 -0.1361  0.5629
 5273SOL    HW216504   1.044   5.325   1.449 -0.0609 -1.1154  1.6047
 5274SOL     OW16505   2.103   5.707   4.289 -0.0936  0.4370  0.2431
 5274SOL    HW116506   2.190   5.745   4.281  0.5950 -0.6686  1.7763
 5274SOL    HW216507   2.107   5.625   4.241 -0.2971  0.3916  0.2990
 5275SOL     OW16508   2.815   3.112   0.855  0.1407  0.2502  0.4044
 5275SOL    HW116509   2.889   3.051   0.858 -0.9077 -1.0339  1.6138
 5275SOL    HW216510   2.769   3.098   0.938 -2.4609 -0.2960 -0.9982
 5276SOL     OW16511   1.288   4.984   0.938  0.2667 -0.5376 -0.4388
 5276SOL    HW116512   1.268   4.891   0.929 -0.4319 -0.4313 -0.1033
 5276SOL    HW216513   1.349   4.988   1.012 -1.8862 -0.5095  1.4600
 5277SOL     OW16514   5.502   4.475   5.669  0.1086 -0.4541 -0.4163
 5277SOL    HW116515   5.416   4.509   5.642 -0.3345 -0.0989  1.3522
 5277SOL    HW216516   5.496   4.381   5.650 -0.4688 -0.3511 -0.8027
 5278SOL     OW16517   2.923   4.913   3.201  0.0034 -0.3061 -0.3037
 5278SOL    HW116518   2.866   4.853   3.249 -0.0905 -0.3611 -0.4811
 5278SOL    HW216519   2.867   4.987   3.179  0.0419 -0.2876 -0.3394
 5279SOL     OW16520   0.976   1.655   2.614 -0.5158 -0.3928 -0.0979
 5279SOL    HW116521   0.988   1.746   2.588 -0.3870 -0.0789  1.0063
 5279SOL    HW216522   0.883   1.648   2.635 -1.0370 -1.1286 -2.3356
 5280SOL     OW16523   0.700   0.684   0.519 -0.0783 -0.8505  0.2650
 5280SOL    HW116524   0.787   0.668   0.483 -0.3806 -0.2739 -0.7585
 5280SOL    HW216525   0.640   0.659   0.449 -0.6435  1.8007 -0.3047
 5281SOL     OW16526   1.824   6.237   1.770  0.2587 -0.2130  0.1655
 5281SOL    HW116527   1.742   6.189   1.763  0.0791  0.3385 -2.7216
 5281SOL    HW216528   1.886   6.175   1.808 -1.0583 -1.1621  0.8211
 5282SOL     OW16529   5.156   1.991   1.791 -0.0836  0.5720 -0.1907
 5282SOL    HW116530   5.225   2.058   1.797 -0.4562  1.0455 -1.0137
 5282SOL    HW216531   5.092   2.017   1.857  0.4564  0.1904  0.5064
 5283SOL     OW16532   5.874   0.192   6.125 -0.0293  0.5289 -0.1103
 5283SOL    HW116533   5.820   0.115   6.142  0.2331  0.1655 -0.8923
 5283SOL    HW216534   5.862   0.247   6.202  1.7305 -1.3701  1.6593
 5284SOL     OW16535   6.092   6.248   1.082 -0.7153  0.8152 -0.3245
 5284SOL    HW116536   6.073   6.177   1.143 -0.1854  1.6458  0.8414
 5284SOL    HW216537   6.032   6.318   1.107  0.5801  1.7451  0.3371
 5285SOL     OW16538   2.127   1.350   3.023  0.5815 -0.7931  0.8045
 5285SOL    HW116539   2.155   1.429   2.977  1.2640 -1.1768  0.5567
 5285SOL    HW216540   2.076   1.383   3.098 -1.1226 -0.1662 -0.5586
 5286SOL     OW16541   3.541   0.111   5.071  0.1737 -0.8006 -0.3523
 5286SOL    HW116542   3.525   0.147   5.158 -1.0930  0.0746 -0.9176
 5286SOL    HW216543   3.605   0.170   5.032 -1.1594  0.3525 -0.9104
 5287SOL     OW16544   5.297   4.274   0.446 -0.0101  0.2020 -0.8741
 5287SOL    HW116545   5.363   4.301   0.510 -0.6411 -0.0123 -0.1211
 5287SOL    HW216546   5.288   4.179   0.459 -0.1951  0.1666 -1.2382
 5288SOL     OW16547   0.329   1.828   1.035 -0.2945  0.4561  0.1976
 5288SOL    HW116548   0.259   1.888   1.009 -0.3552  0.7222  0.9584
 5288SOL    HW216549   0.409   1.879   1.028 -0.3037  0.5064  0.4804
 5289SOL     OW16550   3.929   0.770   5.235  0.1860 -0.5685 -0.0308
 5289SOL    HW116551   3.973   0.693   5.198  0.6403 -0.3671  0.0840
 5289SOL    HW216552   3.970   0.845   5.192 -0.0827 -0.3804  0.0377
 5290SOL     OW16553   6.139   2.908   1.740 -0.3919  0.4071  0.0252
 5290SOL    HW116554   6.120   2.815   1.729  0.2568  0.0960  1.3413
 5290SOL    HW216555   6.055   2.946   1.768 -0.3845  0.0027  0.6115
 5291SOL     OW16556   0.852   6.006   4.351  0.3098 -0.4665 -0.6813
 5291SOL    HW116557   0.777   6.045   4.395  0.1728 -0.7430 -0.6664
 5291SOL    HW216558   0.928   6.055   4.384  0.4259 -1.8277  1.2721
 5292SOL     OW16559   5.045   0.893   3.237 -0.6669  0.0395 -0.1238
 5292SOL    HW116560   5.112   0.847   3.187 -1.2355 -0.6741 -0.2600
 5292SOL    HW216561   5.022   0.832   3.307  0.4443  1.2120  1.3161
 5293SOL     OW16562   0.191   4.837   2.370 -0.1181 -0.1765 -0.0363
 5293SOL    HW116563   0.160   4.876   2.452 -0.0975 -2.1375  0.9570
 5293SOL    HW216564   0.112   4.822   2.319 -0.1147  1.2318 -0.5040
 5294SOL     OW16565   0.692   1.695   3.379 -0.1531  0.2503 -0.2105
 5294SOL    HW116566   0.617   1.747   3.409 -1.9094 -2.9048  1.4001
 5294SOL    HW216567   0.669   1.668   3.290 -0.1616  0.5983 -0.3149
 5295SOL     OW16568   1.412   0.124   3.213 -0.2691  0.6170  0.4116
 5295SOL    HW116569   1.380   0.160   3.295  2.1693  0.1809  1.6380
 5295SOL    HW216570   1.453   0.041   3.236 -0.9015 -0.3086 -1.5189
 5296SOL     OW16571   1.470   5.508   1.769 -0.3180  0.2859  0.2488
 5296SOL    HW116572   1.469   5.562   1.690  0.8162 -1.4308 -0.9922
 5296SOL    HW216573   1.554   5.461   1.765  0.8931  1.8173  3.6661
 5297SOL     OW16574   0.788   6.016   3.248  0.0508 -0.5963  0.4049
 5297SOL    HW116575   0.866   6.070   3.238 -0.7961  0.6626  0.4574
 5297SOL    HW216576   0.773   5.978   3.162  0.8088 -1.0003  0.4378
 5298SOL     OW16577   5.331   5.263   4.511  0.0145 -0.1200  0.0807
 5298SOL    HW116578   5.238   5.272   4.531 -0.2241 -0.0034 -1.0164
 5298SOL    HW216579   5.372   5.340   4.549 -0.5586  0.5737 -0.6729
 5299SOL     OW16580   1.460   1.076   6.193  0.5655 -0.0405  0.0866
 5299SOL    HW116581   1.494   1.073   6.103 -0.5834 -1.4727 -0.3368
 5299SOL    HW216582   1.486   0.993   6.231 -1.1351 -0.5464  0.2183
 5300SOL     OW16583   2.404   0.915   0.998 -0.8345 -0.5785  0.2613
 5300SOL    HW116584   2.476   0.966   1.036  0.2168 -2.0753  0.3493
 5300SOL    HW216585   2.402   0.940   0.906 -0.8135  0.1584  0.4578
 5301SOL     OW16586   4.233   5.502   5.840  0.4104  0.3057 -0.2174
 5301SOL    HW116587   4.232   5.438   5.910  0.6058 -0.8001 -1.1924
 5301SOL    HW216588   4.256   5.452   5.762 -0.2365  1.4143 -1.1567
 5302SOL     OW16589   3.005   4.435   5.331  0.0595 -0.7823 -0.4443
 5302SOL    HW116590   2.945   4.465   5.400 -0.1587 -0.0860 -0.9229
 5302SOL    HW216591   2.981   4.343   5.316 -1.1576 -0.4129 -0.8872
 5303SOL     OW16592   4.842   2.218   1.277  0.2472  0.6243  0.1578
 5303SOL    HW116593   4.898   2.141   1.288 -0.1946  0.3449  0.4758
 5303SOL    HW216594   4.855   2.244   1.186 -2.1074 -1.8447 -1.0397
 5304SOL     OW16595   0.460   5.231   4.723 -0.0337  0.0578 -0.6100
 5304SOL    HW116596   0.542   5.209   4.768 -0.2000  0.4982 -0.0795
 5304SOL    HW216597   0.485   5.245   4.632  0.3648 -0.5114 -0.5943
 5305SOL     OW16598   3.401   5.298   0.344 -0.0673 -0.0240 -0.6712
 5305SOL    HW116599   3.419   5.255   0.428  0.6832  0.2280 -0.6975
 5305SOL    HW216600   3.340   5.368   0.365  0.3821  0.2526 -0.2758
 5306SOL     OW16601   2.805   0.256   1.228 -0.4099  0.0660 -0.1298
 5306SOL    HW116602   2.811   0.191   1.298 -0.3164 -0.5919 -0.7328
 5306SOL    HW216603   2.794   0.339   1.273 -1.3383 -0.4589  0.6455
 5307SOL     OW16604   1.145   5.205   2.077  0.0291  0.2235 -0.0530
 5307SOL    HW116605   1.162   5.122   2.033 -0.9136  0.9643 -1.9670
 5307SOL    HW216606   1.200   5.268   2.030  0.4094  0.7546  1.0880
 5308SOL     OW16607   4.227   3.092   5.682 -0.3134 -0.8257  0.3087
 5308SOL    HW116608   4.281   3.038   5.739 -0.7067 -1.1631  0.3719
 5308SOL    HW216609   4.194   3.162   5.738  0.1841 -0.5213  0.2305
 5309SOL     OW16610   0.058   2.933   4.586 -0.4775 -0.5483 -0.2427
 5309SOL    HW116611   0.052   2.944   4.681  1.4311 -1.0861 -0.0259
 5309SOL    HW216612   0.069   3.022   4.552 -0.3431 -0.4243  0.1171
 5310SOL     OW16613   1.378   3.758   5.379 -0.6990  0.5602 -0.5218
 5310SOL    HW116614   1.404   3.848   5.358 -0.7920  0.7677  0.2336
 5310SOL    HW216615   1.432   3.734   5.454  0.2961 -0.5094 -1.5342
 5311SOL     OW16616   0.270   6.272   5.256  0.5525  0.5748 -0.1635
 5311SOL    HW116617   0.274   6.306   5.345 -0.5177  0.8346 -0.2027
 5311SOL    HW216618   0.317   6.337   5.203 -1.7520  2.2627 -0.2945
 5312SOL     OW16619   4.811   2.135   2.896 -0.6106 -0.1193 -0.0061
 5312SOL    HW116620   4.900   2.152   2.865 -0.6814 -1.1323 -0.8214
 5312SOL    HW216621   4.780   2.062   2.842 -2.2429  0.7404 -0.3156
 5313SOL     OW16622   4.072   3.888   0.443 -0.4094 -0.4250 -0.0594
 5313SOL    HW116623   4.066   3.960   0.506 -0.1055 -0.4810  0.0395
 5313SOL    HW216624   4.153   3.843   0.467  0.1567  0.0467 -1.0212
 5314SOL     OW16625   1.503   3.462   3.121  0.0259  0.0689 -0.4227
 5314SOL    HW116626   1.566   3.486   3.189  0.9420 -2.2600 -0.3672
 5314SOL    HW216627   1.438   3.407   3.166 -0.7631  0.5288 -0.9654
 5315SOL     OW16628   1.304   4.301   6.047 -0.1108 -0.8013  0.0887
 5315SOL    HW116629   1.339   4.256   6.124  3.2097  0.6077 -0.4202
 5315SOL    HW216630   1.215   4.327   6.072 -0.5103 -3.5721  2.0014
 5316SOL     OW16631   5.179   1.979   2.658 -0.0173  0.4223  0.1614
 5316SOL    HW116632   5.170   1.947   2.568  0.3050 -2.3590  1.0300
 5316SOL    HW216633   5.090   1.980   2.693 -0.1906  1.8809 -0.2610
 5317SOL     OW16634   4.253   4.779   4.680 -0.4500  0.6956  0.6270
 5317SOL    HW116635   4.269   4.695   4.724 -1.5885  1.3687  2.4487
 5317SOL    HW216636   4.338   4.822   4.678 -0.2088  0.2764  1.4205
 5318SOL     OW16637   2.564   0.412   0.963  0.3164  0.4035  0.0529
 5318SOL    HW116638   2.565   0.390   0.870  0.5335  0.2356  0.0932
 5318SOL    HW216639   2.608   0.496   0.968  1.9200 -0.4037  0.1961
 5319SOL     OW16640   0.067   5.783   5.400  0.3131  0.4076 -0.0107
 5319SOL    HW116641   0.001   5.717   5.419  1.3319 -0.4254  0.7659
 5319SOL    HW216642   0.083   5.775   5.306 -1.7088  1.6353 -0.5243
 5320SOL     OW16643   6.193   1.219   0.596  0.1763 -0.1682  0.4661
 5320SOL    HW116644   6.218   1.283   0.662  1.1091  0.0213 -0.0550
 5320SOL    HW216645   6.149   1.149   0.645  0.4206  0.2019  1.2152
 5321SOL     OW16646   5.488   5.101   2.096 -0.0045  0.2449  0.8392
 5321SOL    HW116647   5.519   5.188   2.071  2.0727 -0.5876  0.3032
 5321SOL    HW216648   5.563   5.061   2.141 -0.4456 -1.7326 -0.0954
 5322SOL     OW16649   2.417   0.684   4.223 -0.3502 -0.6365 -0.5395
 5322SOL    HW116650   2.438   0.591   4.231 -0.0682 -0.4539  1.4047
 5322SOL    HW216651   2.340   0.686   4.167 -2.0464 -2.3400  1.5042
 5323SOL     OW16652   3.904   2.351   2.999  0.0216 -0.0710 -0.5876
 5323SOL    HW116653   3.912   2.377   3.091 -2.5711 -2.1342  0.3683
 5323SOL    HW216654   3.972   2.285   2.987 -0.0690 -0.3006  0.0908
 5324SOL     OW16655   1.409   4.809   5.858 -0.4867  0.2867  0.0873
 5324SOL    HW116656   1.442   4.735   5.909 -0.5787  0.3321  0.2129
 5324SOL    HW216657   1.360   4.769   5.786 -1.3769  0.2370  0.7154
 5325SOL     OW16658   0.226   5.416   3.765 -0.1057  0.0105  0.1759
 5325SOL    HW116659   0.201   5.499   3.804 -1.3126  0.7204 -1.9546
 5325SOL    HW216660   0.294   5.382   3.823  0.3028  2.3813  1.2007
 5326SOL     OW16661   1.000   2.966   1.168 -0.5014 -0.0678 -0.1030
 5326SOL    HW116662   0.954   2.884   1.155 -1.4321  0.5708 -0.9276
 5326SOL    HW216663   1.049   2.953   1.250 -0.4919 -1.4853 -0.3132
 5327SOL     OW16664   1.400   3.218   0.635  0.8733  0.3431  0.3491
 5327SOL    HW116665   1.327   3.184   0.583  0.9815 -1.6993  1.4200
 5327SOL    HW216666   1.467   3.240   0.571  0.9401 -1.9420 -0.4377
 5328SOL     OW16667   1.099   1.427   5.818 -0.0802 -0.0033  0.4195
 5328SOL    HW116668   1.102   1.392   5.729  0.4602  2.4815 -0.6291
 5328SOL    HW216669   1.007   1.451   5.831 -0.1442 -0.2939  0.5113
 5329SOL     OW16670   2.826   0.875   4.886 -0.0167  0.2233 -0.5569
 5329SOL    HW116671   2.810   0.782   4.907  0.5752 -0.1406 -1.6688
 5329SOL    HW216672   2.875   0.908   4.962 -2.3322  0.2965  1.0048
 5330SOL     OW16673   1.511   4.690   4.240  0.0589  0.2854  0.1889
 5330SOL    HW116674   1.516   4.675   4.145  0.0414  1.2185  0.0330
 5330SOL    HW216675   1.456   4.767   4.249 -1.7413 -1.0218  1.0874
 5331SOL     OW16676   2.958   1.285   6.208 -0.2997  0.2447  0.2018
 5331SOL    HW116677   2.869   1.301   6.241  0.1767  0.3451  1.5041
 5331SOL    HW216678   3.001   1.370   6.215  0.4279 -0.1954  1.3334
 5332SOL     OW16679   0.132   1.912   2.118  0.3022  0.5405  0.0346
 5332SOL    HW116680   0.078   1.933   2.194 -2.5638  2.2119 -2.3031
 5332SOL    HW216681   0.119   1.818   2.105 -0.5970  0.5845  0.5584
 5333SOL     OW16682   0.664   3.389   5.012  0.1974 -0.3123  0.1986
 5333SOL    HW116683   0.678   3.315   5.071  1.5528 -0.0506  0.2160
 5333SOL    HW216684   0.599   3.443   5.058  0.2384 -0.7775  0.8293
 5334SOL     OW16685   0.678   2.369   5.496 -0.1262  0.2505 -0.5461
 5334SOL    HW116686   0.695   2.353   5.403 -1.7032 -0.4240 -0.7439
 5334SOL    HW216687   0.636   2.289   5.527 -1.0905  1.0742  0.3441
 5335SOL     OW16688   5.303   1.538   2.602 -0.3040  0.0840 -0.1578
 5335SOL    HW116689   5.256   1.539   2.518 -1.3849 -0.2174  0.4284
 5335SOL    HW216690   5.385   1.582   2.583 -0.5557  0.0822 -1.3691
 5336SOL     OW16691   1.770   6.161   5.913 -0.1367 -0.4188  0.7643
 5336SOL    HW116692   1.773   6.090   5.848 -2.5383  1.2946 -1.4569
 5336SOL    HW216693   1.678   6.169   5.935  0.1234  1.6788  1.2985
 5337SOL     OW16694   3.410   2.953   4.067 -0.0394  0.1405  0.3018
 5337SOL    HW116695   3.492   2.992   4.039 -0.1974  0.1093 -0.2113
 5337SOL    HW216696   3.419   2.944   4.162  0.7494 -0.3407  0.1910
 5338SOL     OW16697   0.966   2.480   4.339 -0.4598  0.0236  0.3411
 5338SOL    HW116698   0.871   2.491   4.336 -0.4198  0.1971 -0.7863
 5338SOL    HW216699   0.985   2.414   4.272  0.4745  2.1022 -1.5363
 5339SOL     OW16700   2.688   2.078   3.928  0.1049 -0.1751 -0.5105
 5339SOL    HW116701   2.777   2.044   3.919  0.2412  0.3494 -1.2283
 5339SOL    HW216702   2.689   2.130   4.008  0.4927 -0.0256 -0.6119
 5340SOL     OW16703   4.268   3.783   2.301  0.5215  0.1073 -0.0871
 5340SOL    HW116704   4.233   3.858   2.253  0.6535 -0.0193 -0.3831
 5340SOL    HW216705   4.191   3.733   2.326  0.2843  1.2391  1.6458
 5341SOL     OW16706   5.267   2.372   5.919 -0.0122 -0.2869  0.5514
 5341SOL    HW116707   5.209   2.423   5.863  0.7505  0.4389  0.4018
 5341SOL    HW216708   5.273   2.287   5.877  0.1061  0.0707 -0.1751
 5342SOL     OW16709   0.295   6.428   5.808  0.1192 -0.3522 -0.3046
 5342SOL    HW116710   0.366   6.484   5.839  1.1449 -1.3825 -0.6825
 5342SOL    HW216711   0.311   6.344   5.852 -1.8819 -0.1441  0.9278
 5343SOL     OW16712   0.186   5.933   6.388 -0.3079  0.3981 -0.7092
 5343SOL    HW116713   0.112   5.979   6.349 -1.1894  0.8321  1.3493
 5343SOL    HW216714   0.170   5.841   6.371 -1.5600  0.4559  0.0277
 5344SOL     OW16715   2.799   3.609   3.198  0.5000 -0.1998  0.1324
 5344SOL    HW116716   2.859   3.666   3.150 -0.6419  2.6320  1.8769
 5344SOL    HW216717   2.714   3.623   3.156  0.2647 -0.9684  0.3351
 5345SOL     OW16718   1.814   6.322   2.982 -0.6994 -0.1528  0.6235
 5345SOL    HW116719   1.821   6.234   3.020  1.7479  0.3454  1.5577
 5345SOL    HW216720   1.899   6.337   2.940 -1.3058  1.5128 -0.1003
 5346SOL     OW16721   1.587   2.363   2.113  0.0629  0.3446  0.3816
 5346SOL    HW116722   1.514   2.368   2.051  2.1432  1.0827 -2.1799
 5346SOL    HW216723   1.571   2.282   2.162 -3.9999  1.9139  2.1222
 5347SOL     OW16724   3.280   6.028   1.981  0.3228 -0.0139  0.1068
 5347SOL    HW116725   3.272   5.937   2.010 -0.4814 -0.0067 -0.0658
 5347SOL    HW216726   3.202   6.043   1.928  1.9357 -0.1464 -2.4389
 5348SOL     OW16727   1.833   6.120   3.554 -0.1155 -0.1683  0.0853
 5348SOL    HW116728   1.843   6.206   3.594 -2.6063  0.2750 -0.0608
 5348SOL    HW216729   1.781   6.070   3.617 -2.0273 -0.2409 -1.4563
 5349SOL     OW16730   5.704   4.556   2.404  0.5752  0.3758  0.4124
 5349SOL    HW116731   5.762   4.573   2.330 -0.1308  1.3198  0.0546
 5349SOL    HW216732   5.726   4.467   2.433  0.5335 -0.1957 -1.2351
 5350SOL     OW16733   5.925   1.547   0.753  0.5153 -0.2607  0.2363
 5350SOL    HW116734   5.858   1.609   0.723 -1.4483 -1.6996  1.4184
 5350SOL    HW216735   5.987   1.602   0.801  0.6060  1.2104 -1.4554
 5351SOL     OW16736   5.455   2.835   0.611 -0.2011  0.6339 -0.2428
 5351SOL    HW116737   5.421   2.811   0.525 -1.3800  0.6048  0.2153
 5351SOL    HW216738   5.391   2.801   0.673  0.8801  0.2119  0.6921
 5352SOL     OW16739   6.078   6.249   3.067 -0.1071 -0.0694  0.5052
 5352SOL    HW116740   6.034   6.333   3.080  1.3344  1.0610 -1.3812
 5352SOL    HW216741   6.149   6.268   3.006  1.2185 -2.3822  1.1838
 5353SOL     OW16742   5.089   2.777   4.420 -0.6866 -0.1772 -0.3594
 5353SOL    HW116743   5.026   2.819   4.478 -1.2507  0.0262 -1.1105
 5353SOL    HW216744   5.174   2.813   4.446 -1.0679  0.7887 -0.4258
 5354SOL     OW16745   2.036   2.968   1.948  0.4247  0.1013 -0.1344
 5354SOL    HW116746   2.093   3.013   2.010  1.7234 -0.8977 -0.5390
 5354SOL    HW216747   2.026   2.879   1.984 -0.7700  0.2158 -0.1517
 5355SOL     OW16748   4.470   3.625   5.556  0.6673 -0.2596 -0.0371
 5355SOL    HW116749   4.565   3.611   5.554  0.3375 -3.0030 -0.2410
 5355SOL    HW216750   4.433   3.539   5.539 -1.8951  0.7122  0.2091
 5356SOL     OW16751   0.877   4.412   2.051  0.0905 -0.4452 -0.1531
 5356SOL    HW116752   0.849   4.407   1.959  1.0212  1.8863 -0.6452
 5356SOL    HW216753   0.957   4.464   2.048 -0.6649  0.9676  2.1281
 5357SOL     OW16754   2.635   3.009   3.407  0.7031  0.5790  0.2464
 5357SOL    HW116755   2.591   2.925   3.421  1.1267 -0.1807 -2.4628
 5357SOL    HW216756   2.718   3.000   3.455  1.0845 -0.8881 -0.6193
 5358SOL     OW16757   6.166   5.109   4.337 -0.0629 -0.2779  0.5214
 5358SOL    HW116758   6.222   5.112   4.414 -1.6930 -2.6193  1.8830
 5358SOL    HW216759   6.206   5.043   4.281 -1.3843 -1.9952  1.5209
 5359SOL     OW16760   1.116   0.585   5.067  0.2481  0.3452  0.7510
 5359SOL    HW116761   1.102   0.497   5.032 -1.8888  0.4740  1.1333
 5359SOL    HW216762   1.179   0.625   5.008 -1.9518  0.0015 -2.0371
 5360SOL     OW16763   4.213   1.988   2.751 -0.8862  0.3065 -0.3852
 5360SOL    HW116764   4.118   1.980   2.756 -0.8148 -0.1021  0.5136
 5360SOL    HW216765   4.245   1.899   2.736 -0.5710  0.1692  0.9511
 5361SOL     OW16766   6.265   2.906   1.444  0.0860  0.0735  0.3274
 5361SOL    HW116767   6.195   2.926   1.507 -0.5792 -1.4620  0.1013
 5361SOL    HW216768   6.296   2.992   1.416 -0.9037  0.7895  1.3245
 5362SOL     OW16769   0.486   5.338   0.148 -0.5839  0.5198 -0.2473
 5362SOL    HW116770   0.538   5.258   0.159  0.8352  1.4368  0.0079
 5362SOL    HW216771   0.406   5.322   0.198 -0.2823 -0.7056 -0.1334
 5363SOL     OW16772   5.146   0.159   0.898 -0.2490 -0.1214 -0.0638
 5363SOL    HW116773   5.092   0.114   0.964  1.3419 -0.6417  0.9324
 5363SOL    HW216774   5.130   0.252   0.913 -0.8784 -0.2597  0.1800
 5364SOL     OW16775   1.123   1.806   6.382  0.2785 -0.2110 -0.2020
 5364SOL    HW116776   1.151   1.798   6.291 -1.9384  1.2914 -1.1143
 5364SOL    HW216777   1.188   1.863   6.422 -0.7144  2.4015 -1.9785
 5365SOL     OW16778   3.672   2.191   0.751  0.2852  0.3738  0.0408
 5365SOL    HW116779   3.666   2.178   0.656  1.5301  1.1135 -0.1526
 5365SOL    HW216780   3.582   2.180   0.782 -0.6008  2.5569 -1.5284
 5366SOL     OW16781   3.020   2.859   3.104 -0.1997  0.4892 -0.1257
 5366SOL    HW116782   3.099   2.852   3.051  0.2781 -1.1973  0.7637
 5366SOL    HW216783   2.995   2.951   3.097  1.9243  1.0951 -0.2823
 5367SOL     OW16784   2.318   2.656   0.018 -0.1031  0.1499 -0.2517
 5367SOL    HW116785   2.251   2.700   0.071  0.3316 -0.1506  0.5724
 5367SOL    HW216786   2.369   2.606   0.082  1.4622  1.0757 -0.7246
 5368SOL     OW16787   1.248   5.707   5.497  0.0143 -0.2492  0.0016
 5368SOL    HW116788   1.332   5.688   5.538 -0.1905  0.3591  0.7341
 5368SOL    HW216789   1.184   5.690   5.566 -0.3604  0.5768 -0.1342
 5369SOL     OW16790   0.371   4.591   3.707 -0.2081 -0.1523 -0.3010
 5369SOL    HW116791   0.451   4.639   3.726 -1.6959  1.4996  2.4025
 5369SOL    HW216792   0.378   4.511   3.759 -1.1311  0.9688  1.6392
 5370SOL     OW16793   4.778   3.338   1.593  0.8822  0.4091 -0.3685
 5370SOL    HW116794   4.841   3.278   1.552  0.7513  0.5856 -0.8259
 5370SOL    HW216795   4.806   3.341   1.685 -0.6455 -2.4335  0.3222
 5371SOL     OW16796   0.183   4.142   0.952 -0.3298  0.1085 -0.2797
 5371SOL    HW116797   0.217   4.056   0.928 -0.4961  0.0729 -0.3883
 5371SOL    HW216798   0.220   4.201   0.886  0.7515  0.3198  0.4779
 5372SOL     OW16799   5.675   5.207   5.516  0.0763 -0.2227 -0.2302
 5372SOL    HW116800   5.668   5.209   5.421  0.5944  3.0106 -0.3047
 5372SOL    HW216801   5.639   5.121   5.541 -3.3431  0.1514 -3.0729
 5373SOL     OW16802   1.165   5.012   4.557 -0.3745  0.3040  0.3755
 5373SOL    HW116803   1.211   4.957   4.620 -0.0663  0.7090  0.5102
 5373SOL    HW216804   1.081   5.031   4.598 -1.3435 -1.7308 -0.5374
 5374SOL     OW16805   0.798   3.061   0.850 -0.0310  0.1486  0.9232
 5374SOL    HW116806   0.811   3.104   0.766 -0.4004 -0.6389  0.4510
 5374SOL    HW216807   0.825   3.126   0.915  1.7046  0.2212  0.1647
 5375SOL     OW16808   3.131   5.293   1.966  0.1329 -0.4278 -1.0253
 5375SOL    HW116809   3.139   5.198   1.959  1.6535 -0.2966 -1.4337
 5375SOL    HW216810   3.191   5.327   1.899  0.3089  0.8193 -0.2588
 5376SOL     OW16811   2.322   5.133   0.588  0.0249  0.0525 -0.2420
 5376SOL    HW116812   2.245   5.086   0.621 -0.4858  1.6103  0.8726
 5376SOL    HW216813   2.357   5.179   0.664  1.7575 -0.1709 -0.8536
 5377SOL     OW16814   6.188   3.591   2.456 -0.3212 -0.5150  0.0057
 5377SOL    HW116815   6.263   3.561   2.507  0.3848  3.6437  1.8546
 5377SOL    HW216816   6.113   3.578   2.513 -0.5245 -1.6169 -0.4967
 5378SOL     OW16817   2.925   4.382   2.979 -0.3570 -0.2340 -0.1548
 5378SOL    HW116818   2.841   4.386   3.024 -0.6393  0.5406 -0.7329
 5378SOL    HW216819   2.919   4.448   2.910  0.0476 -1.3927 -1.3616
 5379SOL     OW16820   1.317   5.663   3.206  0.2343 -0.0236  0.1462
 5379SOL    HW116821   1.224   5.688   3.214  0.3848  0.6520 -0.1355
 5379SOL    HW216822   1.359   5.706   3.280  0.3358 -0.2914  0.2447
 5380SOL     OW16823   2.512   3.556   0.190  0.2767  0.0715 -0.2670
 5380SOL    HW116824   2.595   3.596   0.165  0.1285  0.5221 -0.0505
 5380SOL    HW216825   2.469   3.536   0.108  0.6772 -0.3413 -0.3851
 5381SOL     OW16826   2.154   3.637   4.297  0.4710 -0.0117  0.2218
 5381SOL    HW116827   2.164   3.687   4.216  3.1378 -1.1558 -0.2520
 5381SOL    HW216828   2.235   3.587   4.305 -0.8313 -2.0005  2.2247
 5382SOL     OW16829   5.814   5.942   2.085  0.3304  0.2947 -0.1900
 5382SOL    HW116830   5.904   5.922   2.062  0.5428 -1.2538  1.7257
 5382SOL    HW216831   5.791   5.879   2.153 -1.7684  1.4912  0.3331
 5383SOL     OW16832   2.553   0.664   3.516 -0.1764  0.0390  0.6246
 5383SOL    HW116833   2.606   0.685   3.439 -1.5868  1.2500 -0.0820
 5383SOL    HW216834   2.600   0.701   3.590  0.7562 -0.3573  0.2414
 5384SOL     OW16835   1.952   6.292   3.986 -0.1641  0.3864 -0.0859
 5384SOL    HW116836   1.996   6.356   4.042  0.3212 -0.0192 -0.0074
 5384SOL    HW216837   1.867   6.333   3.967  1.1021  2.2594 -2.1896
 5385SOL     OW16838   1.195   5.380   6.138 -0.0353 -0.2043 -0.5043
 5385SOL    HW116839   1.185   5.321   6.064  1.1182 -0.4012 -0.5183
 5385SOL    HW216840   1.151   5.336   6.211 -1.4666  0.1418 -1.1261
 5386SOL     OW16841   1.086   4.697   4.507  0.9928  0.1664 -1.0568
 5386SOL    HW116842   1.080   4.691   4.602  0.3753 -0.9458 -1.1495
 5386SOL    HW216843   1.165   4.749   4.491  2.6859 -1.9415  0.0393
 5387SOL     OW16844   2.404   6.012   1.402 -0.0821 -0.0885 -0.3575
 5387SOL    HW116845   2.321   5.966   1.391 -0.0158 -0.5575  0.9822
 5387SOL    HW216846   2.408   6.033   1.495 -0.2228  2.8803 -0.9091
 5388SOL     OW16847   0.456   5.703   3.508 -0.0552 -0.2356  0.7205
 5388SOL    HW116848   0.480   5.774   3.568 -1.0828 -1.3691  2.5508
 5388SOL    HW216849   0.497   5.625   3.545 -0.8272 -0.9922  0.0215
 5389SOL     OW16850   1.634   2.317   4.603 -0.0902  0.1592  0.2180
 5389SOL    HW116851   1.650   2.261   4.679 -0.1062  1.0224  0.8792
 5389SOL    HW216852   1.721   2.329   4.564 -0.1637 -0.7509 -0.2501
 5390SOL     OW16853   3.926   4.556   3.749  0.7539 -0.2208 -0.0822
 5390SOL    HW116854   3.973   4.485   3.792  2.4719  0.1414 -1.2635
 5390SOL    HW216855   3.931   4.629   3.811  1.0351 -0.4421  0.1567
 5391SOL     OW16856   5.280   6.338   6.418  0.5576  0.1061  0.5639
 5391SOL    HW116857   5.219   6.271   6.387  0.0490  0.7226  0.2303
 5391SOL    HW216858   5.250   6.419   6.379  1.4750  0.4600  0.5562
 5392SOL     OW16859   0.422   5.831   4.790  0.5128  0.0138  0.7721
 5392SOL    HW116860   0.465   5.916   4.797  0.7094 -0.1228  1.2775
 5392SOL    HW216861   0.374   5.822   4.873 -0.3276  0.0770  0.3041
 5393SOL     OW16862   5.344   2.305   2.103 -0.1020  0.0912  0.3225
 5393SOL    HW116863   5.257   2.278   2.074 -0.7403  0.6485  1.6281
 5393SOL    HW216864   5.345   2.283   2.196  1.4775 -0.6723  0.1520
 5394SOL     OW16865   4.185   0.151   0.567 -0.1845  0.1440  0.3506
 5394SOL    HW116866   4.111   0.201   0.600 -0.9180  0.2368 -1.2958
 5394SOL    HW216867   4.147   0.066   0.543 -0.1634  0.7082 -1.9488
 5395SOL     OW16868   3.253   1.444   0.011 -0.0802  0.0321 -0.2715
 5395SOL    HW116869   3.225   1.359   0.044 -2.4888  1.2274  1.0393
 5395SOL    HW216870   3.276   1.493   0.090 -0.5491  1.1892 -0.8328
 5396SOL     OW16871   4.372   3.232   4.066 -0.5919  0.1994  0.2003
 5396SOL    HW116872   4.442   3.231   4.000  1.1813  2.3926  1.8974
 5396SOL    HW216873   4.417   3.254   4.148 -3.0523 -0.0817  1.7099
 5397SOL     OW16874   3.799   1.239   5.907  0.5007  0.0708  0.1507
 5397SOL    HW116875   3.812   1.294   5.830  2.9055  0.7646  0.9588
 5397SOL    HW216876   3.776   1.300   5.977  0.9815 -0.2174  0.5660
 5398SOL     OW16877   4.335   3.481   1.417  0.1844  0.1366 -0.3312
 5398SOL    HW116878   4.354   3.389   1.432  0.1624  0.2109  0.1943
 5398SOL    HW216879   4.331   3.490   1.322 -1.3571 -0.7162 -0.3802
 5399SOL     OW16880   3.380   3.193   2.811  0.0840  0.1260 -0.0328
 5399SOL    HW116881   3.323   3.246   2.867 -0.7111 -2.2735  1.5850
 5399SOL    HW216882   3.322   3.125   2.777  1.6632 -1.5846  0.5670
 5400SOL     OW16883   1.057   3.933   5.538 -0.3339 -0.2321  0.2945
 5400SOL    HW116884   0.973   3.936   5.584 -1.5924  1.3560 -1.9143
 5400SOL    HW216885   1.101   3.856   5.573 -2.8168 -1.2886  1.3210
 5401SOL     OW16886   5.882   3.539   0.370  0.1132  0.2317  0.1696
 5401SOL    HW116887   5.912   3.464   0.421 -0.2607  1.1092  1.7593
 5401SOL    HW216888   5.858   3.503   0.285  0.0358 -1.4277  0.8656
 5402SOL     OW16889   1.152   2.676   4.711  0.2651  0.4183 -0.3098
 5402SOL    HW116890   1.202   2.679   4.630 -1.7682  1.8515 -1.6352
 5402SOL    HW216891   1.216   2.691   4.781  1.8948  0.3370 -1.7344
 5403SOL     OW16892   6.481   4.283   3.159  0.3155 -0.1678 -0.3099
 5403SOL    HW116893   6.508   4.322   3.242  0.8055  0.1065 -0.5894
 5403SOL    HW216894   6.465   4.191   3.179 -3.1330  0.5481  0.8674
 5404SOL     OW16895   6.313   0.619   4.403  0.4833 -0.2884 -0.4722
 5404SOL    HW116896   6.382   0.642   4.466  0.7972 -0.1851 -0.8520
 5404SOL    HW216897   6.361   0.595   4.323  0.0178  1.5710 -1.3444
 5405SOL     OW16898   1.418   5.081   2.329 -0.2240  0.5813  0.1740
 5405SOL    HW116899   1.428   5.079   2.425  0.7468 -0.1976  0.0692
 5405SOL    HW216900   1.497   5.038   2.296 -1.2497 -0.5146 -0.9355
 5406SOL     OW16901   5.649   4.791   0.087 -1.0272 -0.2224 -0.0363
 5406SOL    HW116902   5.696   4.855   0.140  0.3319  0.3773 -1.8438
 5406SOL    HW216903   5.576   4.763   0.141  0.6812 -0.2265  2.4329
 5407SOL     OW16904   2.657   5.956   5.958 -0.0982 -0.1718  0.5287
 5407SOL    HW116905   2.579   6.011   5.971  0.0625 -0.2207  1.8411
 5407SOL    HW216906   2.672   5.958   5.864 -1.7600 -0.2544  0.2292
 5408SOL     OW16907   0.291   3.913   2.441 -0.3537 -0.1994 -0.3910
 5408SOL    HW116908   0.301   3.830   2.395 -1.2009  0.3636 -1.6759
 5408SOL    HW216909   0.199   3.937   2.426 -0.2937  0.6453  0.5100
 5409SOL     OW16910   5.202   2.679   0.649  0.0486 -0.0482 -0.0219
 5409SOL    HW116911   5.182   2.706   0.559 -1.1402  0.1551  0.2920
 5409SOL    HW216912   5.118   2.652   0.685  0.2534  1.2288  1.4980
 5410SOL     OW16913   5.368   0.862   5.662 -0.6321  0.1735 -0.2485
 5410SOL    HW116914   5.318   0.943   5.648 -0.7617  0.6861  2.5266
 5410SOL    HW216915   5.418   0.879   5.742  1.1030 -1.7091 -0.8614
 5411SOL     OW16916   3.762   1.127   1.544 -0.5662 -0.3199 -0.1962
 5411SOL    HW116917   3.801   1.116   1.457 -0.3129 -2.1329  0.1199
 5411SOL    HW216918   3.672   1.156   1.526  0.1774  1.6804 -0.9766
 5412SOL     OW16919   5.537   0.509   0.153 -0.2332  0.0731  0.0590
 5412SOL    HW116920   5.448   0.473   0.153  0.5221 -1.9661 -1.2124
 5412SOL    HW216921   5.543   0.557   0.071  0.1751 -0.7883 -0.4309
 5413SOL     OW16922   1.666   5.913   5.412  0.0215 -0.4588  0.1631
 5413SOL    HW116923   1.664   5.971   5.488 -0.2580 -2.0561  1.4264
 5413SOL    HW216924   1.758   5.894   5.398  0.1688  0.7944 -0.6844
 5414SOL     OW16925   0.820   2.669   1.847 -0.7347 -0.0015  0.1187
 5414SOL    HW116926   0.853   2.649   1.759  0.7211  0.7450  0.4701
 5414SOL    HW216927   0.888   2.723   1.887 -1.7599  0.3919  1.4131
 5415SOL     OW16928   6.056   3.640   5.446 -0.3786  0.2301  0.3668
 5415SOL    HW116929   5.995   3.647   5.519 -0.8132  0.8288 -0.0413
 5415SOL    HW216930   6.041   3.720   5.395  0.5685  0.2573  0.1232
 5416SOL     OW16931   1.749   0.770   3.284  0.1000 -0.3652  0.6961
 5416SOL    HW116932   1.839   0.743   3.305  0.3832 -0.3004 -0.4097
 5416SOL    HW216933   1.712   0.695   3.237 -0.3583 -0.2982  0.9399
 5417SOL     OW16934   4.494   4.423   4.315  0.1952 -0.7359  0.4518
 5417SOL    HW116935   4.539   4.508   4.317  1.5436 -1.3167 -1.7423
 5417SOL    HW216936   4.425   4.431   4.381 -0.3676  2.4011 -0.3547
 5418SOL     OW16937   0.589   2.208   4.758  0.3541 -0.5241  0.4479
 5418SOL    HW116938   0.499   2.198   4.789  0.0977  1.1070  0.3285
 5418SOL    HW216939   0.635   2.251   4.830  0.5802  0.2621 -0.1508
 5419SOL     OW16940   0.461   5.523   2.373 -0.2546  0.1845  0.4654
 5419SOL    HW116941   0.369   5.506   2.392 -0.2644 -1.0540 -0.5149
 5419SOL    HW216942   0.462   5.543   2.279  0.3090  1.6919  0.7642
 5420SOL     OW16943   5.032   6.028   1.054 -0.1587  0.1077  0.2471
 5420SOL    HW116944   5.010   6.121   1.056 -0.9048  0.0314 -2.1605
 5420SOL    HW216945   5.026   6.000   1.146 -0.2580  2.3263  0.9675
 5421SOL     OW16946   6.485   5.213   4.841  0.4710  0.1663 -0.0175
 5421SOL    HW116947   6.539   5.141   4.810  1.3716  1.1864 -0.9049
 5421SOL    HW216948   6.542   5.290   4.836  0.1017  0.6954  2.4937
 5422SOL     OW16949   4.479   3.159   5.300  0.1468 -0.0372  0.0649
 5422SOL    HW116950   4.410   3.180   5.237 -0.8496 -0.5591  0.9299
 5422SOL    HW216951   4.523   3.243   5.315 -0.8433  0.5055  0.0955
 5423SOL     OW16952   4.902   2.503   1.185 -0.0740  0.3562  0.2315
 5423SOL    HW116953   4.924   2.424   1.135 -1.0113  0.1256  0.1599
 5423SOL    HW216954   4.885   2.569   1.118  1.8443  0.9743  0.2963
 5424SOL     OW16955   6.273   4.454   5.224 -0.3082  0.1587 -0.0916
 5424SOL    HW116956   6.307   4.510   5.294  1.5854 -0.5305 -0.3794
 5424SOL    HW216957   6.269   4.367   5.264 -0.7233  0.0415 -0.3886
 5425SOL     OW16958   3.590   3.056   5.324 -0.1619  0.0037  0.2790
 5425SOL    HW116959   3.588   3.152   5.321  1.2014  0.0333 -0.6427
 5425SOL    HW216960   3.544   3.030   5.244 -0.0151 -0.0971  0.2278
 5426SOL     OW16961   0.526   1.958   0.447  0.0607 -0.2799 -0.0079
 5426SOL    HW116962   0.600   1.899   0.459 -0.9812 -1.8120 -0.7622
 5426SOL    HW216963   0.534   1.988   0.356 -0.2351 -0.4232 -0.0801
 5427SOL     OW16964   1.373   0.031   3.781  0.3366 -0.3813 -0.5727
 5427SOL    HW116965   1.371  -0.056   3.742  0.8376 -0.5945 -0.1332
 5427SOL    HW216966   1.307   0.081   3.732  1.3849 -0.4528 -2.1321
 5428SOL     OW16967   3.695   2.070   2.884 -0.2849 -0.2771 -0.4401
 5428SOL    HW116968   3.700   2.059   2.789 -0.1515 -1.2158 -0.3351
 5428SOL    HW216969   3.652   2.154   2.896 -0.2714 -0.1299 -1.3329
 5429SOL     OW16970   5.565   5.845   5.737 -0.0468 -0.3730 -0.0199
 5429SOL    HW116971   5.568   5.792   5.817  2.7167  1.0745  0.9394
 5429SOL    HW216972   5.656   5.851   5.708 -0.3485  3.0727 -0.5837
 5430SOL     OW16973   2.701   6.356   3.182 -0.0927 -1.0944  0.2731
 5430SOL    HW116974   2.732   6.339   3.093 -0.6733 -0.7297 -0.0090
 5430SOL    HW216975   2.766   6.415   3.220  0.7054 -2.0622  0.4558
 5431SOL     OW16976   1.069   0.434   1.446  0.2844  0.5754 -0.1785
 5431SOL    HW116977   1.066   0.517   1.494  0.2604  0.9674 -0.8347
 5431SOL    HW216978   1.137   0.448   1.380  0.0611  0.1847 -0.4963
 5432SOL     OW16979   1.844   5.172   1.132 -0.0797 -0.3284 -0.3466
 5432SOL    HW116980   1.879   5.109   1.070 -1.1234 -1.4548  0.1711
 5432SOL    HW216981   1.749   5.160   1.129 -0.3267  1.3587 -0.3669
 5433SOL     OW16982   2.449   0.405   1.560 -0.2820 -0.0768 -0.0569
 5433SOL    HW116983   2.486   0.326   1.521  0.2372 -0.2032  0.6762
 5433SOL    HW216984   2.519   0.470   1.551 -0.2625 -0.0315  0.4017
 5434SOL     OW16985   2.365   4.207   2.664 -0.5024 -0.1317  0.3830
 5434SOL    HW116986   2.430   4.204   2.734  0.1005  3.2160  0.1402
 5434SOL    HW216987   2.409   4.253   2.592 -2.7014  1.2027 -0.2159
 5435SOL     OW16988   3.119   4.068   6.227  0.4350  0.8109 -0.1730
 5435SOL    HW116989   3.024   4.083   6.221  0.2668 -0.4738 -1.1822
 5435SOL    HW216990   3.129   3.974   6.210  1.9610  1.0936 -0.9600
 5436SOL     OW16991   1.478   3.005   4.388 -0.0991 -0.1036  0.5351
 5436SOL    HW116992   1.473   2.915   4.357 -0.1997  0.1610 -0.2595
 5436SOL    HW216993   1.390   3.025   4.417 -0.4819  0.2305 -0.7758
 5437SOL     OW16994   4.725   3.108   3.439  0.3591  0.3374  0.8005
 5437SOL    HW116995   4.668   3.163   3.385  1.2870  0.9406  0.4100
 5437SOL    HW216996   4.803   3.161   3.454  0.8675 -0.5051  1.2446
 5438SOL     OW16997   3.003   5.028   6.111  0.2202 -0.3135 -0.0587
 5438SOL    HW116998   3.025   5.117   6.139 -0.1261  0.4262 -1.9516
 5438SOL    HW216999   2.929   5.003   6.166  0.0561  0.7495  0.2239
 5439SOL     OW17000   3.391   6.014   4.708  0.3584 -0.0811  0.1907
 5439SOL    HW117001   3.434   6.041   4.789 -0.9252  0.1803  0.8096
 5439SOL    HW217002   3.370   6.096   4.664  0.3076 -0.1978 -0.0012
 5440SOL     OW17003   3.048   0.917   3.543 -0.0263  0.3261 -0.6695
 5440SOL    HW117004   2.954   0.925   3.563  0.1412  0.7056 -0.0015
 5440SOL    HW217005   3.087   0.995   3.582  0.6067  0.0392 -0.7213
 5441SOL     OW17006   2.156   4.281   1.435 -0.1477 -0.4423  0.3897
 5441SOL    HW117007   2.216   4.337   1.386  1.2243 -2.9307 -0.9691
 5441SOL    HW217008   2.069   4.316   1.416  0.4918 -0.0435 -2.1652
 5442SOL     OW17009   3.628   2.421   0.481 -0.0913  0.0535 -0.5510
 5442SOL    HW117010   3.709   2.448   0.439 -0.2286  0.9235 -0.2641
 5442SOL    HW217011   3.641   2.328   0.500  1.0488  0.2966 -0.0339
 5443SOL     OW17012   4.592   1.013   3.945  0.0641  0.1450 -0.0955
 5443SOL    HW117013   4.654   1.086   3.944 -0.6392  0.7723 -1.4441
 5443SOL    HW217014   4.525   1.038   3.881 -1.6667 -0.4380  1.4220
 5444SOL     OW17015   2.703   2.204   4.205  0.2985 -0.3877  0.7855
 5444SOL    HW117016   2.700   2.298   4.222  0.2962 -0.2885  0.2488
 5444SOL    HW217017   2.633   2.168   4.260 -0.5704  0.0828  0.0236
 5445SOL     OW17018   2.425   4.363   1.890 -0.0314 -0.0500 -0.1454
 5445SOL    HW117019   2.371   4.411   1.953  1.1871 -0.7864  1.5253
 5445SOL    HW217020   2.515   4.373   1.921  0.5115 -1.3051 -1.1824
 5446SOL     OW17021   1.681   3.159   4.515 -0.1573 -0.2193  0.7748
 5446SOL    HW117022   1.612   3.178   4.579 -0.9583  0.1536 -0.1826
 5446SOL    HW217023   1.635   3.134   4.436  0.6861  2.1799 -0.5890
 5447SOL     OW17024   4.695   6.230   4.650 -0.0050  0.0965 -0.2284
 5447SOL    HW117025   4.668   6.228   4.742 -0.8966 -0.1961 -0.4926
 5447SOL    HW217026   4.740   6.147   4.636 -0.2942 -0.0656 -0.1879
 5448SOL     OW17027   1.142   4.924   5.968  0.1874  0.0679  0.0035
 5448SOL    HW117028   1.237   4.936   5.961 -0.1614  2.4640 -2.9117
 5448SOL    HW217029   1.110   4.930   5.878 -2.7416 -1.1942  0.8170
 5449SOL     OW17030   0.224   2.573   2.280 -0.2799  0.0722 -0.1388
 5449SOL    HW117031   0.254   2.620   2.203 -0.1149  0.4529  0.1550
 5449SOL    HW217032   0.163   2.633   2.323 -0.0535  0.0324  0.2476
 5450SOL     OW17033   4.206   3.901   5.436  0.2287  0.3964  0.3796
 5450SOL    HW117034   4.184   3.875   5.526 -0.1590 -0.0222  0.1689
 5450SOL    HW217035   4.151   3.845   5.381  0.9117  0.2099 -0.1340
 5451SOL     OW17036   6.462   0.136   0.959 -0.3842 -0.0461  0.6579
 5451SOL    HW117037   6.383   0.183   0.984 -1.3792 -1.5874  0.5856
 5451SOL    HW217038   6.534   0.189   0.993 -1.4873  0.9039  1.5836
 5452SOL     OW17039   4.469   5.390   3.450 -0.3268 -0.3441  0.2131
 5452SOL    HW117040   4.462   5.412   3.357 -0.1363  0.7382  0.4458
 5452SOL    HW217041   4.529   5.316   3.453 -2.0264 -1.8299 -0.7114
 5453SOL     OW17042   4.053   4.928   0.723  0.2629 -0.1450 -0.0005
 5453SOL    HW117043   3.959   4.921   0.741  0.8280 -2.3295  2.6691
 5453SOL    HW217044   4.078   5.014   0.755 -0.6970  0.1516 -0.0269
 5454SOL     OW17045   4.649   3.858   1.253 -0.5827 -0.2401 -0.5240
 5454SOL    HW117046   4.679   3.768   1.267  1.2771  0.5983  1.4957
 5454SOL    HW217047   4.703   3.910   1.312 -1.2902  2.2766 -1.9643
 5455SOL     OW17048   0.998   4.369   6.084 -0.1461  0.1033  0.0033
 5455SOL    HW117049   0.948   4.439   6.126  0.4167  1.5357 -1.5983
 5455SOL    HW217050   0.978   4.378   5.991  0.8900 -1.1016 -0.3560
 5456SOL     OW17051   1.583   2.865   0.405  0.1842 -0.2137  0.3870
 5456SOL    HW117052   1.654   2.923   0.432  0.8724 -1.3666  1.1178
 5456SOL    HW217053   1.510   2.925   0.386  0.7166  0.8711  1.5720
 5457SOL     OW17054   2.748   2.804   5.842  0.2963  0.0020  0.1369
 5457SOL    HW117055   2.656   2.825   5.824  0.4676  2.1424  1.4215
 5457SOL    HW217056   2.780   2.765   5.760 -1.0436  1.7515 -1.3021
 5458SOL     OW17057   6.010   2.409   0.750 -0.4066  0.3770 -0.1744
 5458SOL    HW117058   6.001   2.350   0.825  0.1760 -0.4056 -0.7055
 5458SOL    HW217059   5.931   2.462   0.752 -0.2287  0.6252  1.2120
 5459SOL     OW17060   2.029   2.983   5.179 -0.0900 -0.2101  0.1811
 5459SOL    HW117061   1.948   2.978   5.231 -0.6108 -0.6522 -0.6443
 5459SOL    HW217062   2.073   3.061   5.211  0.5846 -1.5040  2.6587
 5460SOL     OW17063   1.155   6.467   1.457 -0.3644 -0.1710 -0.2665
 5460SOL    HW117064   1.250   6.466   1.441 -0.2033 -0.1735  0.6561
 5460SOL    HW217065   1.120   6.525   1.389  0.5279  1.3719  0.5336
 5461SOL     OW17066   0.719   5.391   1.821  0.5290  1.0927 -0.0772
 5461SOL    HW117067   0.773   5.363   1.747  0.2395 -2.0828  0.7866
 5461SOL    HW217068   0.776   5.385   1.897 -0.1424  0.8852  0.4211
 5462SOL     OW17069   1.725   3.673   5.722 -0.3710 -0.0481 -0.4400
 5462SOL    HW117070   1.819   3.675   5.703 -0.4289 -1.0090 -0.8796
 5462SOL    HW217071   1.694   3.761   5.699  0.4845  0.4163  0.1123
 5463SOL     OW17072   2.750   5.628   5.006  0.1505  0.6481 -0.6527
 5463SOL    HW117073   2.739   5.551   4.949 -0.5386  1.5905 -1.8464
 5463SOL    HW217074   2.828   5.672   4.971  1.6159 -0.3802  1.1255
 5464SOL     OW17075   2.941   1.634   2.800 -0.8181 -0.2046 -0.0686
 5464SOL    HW117076   2.954   1.550   2.758 -0.8213 -0.0760 -0.3269
 5464SOL    HW217077   3.011   1.639   2.866  1.0425  0.8197 -1.9891
 5465SOL     OW17078   5.348   0.652   5.501 -0.1870  0.4082 -0.0033
 5465SOL    HW117079   5.257   0.641   5.529  0.2276 -0.1232  1.2269
 5465SOL    HW217080   5.378   0.730   5.548  0.7330 -0.9062  1.7232
 5466SOL     OW17081   2.909   3.604   3.793  0.1084  0.2708  0.4518
 5466SOL    HW117082   2.976   3.634   3.854  0.1950  0.0358  0.4749
 5466SOL    HW217083   2.922   3.657   3.714  0.1234  0.4380  0.5666
 5467SOL     OW17084   6.180   2.748   1.229  0.1503  0.2326 -0.3774
 5467SOL    HW117085   6.203   2.796   1.309  0.6003 -0.0216 -0.3480
 5467SOL    HW217086   6.157   2.816   1.166  0.5293  0.4788 -0.2571
 5468SOL     OW17087   1.465   5.194   3.594  0.5694 -0.8598  0.5133
 5468SOL    HW117088   1.561   5.203   3.598  0.3885  1.0876  2.0409
 5468SOL    HW217089   1.447   5.113   3.641  1.4746 -1.3282  0.0820
 5469SOL     OW17090   4.796   6.304   3.290 -0.3454  0.1702  0.1717
 5469SOL    HW117091   4.850   6.241   3.339 -1.0757  0.1955  1.0385
 5469SOL    HW217092   4.708   6.291   3.325 -0.6047  1.2721 -0.0574
 5470SOL     OW17093   0.656   6.151   1.270 -0.3317  0.0261  0.0197
 5470SOL    HW117094   0.746   6.125   1.285 -0.2958  0.3658  0.4190
 5470SOL    HW217095   0.604   6.080   1.309 -0.2484 -0.5825 -0.9468
 5471SOL     OW17096   3.033   6.328   2.387  0.3966 -0.4875 -0.0525
 5471SOL    HW117097   3.069   6.289   2.307  2.7273  3.0406 -0.9372
 5471SOL    HW217098   2.968   6.264   2.417  1.1290 -3.1042 -3.3726
 5472SOL     OW17099   4.082   1.840   0.829  0.0927  0.1878  0.0521
 5472SOL    HW117100   3.996   1.821   0.793 -0.4223 -4.6050  2.8714
 5472SOL    HW217101   4.144   1.802   0.767 -0.1345 -0.1062  0.0068
 5473SOL     OW17102   2.501   5.286   3.793  0.0090 -0.0556 -0.4369
 5473SOL    HW117103   2.468   5.204   3.830  0.7931 -0.5270 -0.7823
 5473SOL    HW217104   2.485   5.351   3.862  0.7191 -0.7736  0.4145
 5474SOL     OW17105   0.519   4.134   0.946 -0.2157  0.8110  0.0920
 5474SOL    HW117106   0.466   4.054   0.943 -0.9392  1.1659  1.7996
 5474SOL    HW217107   0.535   4.148   1.040 -0.1577  2.6915 -0.1618
 5475SOL     OW17108   5.875   2.846   0.083  0.1715 -0.6977 -0.1920
 5475SOL    HW117109   5.850   2.934   0.112 -0.8321 -2.0679  3.6440
 5475SOL    HW217110   5.801   2.816   0.031 -0.1234  0.1588 -0.2904
 5476SOL     OW17111   4.519   5.040   1.819  0.1151 -0.1625  0.1008
 5476SOL    HW117112   4.508   5.116   1.762  1.6468  0.0737  0.0809
 5476SOL    HW217113   4.543   5.077   1.904 -0.0149 -0.5932  0.3288
 5477SOL     OW17114   4.441   4.872   5.280  0.5902  0.1760  0.5796
 5477SOL    HW117115   4.444   4.932   5.354  1.8173  1.3969 -0.4055
 5477SOL    HW217116   4.379   4.912   5.219  1.8771  0.8273 -0.3507
 5478SOL     OW17117   4.171   5.876   1.631 -0.2530  0.4307  0.0506
 5478SOL    HW117118   4.166   5.942   1.700  1.0943  0.9161 -0.2676
 5478SOL    HW217119   4.127   5.916   1.556  0.1912  0.8209 -0.0117
 5479SOL     OW17120   6.445   1.355   1.457  0.3021  0.1557 -0.1625
 5479SOL    HW117121   6.537   1.330   1.454 -0.0152 -1.1497  0.1296
 5479SOL    HW217122   6.445   1.448   1.479  1.5741  0.4740 -1.3802
 5480SOL     OW17123   4.064   4.336   1.892  0.0901  0.1957  0.4009
 5480SOL    HW117124   4.076   4.299   1.804 -1.6172  0.9483 -0.1844
 5480SOL    HW217125   4.019   4.267   1.941  2.8207 -1.0410  1.3831
 5481SOL     OW17126   6.376   4.752   5.793 -0.2539  0.3183  0.4212
 5481SOL    HW117127   6.342   4.735   5.881  1.4164  1.0162  1.2442
 5481SOL    HW217128   6.384   4.847   5.789 -2.5507  0.5227 -1.4075
 5482SOL     OW17129   1.063   1.271   0.291  0.2560 -0.2106 -0.4056
 5482SOL    HW117130   1.052   1.300   0.382  1.3534  1.4550 -0.7634
 5482SOL    HW217131   1.119   1.193   0.298  2.1100  1.1129  0.2559
 5483SOL     OW17132   3.412   3.455   6.250 -0.4665 -0.8067 -0.4071
 5483SOL    HW117133   3.366   3.377   6.219  0.0701 -0.6540 -1.6313
 5483SOL    HW217134   3.416   3.513   6.174  3.1986 -1.4880 -0.9646
 5484SOL     OW17135   1.660   3.693   0.610 -0.5602 -0.6859  0.0936
 5484SOL    HW117136   1.691   3.691   0.701 -0.3390 -1.6619  0.0064
 5484SOL    HW217137   1.583   3.636   0.610 -1.2399  0.2170 -0.0959
 5485SOL     OW17138   2.164   6.297   1.540  0.5606  0.5394  0.2909
 5485SOL    HW117139   2.200   6.311   1.453  0.4854  1.0965  0.3472
 5485SOL    HW217140   2.121   6.211   1.535  0.8323  0.4277 -0.1251
 5486SOL     OW17141   5.277   5.941   0.634 -0.2008  0.2436  0.1199
 5486SOL    HW117142   5.350   5.899   0.681  0.1432  1.5781  0.8177
 5486SOL    HW217143   5.311   5.956   0.546  0.5623  1.3212  0.5869
 5487SOL     OW17144   3.834   1.226   2.059  0.4718  0.0055 -0.2077
 5487SOL    HW117145   3.753   1.187   2.094 -0.0733  1.3216  0.0746
 5487SOL    HW217146   3.844   1.187   1.973 -0.9119  0.3729 -0.5744
 5488SOL     OW17147   0.905   6.442   1.207  0.4533 -0.0159  0.7009
 5488SOL    HW117148   0.965   6.512   1.231  1.8363 -1.1985  0.7994
 5488SOL    HW217149   0.830   6.487   1.168  1.6422  1.4732  0.0444
 5489SOL     OW17150   4.600   2.802   0.729  0.8495  0.1164  0.1730
 5489SOL    HW117151   4.681   2.853   0.736  0.9663  0.1529 -1.1584
 5489SOL    HW217152   4.605   2.740   0.802  1.8573  0.4056  0.3791
 5490SOL     OW17153   0.708   5.369   5.620 -0.0988 -0.5862  0.1950
 5490SOL    HW117154   0.614   5.390   5.619 -0.8261 -3.3778 -0.4616
 5490SOL    HW217155   0.735   5.384   5.710 -0.8379  1.4486  0.1218
 5491SOL     OW17156   5.246   1.318   6.358 -0.0511 -0.0954 -0.3470
 5491SOL    HW117157   5.272   1.315   6.266 -0.8561  1.5467 -0.6557
 5491SOL    HW217158   5.182   1.248   6.367  0.1792 -0.4001 -0.9825
 5492SOL     OW17159   4.344   6.112   5.370  0.2440 -0.0875 -0.1313
 5492SOL    HW117160   4.412   6.055   5.407  0.5288 -1.5658 -2.6915
 5492SOL    HW217161   4.361   6.111   5.276 -2.3663  0.8280 -0.6833
 5493SOL     OW17162   3.289   3.804   2.376 -0.3641 -0.4034 -0.3844
 5493SOL    HW117163   3.273   3.748   2.452 -0.6057  1.4171  0.9571
 5493SOL    HW217164   3.349   3.871   2.407  1.6199 -1.0478 -2.5221
 5494SOL     OW17165   2.015   5.155   3.848 -0.1426 -0.4906 -0.1451
 5494SOL    HW117166   2.052   5.073   3.815  2.3425  0.6482 -0.4203
 5494SOL    HW217167   2.043   5.221   3.784  1.9858  1.2746  2.3924
 5495SOL     OW17168   1.954   0.433   2.558 -0.1992 -0.2836  0.6689
 5495SOL    HW117169   2.049   0.435   2.564 -0.0707 -1.6819 -0.5603
 5495SOL    HW217170   1.932   0.505   2.498  0.2607 -1.3013 -0.7486
 5496SOL     OW17171   5.479   1.398   5.451 -0.2314  0.1171 -0.3592
 5496SOL    HW117172   5.509   1.489   5.443 -1.2704  0.6907  1.6721
 5496SOL    HW217173   5.384   1.404   5.438 -0.3016 -0.6975 -0.2340
 5497SOL     OW17174   1.805   5.482   4.052 -0.3614 -0.5251  0.1983
 5497SOL    HW117175   1.781   5.485   4.144 -0.0781  3.1086  0.2808
 5497SOL    HW217176   1.789   5.391   4.026 -3.5198 -0.9331  2.9706
 5498SOL     OW17177   1.015   2.220   3.692 -0.4925  0.4995  0.2220
 5498SOL    HW117178   1.000   2.306   3.732 -4.2527 -0.6321  1.6409
 5498SOL    HW217179   1.099   2.192   3.728 -0.4783  2.4296  1.9169
 5499SOL     OW17180   1.591   1.261   1.829 -0.2220  0.1580 -0.3657
 5499SOL    HW117181   1.496   1.253   1.821 -0.1800 -0.5561 -0.2663
 5499SOL    HW217182   1.622   1.274   1.740 -0.2906 -1.2539 -0.6236
 5500SOL     OW17183   1.618   0.203   3.820 -0.5397  0.3338  0.1927
 5500SOL    HW117184   1.650   0.257   3.747  1.9468  0.1385  1.0393
 5500SOL    HW217185   1.543   0.157   3.785  0.7133  0.0700 -2.3631
 5501SOL     OW17186   0.646   4.588   5.678 -0.6422  0.1584 -0.0008
 5501SOL    HW117187   0.674   4.500   5.652  1.6652  1.0518 -0.8716
 5501SOL    HW217188   0.641   4.584   5.774  0.9872 -0.5543  0.0981
 5502SOL     OW17189   0.824   4.441   1.753  0.2230  0.3278 -0.6334
 5502SOL    HW117190   0.729   4.445   1.748  0.2024  0.2137 -0.3740
 5502SOL    HW217191   0.854   4.527   1.724 -0.0454  1.0383  1.0536
 5503SOL     OW17192   6.183   6.236   1.666  0.0121  0.2658 -0.2300
 5503SOL    HW117193   6.263   6.284   1.644  0.0246 -0.3825 -1.7090
 5503SOL    HW217194   6.195   6.209   1.757  2.4217 -1.5560 -0.9819
 5504SOL     OW17195   4.196   2.003   0.472  0.1453  0.3634 -0.5622
 5504SOL    HW117196   4.254   2.074   0.503 -1.6228  1.2501  0.8941
 5504SOL    HW217197   4.249   1.924   0.483  1.6644  1.2803 -0.8510
 5505SOL     OW17198   1.186   5.444   3.842 -0.4296  0.1698  0.1779
 5505SOL    HW117199   1.122   5.419   3.909  1.0458 -1.0902  1.1993
 5505SOL    HW217200   1.265   5.394   3.865 -0.1003 -0.9846 -2.9738
 5506SOL     OW17201   0.791   0.648   4.776  0.2364 -0.1211 -0.4835
 5506SOL    HW117202   0.829   0.586   4.713 -0.1823 -0.0039 -0.8577
 5506SOL    HW217203   0.860   0.713   4.791  0.1059  0.2346 -1.3547
 5507SOL     OW17204   4.405   4.567   6.496  0.1168 -0.2508  0.8304
 5507SOL    HW117205   4.366   4.631   6.556 -0.1255  0.8398 -0.4636
 5507SOL    HW217206   4.494   4.599   6.482  0.1739 -0.5127  0.5933
 5508SOL     OW17207   2.076   2.262   6.492 -0.6489 -0.1606  0.4685
 5508SOL    HW117208   2.151   2.204   6.485 -0.3437  0.2635  0.2221
 5508SOL    HW217209   2.040   2.265   6.403 -1.1591 -0.6234  0.6506
 5509SOL     OW17210   4.955   4.172   3.678  0.6765 -0.1204  0.0840
 5509SOL    HW117211   4.903   4.199   3.602 -1.1932 -0.4454  1.1713
 5509SOL    HW217212   5.005   4.250   3.702 -1.8420  1.3536  0.9574
 5510SOL     OW17213   5.032   6.172   3.421 -0.1984  0.0024  0.4880
 5510SOL    HW117214   5.035   6.139   3.511  1.9268  1.0389  0.8568
 5510SOL    HW217215   5.037   6.267   3.429  0.6969  0.0885 -0.7188
 5511SOL     OW17216   2.910   6.472   4.139 -0.1514  0.1232  0.2839
 5511SOL    HW117217   2.820   6.444   4.154 -0.3839  1.0560  0.7061
 5511SOL    HW217218   2.915   6.559   4.178  0.8633  0.1925  0.0332
 5512SOL     OW17219   1.999   0.307   2.855  0.1699 -0.2748 -0.0843
 5512SOL    HW117220   2.002   0.340   2.765  0.7724  0.2619  0.1276
 5512SOL    HW217221   1.905   0.304   2.875  0.0670  1.0112 -0.2339
 5513SOL     OW17222   0.816   1.155   1.378  0.2106 -0.0826 -0.0744
 5513SOL    HW117223   0.850   1.231   1.425  1.4473  0.1081 -1.2176
 5513SOL    HW217224   0.788   1.094   1.447  0.9450  0.6421  0.8779
 5514SOL     OW17225   2.122   2.878   5.938 -0.4144  0.0339 -0.1547
 5514SOL    HW117226   2.084   2.819   6.003 -1.2012 -0.8523 -1.3797
 5514SOL    HW217227   2.079   2.855   5.856 -1.4150  2.9464 -0.5540
 5515SOL     OW17228   0.171   5.555   1.456 -0.0035  0.4370  0.3574
 5515SOL    HW117229   0.235   5.613   1.414  1.0371 -1.0331 -0.1452
 5515SOL    HW217230   0.204   5.544   1.545  0.0022  0.3207  0.3408
 5516SOL     OW17231   3.067   1.977   6.057 -0.1069  0.1127  0.0809
 5516SOL    HW117232   3.116   2.050   6.020 -0.3229  0.8078  1.1265
 5516SOL    HW217233   3.066   1.912   5.988 -2.5097  2.2317 -2.0609
 5517SOL     OW17234   0.001   6.311   3.024 -0.4929  0.0225 -0.7084
 5517SOL    HW117235   0.016   6.326   3.117  0.4931  0.7959 -0.9788
 5517SOL    HW217236   0.000   6.399   2.986 -1.6266 -0.2346 -1.3382
 5518SOL     OW17237   2.719   6.261   4.160  0.0141  0.1149 -0.2852
 5518SOL    HW117238   2.729   6.183   4.215 -2.3684  0.2978  0.5057
 5518SOL    HW217239   2.708   6.227   4.071  1.2598 -0.3100 -0.2952
 5519SOL     OW17240   5.129   1.874   2.418  0.8386  0.1636 -0.3941
 5519SOL    HW117241   5.136   1.779   2.405  0.1736  0.2550 -1.6597
 5519SOL    HW217242   5.035   1.892   2.407  0.6967  0.7693  1.4920
 5520SOL     OW17243   3.933   1.872   0.381 -0.3962  0.2745  0.2520
 5520SOL    HW117244   4.021   1.908   0.392 -0.7783  0.9513  1.2563
 5520SOL    HW217245   3.919   1.870   0.287  1.1430 -0.9880  0.0062
 5521SOL     OW17246   3.798   4.193   4.781  0.1421 -0.2958  0.5956
 5521SOL    HW117247   3.703   4.184   4.793 -0.6245  1.9356 -2.5137
 5521SOL    HW217248   3.827   4.106   4.753 -1.6942 -0.2524 -1.7445
 5522SOL     OW17249   5.087   2.743   0.046  0.3493 -0.2243  0.0435
 5522SOL    HW117250   5.077   2.836   0.027  1.2914 -0.2660 -0.7407
 5522SOL    HW217251   5.163   2.738   0.103  0.7584 -0.5674 -0.5214
 5523SOL     OW17252   3.592   2.233   6.024 -0.1898  0.1916  0.4482
 5523SOL    HW117253   3.581   2.249   5.930 -0.0292 -0.0705  0.3856
 5523SOL    HW217254   3.598   2.138   6.032  1.7844  0.2767  0.5008
 5524SOL     OW17255   1.887   1.999   3.449 -0.0450 -0.0074  0.2595
 5524SOL    HW117256   1.881   2.049   3.368  0.6919 -1.1031 -0.4957
 5524SOL    HW217257   1.799   2.004   3.487 -0.3699  0.6202 -0.5494
 5525SOL     OW17258   3.794   5.529   4.966  0.2573 -0.3619 -0.3633
 5525SOL    HW117259   3.751   5.445   4.977 -0.3421 -0.3108 -2.0641
 5525SOL    HW217260   3.833   5.525   4.879  1.6149  0.5241  0.1632
 5526SOL     OW17261   0.833   2.158   2.618 -0.0850  0.7302 -0.0679
 5526SOL    HW117262   0.808   2.235   2.568 -1.2603  2.0267  2.3199
 5526SOL    HW217263   0.900   2.190   2.679  0.3610 -0.4395  0.0729
 5527SOL     OW17264   5.067   1.481   3.389 -0.2777  0.7575  0.0511
 5527SOL    HW117265   5.148   1.531   3.398  0.2138  0.0751 -0.5505
 5527SOL    HW217266   5.055   1.471   3.295  1.0218 -2.4578  0.1137
 5528SOL     OW17267   3.917   1.615   1.845  0.4174  0.7735  0.6222
 5528SOL    HW117268   3.903   1.692   1.789  0.8072  0.3632 -0.0468
 5528SOL    HW217269   3.848   1.554   1.818  0.6460  0.5501  0.5411
 5529SOL     OW17270   0.939   2.258   3.132  0.2429  0.2387 -0.9400
 5529SOL    HW117271   0.963   2.214   3.050  1.2410 -1.2285  0.0832
 5529SOL    HW217272   0.986   2.209   3.199 -0.0340  1.8226  0.4593
 5530SOL     OW17273   4.695   4.292   3.520  0.3975  0.1251  0.1927
 5530SOL    HW117274   4.615   4.243   3.505  0.3168  0.1638  0.4846
 5530SOL    HW217275   4.668   4.384   3.522  0.4365  0.1332  0.3714
 5531SOL     OW17276   0.826   0.824   2.863  0.0165  0.0791  0.9312
 5531SOL    HW117277   0.826   0.751   2.801 -3.1640  0.6930  0.0541
 5531SOL    HW217278   0.805   0.901   2.810  1.0461  1.2900  2.2053
 5532SOL     OW17279   4.674   5.048   0.777 -0.1270 -0.0556 -0.5390
 5532SOL    HW117280   4.699   5.140   0.771  0.8545 -0.2654  0.0707
 5532SOL    HW217281   4.699   5.022   0.866  1.0518 -1.2991 -1.1791
 5533SOL     OW17282   0.523   2.745   0.891  0.1632  0.1580 -0.4160
 5533SOL    HW117283   0.586   2.681   0.859  1.9557  1.3666  0.5380
 5533SOL    HW217284   0.527   2.737   0.987  0.4664  1.7148 -0.2753
 5534SOL     OW17285   3.676   5.057   1.639 -0.3888 -0.2028 -0.1303
 5534SOL    HW117286   3.770   5.076   1.642 -0.0572 -1.8027  1.8277
 5534SOL    HW217287   3.641   5.096   1.719 -0.6683 -2.7578  1.0766
 5535SOL     OW17288   0.190   1.007   4.815  0.1361 -0.1725 -0.2069
 5535SOL    HW117289   0.231   1.091   4.833 -1.2764  0.2856  1.0406
 5535SOL    HW217290   0.096   1.023   4.822 -0.1684 -1.8687  0.1686
 5536SOL     OW17291   5.530   2.534   1.210  0.0124  0.5752 -0.7249
 5536SOL    HW117292   5.514   2.445   1.179  0.6100  0.2885 -0.2219
 5536SOL    HW217293   5.456   2.553   1.267  2.1762 -1.4527  3.1552
 5537SOL     OW17294   3.203   4.249   1.648 -0.1374  0.2579  0.1408
 5537SOL    HW117295   3.126   4.198   1.671 -0.7349  1.0958  0.0499
 5537SOL    HW217296   3.210   4.240   1.553 -0.0610  0.0847  0.1640
 5538SOL     OW17297   6.500   3.070   1.058  0.2881  0.6009 -0.0107
 5538SOL    HW117298   6.514   2.977   1.041 -0.0189  0.5747 -0.1147
 5538SOL    HW217299   6.586   3.102   1.086  0.0197 -0.0694  1.6549
 5539SOL     OW17300   5.918   6.058   5.252 -0.2445 -0.4909 -0.5004
 5539SOL    HW117301   5.934   6.141   5.297  0.4992 -0.0404 -1.5400
 5539SOL    HW217302   5.856   6.079   5.183  0.2343 -0.7176 -1.0074
 5540SOL     OW17303   4.946   3.675   5.375 -0.2215  0.2241 -0.5604
 5540SOL    HW117304   5.008   3.724   5.430  0.1120 -0.7960 -0.0084
 5540SOL    HW217305   5.001   3.612   5.328 -0.7477 -0.1426 -0.6847
 5541SOL     OW17306   3.666   3.418   2.431 -0.0848  0.8748 -0.1971
 5541SOL    HW117307   3.748   3.402   2.478 -0.1925 -0.6254 -0.4809
 5541SOL    HW217308   3.629   3.331   2.418 -0.5825  1.3441 -2.1366
 5542SOL     OW17309   0.365   4.803   0.374  0.1302 -0.3252 -0.6171
 5542SOL    HW117310   0.318   4.734   0.328 -0.6427 -0.1521 -0.1092
 5542SOL    HW217311   0.406   4.854   0.305  0.1197 -0.8708 -1.0338
 5543SOL     OW17312   0.884   0.273   5.235  0.3412  0.2184 -0.0966
 5543SOL    HW117313   0.812   0.293   5.175  0.1751  0.2745  0.1198
 5543SOL    HW217314   0.903   0.180   5.220 -1.5188 -0.5024  1.6811
 5544SOL     OW17315   6.259   5.592   2.058 -0.3144 -0.0791  0.3528
 5544SOL    HW117316   6.331   5.625   2.004  0.2245 -0.3656  0.8801
 5544SOL    HW217317   6.180   5.618   2.011  0.1411 -0.5624 -0.7246
 5545SOL     OW17318   1.570   1.073   5.915  0.5396 -0.0582  0.2656
 5545SOL    HW117319   1.477   1.088   5.903  0.3021 -1.4237  0.2458
 5545SOL    HW217320   1.602   1.047   5.829  0.4604 -1.7908  0.7062
 5546SOL     OW17321   3.095   0.287   4.491 -0.1546  0.1554 -0.5051
 5546SOL    HW117322   3.045   0.235   4.554 -0.7085 -1.3434 -2.0906
 5546SOL    HW217323   3.111   0.370   4.535  2.6504 -1.9733  3.0647
 5547SOL     OW17324   4.568   6.424   2.006 -0.2142 -0.2679  0.2105
 5547SOL    HW117325   4.630   6.477   2.057  0.5298 -0.4754 -0.4675
 5547SOL    HW217326   4.561   6.468   1.922  0.6844 -1.4124 -0.4927
 5548SOL     OW17327   0.270   0.899   6.303 -0.2559  0.0045  0.4949
 5548SOL    HW117328   0.278   0.865   6.214  0.4207 -0.0087  0.5574
 5548SOL    HW217329   0.228   0.984   6.292  1.1022  0.6371  0.0228
 5549SOL     OW17330   1.353   1.155   3.644 -0.1307 -0.0103 -0.0964
 5549SOL    HW117331   1.284   1.197   3.594 -0.9594 -1.9408 -0.6814
 5549SOL    HW217332   1.345   1.192   3.732 -1.6212  0.1207 -0.2713
 5550SOL     OW17333   3.911   3.200   5.568 -0.2294 -0.8545 -0.3162
 5550SOL    HW117334   4.006   3.197   5.552 -0.0696 -1.2168  0.6137
 5550SOL    HW217335   3.892   3.294   5.576  0.0570 -0.7796 -0.4684
 5551SOL     OW17336   0.028   2.183   0.583 -0.2017  0.3721 -0.1284
 5551SOL    HW117337   0.025   2.110   0.645  1.6425 -0.0397 -0.4667
 5551SOL    HW217338   0.114   2.177   0.543 -0.5396  1.9265 -1.1852
 5552SOL     OW17339   2.926   0.513   1.517  0.4452  0.2350  0.0209
 5552SOL    HW117340   3.005   0.554   1.483  0.8056  0.0828  0.6502
 5552SOL    HW217341   2.951   0.481   1.604 -0.0490 -0.6108 -0.1283
 5553SOL     OW17342   3.842   3.727   0.446 -0.6413  0.5583  0.1926
 5553SOL    HW117343   3.893   3.678   0.382 -0.7770  0.3225  0.2643
 5553SOL    HW217344   3.885   3.812   0.451  1.3989 -0.4894  2.2241
 5554SOL     OW17345   4.811   3.144   4.450 -0.3080  0.0659 -0.6067
 5554SOL    HW117346   4.804   3.233   4.487 -2.8972 -0.1903 -0.3037
 5554SOL    HW217347   4.782   3.154   4.360 -0.7968 -0.5044 -0.5134
 5555SOL     OW17348   5.820   0.558   0.683  0.1901 -0.2223  0.7419
 5555SOL    HW117349   5.725   0.561   0.669  0.0765 -2.0427  0.8192
 5555SOL    HW217350   5.854   0.512   0.606  0.9786  0.2235  0.8238
 5556SOL     OW17351   6.213   1.604   2.015 -0.6291 -0.8743  0.1889
 5556SOL    HW117352   6.180   1.524   1.974  0.0874 -1.3312  0.4924
 5556SOL    HW217353   6.199   1.589   2.109 -2.7518  0.3749  0.1323
 5557SOL     OW17354   1.433   5.731   6.027 -0.7533 -0.3432  0.8029
 5557SOL    HW117355   1.508   5.766   5.979  1.2467 -0.4388  3.5793
 5557SOL    HW217356   1.438   5.772   6.113 -0.8979 -3.9853  2.7651
 5558SOL     OW17357   4.871   3.146   0.690 -0.4224 -0.3758  0.0827
 5558SOL    HW117358   4.798   3.102   0.732 -1.1571 -0.6442 -1.4030
 5558SOL    HW217359   4.849   3.146   0.597  0.1094  2.0683 -0.1169
 5559SOL     OW17360   3.723   3.446   1.352  0.1456  0.7380  0.7876
 5559SOL    HW117361   3.792   3.406   1.299 -0.0755  2.1082 -0.6107
 5559SOL    HW217362   3.770   3.495   1.419  0.6096  1.9041 -0.3340
 5560SOL     OW17363   1.764   3.960   0.386  0.8500 -0.4155  0.3772
 5560SOL    HW117364   1.758   4.032   0.324 -2.8306 -1.1028 -0.3309
 5560SOL    HW217365   1.816   3.994   0.459 -1.2568  3.2744  0.3869
 5561SOL     OW17366   5.493   5.090   4.921 -0.9342  0.0127 -0.5135
 5561SOL    HW117367   5.406   5.093   4.961 -0.9048  0.4695 -0.4778
 5561SOL    HW217368   5.541   5.026   4.972 -0.7766  0.8687  0.4225
 5562SOL     OW17369   2.620   4.929   0.814  0.0807  0.1110 -0.2740
 5562SOL    HW117370   2.575   4.845   0.814 -0.4045  0.3630  0.0689
 5562SOL    HW217371   2.648   4.940   0.905  3.5525 -1.4471 -0.9820
 5563SOL     OW17372   3.573   2.747   5.320 -0.3524  0.0208  0.2990
 5563SOL    HW117373   3.623   2.819   5.359  0.3326 -0.0380 -0.4492
 5563SOL    HW217374   3.513   2.789   5.258 -0.2472 -0.0194  0.1698
 5564SOL     OW17375   0.835   6.232   5.469 -0.0090 -0.1391 -0.0466
 5564SOL    HW117376   0.915   6.282   5.483 -0.5808  0.6897  0.3242
 5564SOL    HW217377   0.843   6.198   5.380  0.7433 -0.0550 -0.0162
 5565SOL     OW17378   3.456   3.217   2.090  0.1826 -0.1464 -0.4459
 5565SOL    HW117379   3.372   3.251   2.119  1.3773  1.6140  1.1130
 5565SOL    HW217380   3.503   3.193   2.170  2.5982  2.4615 -0.9219
 5566SOL     OW17381   1.501   1.429   0.973 -0.3027  0.0077  0.3261
 5566SOL    HW117382   1.565   1.367   0.940 -1.8071 -0.4367 -2.0589
 5566SOL    HW217383   1.531   1.452   1.061  2.3177 -1.1983 -0.1757
 5567SOL     OW17384   1.164   3.059   0.567 -0.1037  0.5253  0.4568
 5567SOL    HW117385   1.078   3.030   0.537  0.2632 -0.2702  0.1664
 5567SOL    HW217386   1.215   2.979   0.575  0.6767  1.0142  0.4350
 5568SOL     OW17387   3.089   0.899   4.545  0.0968  0.0433 -0.0707
 5568SOL    HW117388   3.151   0.834   4.513 -0.5608 -0.5471 -0.1594
 5568SOL    HW217389   3.099   0.973   4.485  2.0505  0.7269  1.0174
 5569SOL     OW17390   0.793   2.694   5.476 -0.8697 -0.2488  0.2487
 5569SOL    HW117391   0.857   2.647   5.422 -0.1857  0.2880  0.5854
 5569SOL    HW217392   0.784   2.640   5.555 -1.3266 -0.6580 -0.0754
 5570SOL     OW17393   2.062   3.066   1.692  0.0257  0.1162  0.2905
 5570SOL    HW117394   2.063   3.161   1.703 -2.1735  0.0532  1.6845
 5570SOL    HW217395   2.061   3.032   1.781 -2.8773 -1.0472 -0.0854
 5571SOL     OW17396   0.472   5.228   0.880  0.6580 -0.0349 -0.6016
 5571SOL    HW117397   0.505   5.148   0.839 -0.1999 -0.8126  0.1467
 5571SOL    HW217398   0.402   5.258   0.822  0.7603 -0.0184 -0.7159
 5572SOL     OW17399   5.353   5.422   0.493  0.0254  0.1563 -0.2193
 5572SOL    HW117400   5.393   5.359   0.433  2.3051  1.5433 -0.2771
 5572SOL    HW217401   5.422   5.486   0.510 -2.5535  3.5179 -1.3071
 5573SOL     OW17402   4.604   2.484   3.463 -0.4969 -0.4829 -0.0689
 5573SOL    HW117403   4.661   2.527   3.526 -0.9242  0.5223 -0.3526
 5573SOL    HW217404   4.525   2.462   3.512 -1.2040  1.1069 -0.4141
 5574SOL     OW17405   3.650   4.515   4.353  0.1782 -0.3615  0.4322
 5574SOL    HW117406   3.632   4.422   4.340 -0.6798 -0.5184  2.4183
 5574SOL    HW217407   3.563   4.556   4.356  0.5341  0.4531 -0.0329
 5575SOL     OW17408   6.358   6.377   1.250 -0.1344 -0.1832 -0.2674
 5575SOL    HW117409   6.338   6.374   1.156  0.6969 -1.6189 -0.4314
 5575SOL    HW217410   6.322   6.461   1.280 -4.2405 -1.4419 -0.9896
 5576SOL     OW17411   6.381   4.783   1.141 -0.6686  0.5475  0.1992
 5576SOL    HW117412   6.370   4.709   1.081  0.2678  2.6418 -2.7682
 5576SOL    HW217413   6.424   4.744   1.217  2.0236 -1.6983 -2.1826
 5577SOL     OW17414   5.845   5.998   0.682  0.1057  0.1202  0.0135
 5577SOL    HW117415   5.904   5.979   0.609 -1.0860  0.5863 -1.1089
 5577SOL    HW217416   5.822   5.912   0.717 -1.2477 -0.2850 -1.7639
 5578SOL     OW17417   3.121   2.451   6.389 -0.1587  0.7644  0.2309
 5578SOL    HW117418   3.170   2.402   6.322 -2.0970  1.4667 -1.8369
 5578SOL    HW217419   3.188   2.481   6.450  1.4640 -1.8151 -0.0918
 5579SOL     OW17420   3.192   5.579   2.985 -0.0345  0.1071 -0.0691
 5579SOL    HW117421   3.136   5.525   3.041 -2.5491  1.2092 -1.3562
 5579SOL    HW217422   3.168   5.553   2.896  1.5394  0.6315 -0.6636
 5580SOL     OW17423   2.235   3.576   1.014 -0.0375 -0.2546 -0.4346
 5580SOL    HW117424   2.200   3.502   1.063 -0.4046 -0.3951 -0.8982
 5580SOL    HW217425   2.296   3.619   1.074 -0.3365 -0.5346  0.0681
 5581SOL     OW17426   5.091   3.154   3.943 -0.5158 -0.2640 -0.0820
 5581SOL    HW117427   5.049   3.080   3.899  0.3534 -0.8789  0.0937
 5581SOL    HW217428   5.019   3.212   3.967 -1.2789 -1.3942  0.3960
 5582SOL     OW17429   3.321   3.161   4.746 -0.2159 -0.1445 -0.0941
 5582SOL    HW117430   3.255   3.118   4.800 -0.4689 -0.4494 -0.6346
 5582SOL    HW217431   3.386   3.092   4.728 -0.0351  0.0060 -0.0192
 5583SOL     OW17432   2.656   1.392   1.257 -0.3301  0.5345  0.2544
 5583SOL    HW117433   2.716   1.451   1.303 -0.0108 -0.8402  1.6892
 5583SOL    HW217434   2.569   1.419   1.286 -0.1372 -0.2444  1.6633
 5584SOL     OW17435   5.151   4.885   3.083 -0.2638  0.4144  0.5097
 5584SOL    HW117436   5.058   4.872   3.098  0.2590 -0.7008  3.5494
 5584SOL    HW217437   5.194   4.823   3.142  2.4101  1.7053  0.1064
 5585SOL     OW17438   3.165   3.486   0.110  0.2259 -0.2493 -0.2141
 5585SOL    HW117439   3.126   3.430   0.177  0.1772 -1.4958 -1.2571
 5585SOL    HW217440   3.111   3.566   0.112 -0.3795 -0.6627  0.5508
 5586SOL     OW17441   1.312   1.142   5.907  0.0470  0.0657 -0.0086
 5586SOL    HW117442   1.268   1.224   5.927 -1.1014 -0.9209  1.8031
 5586SOL    HW217443   1.243   1.076   5.913  1.0050 -1.0888 -1.0670
 5587SOL     OW17444   4.711   4.434   1.784  0.2860  0.5387  0.1584
 5587SOL    HW117445   4.624   4.462   1.755  1.2970  1.8434 -1.8278
 5587SOL    HW217446   4.750   4.394   1.706  0.6959 -2.1250  1.6196
 5588SOL     OW17447   1.143   6.376   5.176 -0.3001  0.0242 -0.0985
 5588SOL    HW117448   1.076   6.410   5.236 -0.9259  0.3176 -0.9472
 5588SOL    HW217449   1.138   6.432   5.099  0.7789 -0.0963 -0.2750
 5589SOL     OW17450   5.560   0.135   1.641 -0.8390 -0.6909  0.2780
 5589SOL    HW117451   5.600   0.209   1.687 -0.2002  0.0250 -1.3228
 5589SOL    HW217452   5.472   0.165   1.620  0.0799  0.5664 -2.2222
 5590SOL     OW17453   1.963   5.119   4.617 -0.8987 -0.4664 -0.3344
 5590SOL    HW117454   1.884   5.108   4.670 -0.0376 -1.3093  0.8523
 5590SOL    HW217455   1.972   5.214   4.607 -0.8000 -0.2342  1.5588
 5591SOL     OW17456   3.232   3.670   3.408 -0.2034 -0.4216  0.0497
 5591SOL    HW117457   3.235   3.744   3.347 -0.2839 -0.3702  0.1077
 5591SOL    HW217458   3.292   3.606   3.371 -1.5426 -1.1121 -1.0299
 5592SOL     OW17459   2.297   5.920   3.336  0.1723 -0.0136 -0.3093
 5592SOL    HW117460   2.295   5.849   3.272  0.9323 -1.1969  0.9476
 5592SOL    HW217461   2.211   5.917   3.378  0.1797 -0.1458 -0.3050
 5593SOL     OW17462   2.132   4.936   0.659 -0.0648 -0.2444  0.3054
 5593SOL    HW117463   2.099   4.892   0.581  0.6680 -0.2127 -0.0321
 5593SOL    HW217464   2.132   4.868   0.727  0.7236 -0.6873 -0.1224
 5594SOL     OW17465   1.768   1.794   4.149  0.1419 -0.6548 -0.0361
 5594SOL    HW117466   1.683   1.783   4.191 -0.4740 -0.3542 -1.1537
 5594SOL    HW217467   1.810   1.865   4.197 -0.2180 -0.8200  0.5362
 5595SOL     OW17468   2.067   3.440   2.211  0.0919 -0.3403  0.6290
 5595SOL    HW117469   2.157   3.472   2.218  0.0563 -0.2630  0.7353
 5595SOL    HW217470   2.025   3.503   2.152  0.6215 -1.4879 -1.0425
 5596SOL     OW17471   2.607   2.431   5.229 -0.5970  0.4008  0.2067
 5596SOL    HW117472   2.701   2.425   5.212 -1.0195 -0.8820 -2.0309
 5596SOL    HW217473   2.578   2.341   5.240 -1.3884  0.8472  2.4614
 5597SOL     OW17474   2.564   5.454   5.622  0.8165 -0.3675  0.1891
 5597SOL    HW117475   2.651   5.419   5.602  1.0171 -1.5332  2.6023
 5597SOL    HW217476   2.506   5.378   5.615 -0.1003  0.4547 -1.6461
 5598SOL     OW17477   3.610   0.009   6.380  0.4065 -0.3177  1.0577
 5598SOL    HW117478   3.601  -0.085   6.360  1.5886 -0.4146  0.9345
 5598SOL    HW217479   3.700   0.019   6.409  0.2978  0.7973  1.0518
 5599SOL     OW17480   3.888   0.930   4.846 -0.4423  0.3870  0.8582
 5599SOL    HW117481   3.908   0.985   4.922  0.6072 -1.5906  2.1118
 5599SOL    HW217482   3.974   0.900   4.815 -0.8802  0.7702 -0.8539
 5600SOL     OW17483   3.425   0.039   1.649  0.2709  0.6023  0.5405
 5600SOL    HW117484   3.425  -0.039   1.593  0.4160 -0.1120  1.5053
 5600SOL    HW217485   3.393   0.007   1.734  0.9349  1.4558  1.1250
 5601SOL     OW17486   0.377   5.607   4.150 -0.4937  0.3396 -0.0425
 5601SOL    HW117487   0.350   5.520   4.178  0.5740  0.1240  0.3808
 5601SOL    HW217488   0.464   5.618   4.188  1.0626  0.0616 -3.1948
 5602SOL     OW17489   3.621   0.924   1.857  0.0198 -0.5877 -1.1289
 5602SOL    HW117490   3.638   0.836   1.890  0.1520 -1.5024 -3.4219
 5602SOL    HW217491   3.672   0.982   1.914 -0.9440 -1.8292  1.1254
 5603SOL     OW17492   0.353   4.859   4.911  0.3827  0.0420  0.2831
 5603SOL    HW117493   0.420   4.923   4.932  0.8337 -0.4706  0.4493
 5603SOL    HW217494   0.282   4.877   4.972  0.9418 -0.2840  1.0495
 5604SOL     OW17495   1.333   5.126   4.885 -0.0098 -0.4138  0.2181
 5604SOL    HW117496   1.271   5.072   4.835 -0.8279  0.3649  0.3813
 5604SOL    HW217497   1.418   5.108   4.844 -0.3880 -1.2258 -0.2363
 5605SOL     OW17498   1.709   4.144   1.010  0.0140 -0.1538 -0.1973
 5605SOL    HW117499   1.642   4.075   1.009 -0.3398  0.1858 -0.1476
 5605SOL    HW217500   1.777   4.112   0.949  1.7589 -2.3761  2.6603
 5606SOL     OW17501   2.074   3.321   2.488  0.2685  0.0953  0.1583
 5606SOL    HW117502   2.000   3.261   2.492 -0.7139  1.3236  2.2435
 5606SOL    HW217503   2.075   3.353   2.398 -0.6783 -1.1877 -0.3340
 5607SOL     OW17504   1.643   4.795   6.129  0.2211 -0.0556  0.3409
 5607SOL    HW117505   1.703   4.733   6.170  0.8908 -0.4042 -1.1025
 5607SOL    HW217506   1.678   4.881   6.153 -0.6011 -0.1811  2.1881
 5608SOL     OW17507   1.495   4.929   3.180 -0.0067 -0.4398  0.7486
 5608SOL    HW117508   1.574   4.885   3.150 -0.7327 -1.2135 -0.0872
 5608SOL    HW217509   1.520   4.968   3.264  1.4160 -0.1608  0.2267
 5609SOL     OW17510   3.174   4.174   3.220 -0.1065  0.2428  0.6452
 5609SOL    HW117511   3.169   4.261   3.260  0.8665 -0.3584  2.1657
 5609SOL    HW217512   3.133   4.185   3.134  1.8596  2.7012 -0.0893
 5610SOL     OW17513   2.799   1.468   4.678  0.1482 -0.1279 -0.0042
 5610SOL    HW117514   2.736   1.397   4.689 -0.0524  0.2466  1.5515
 5610SOL    HW217515   2.830   1.487   4.767  1.8478  0.2550 -0.6383
 5611SOL     OW17516   3.956   0.006   5.101  0.7485  0.1373 -0.1314
 5611SOL    HW117517   3.925  -0.068   5.154 -1.3475  0.1465 -1.2361
 5611SOL    HW217518   3.900   0.079   5.126  2.0489  1.0993  0.1113
 5612SOL     OW17519   0.730   3.083   4.549 -0.6739  0.4633  0.8224
 5612SOL    HW117520   0.820   3.052   4.543 -1.1426 -0.9700  0.8325
 5612SOL    HW217521   0.732   3.170   4.510  0.7896  0.6253  1.2178
 5613SOL     OW17522   5.166   1.667   6.047 -0.0723 -0.3229  0.6267
 5613SOL    HW117523   5.163   1.682   6.141 -3.1897  1.7356  0.3438
 5613SOL    HW217524   5.093   1.607   6.030 -1.7677  1.9423 -0.7207
 5614SOL     OW17525   4.159   5.107   0.446  0.2851 -0.8081  0.5234
 5614SOL    HW117526   4.247   5.085   0.475  0.9149 -0.4007 -1.0305
 5614SOL    HW217527   4.118   5.147   0.523  1.2802 -1.4322  1.3979
 5615SOL     OW17528   4.801   0.012   1.197 -0.5899 -0.2899  0.3055
 5615SOL    HW117529   4.735  -0.003   1.264  0.6325  0.9089  1.8315
 5615SOL    HW217530   4.865   0.070   1.238 -1.0773  2.6710 -2.7090
 5616SOL     OW17531   5.385   6.447   5.667  0.1931  0.3045  0.6077
 5616SOL    HW117532   5.418   6.363   5.637  0.1421  0.7774 -0.8247
 5616SOL    HW217533   5.291   6.433   5.679  0.2135  0.1192  0.5458
 5617SOL     OW17534   5.282   1.535   0.008  0.6294 -0.0196  0.2251
 5617SOL    HW117535   5.325   1.595  -0.053  0.2483 -0.1027 -0.1290
 5617SOL    HW217536   5.259   1.458  -0.045  0.3923 -0.1395  0.4948
 5618SOL     OW17537   5.857   4.215   3.338  0.5959 -0.4966  0.1401
 5618SOL    HW117538   5.925   4.235   3.273  0.8504  1.3830  0.9042
 5618SOL    HW217539   5.880   4.269   3.413 -0.6754 -1.3062  1.1521
 5619SOL     OW17540   5.188   2.798   5.117  0.1670  0.2131  0.5530
 5619SOL    HW117541   5.277   2.783   5.148  1.0704  0.5513 -1.6479
 5619SOL    HW217542   5.155   2.870   5.170  1.0529 -0.1753  1.6608
 5620SOL     OW17543   1.627   5.718   0.358 -0.9552  0.1580  0.3823
 5620SOL    HW117544   1.645   5.661   0.432 -1.3195 -0.4715 -0.0112
 5620SOL    HW217545   1.601   5.659   0.287  1.0614  0.5713 -0.7960
 5621SOL     OW17546   5.244   3.292   5.168  0.0867  0.0651  0.1823
 5621SOL    HW117547   5.294   3.235   5.226  0.6200  0.6723  0.3366
 5621SOL    HW217548   5.266   3.263   5.080  1.1503  0.6606  0.2293
 5622SOL     OW17549   1.126   1.104   1.576 -0.3436 -0.2947 -0.2422
 5622SOL    HW117550   1.182   1.128   1.650 -0.5667  0.3107 -0.2589
 5622SOL    HW217551   1.072   1.182   1.561  0.0026 -0.2453 -1.3190
 5623SOL     OW17552   1.667   0.479   4.180  0.7674 -0.0822 -0.0833
 5623SOL    HW117553   1.727   0.538   4.135 -1.7716  1.4469 -1.6955
 5623SOL    HW217554   1.590   0.475   4.123  0.0510 -3.4704  0.9304
 5624SOL     OW17555   0.581   4.508   4.945 -0.3475 -0.1457  0.4284
 5624SOL    HW117556   0.629   4.588   4.924 -0.8524  0.0185 -0.1150
 5624SOL    HW217557   0.489   4.534   4.945 -0.5912 -0.9095 -0.6876
 5625SOL     OW17558   3.023   3.500   5.772  0.0441  0.3055  0.1767
 5625SOL    HW117559   3.003   3.587   5.738 -1.5611 -0.1330 -0.0946
 5625SOL    HW217560   3.110   3.480   5.737  1.7292  2.8987  2.5582
 5626SOL     OW17561   1.000   1.672   0.210  0.1181 -0.8943 -0.4515
 5626SOL    HW117562   0.936   1.617   0.255  0.4661 -1.6285 -0.8351
 5626SOL    HW217563   1.067   1.691   0.275 -0.9725  0.7306  0.2572
 5627SOL     OW17564   4.568   3.771   0.028  0.7544  0.1726  0.3322
 5627SOL    HW117565   4.516   3.789   0.107 -0.0085  0.3388 -0.1900
 5627SOL    HW217566   4.543   3.682   0.003  0.2141  0.4967 -0.2957
 5628SOL     OW17567   0.568   5.487   0.416  0.2505 -0.3326 -0.1010
 5628SOL    HW117568   0.526   5.402   0.432 -0.0636 -0.4607 -1.4753
 5628SOL    HW217569   0.535   5.544   0.485 -0.9880 -0.8509 -0.2400
 5629SOL     OW17570   3.553   6.431   4.468 -0.0799 -0.4097 -0.0389
 5629SOL    HW117571   3.605   6.505   4.502 -0.4344 -0.4030  0.5047
 5629SOL    HW217572   3.609   6.391   4.402 -0.4247  1.1593 -1.3289
 5630SOL     OW17573   5.619   2.123   6.316  0.6094  0.2428  0.3159
 5630SOL    HW117574   5.576   2.168   6.244 -0.3569 -0.8994  0.1553
 5630SOL    HW217575   5.583   2.164   6.395  1.6792  1.5035  0.1909
 5631SOL     OW17576   0.775   1.845   5.033 -0.0649  0.7519 -0.2114
 5631SOL    HW117577   0.818   1.780   5.088 -0.5289  1.0261  0.4944
 5631SOL    HW217578   0.738   1.908   5.094  0.4538  1.7387 -0.8869
 5632SOL     OW17579   4.159   5.553   4.283 -0.7248 -0.2571  0.4239
 5632SOL    HW117580   4.192   5.516   4.365  0.4556 -1.7623 -0.6803
 5632SOL    HW217581   4.233   5.601   4.247 -0.9609 -0.3292 -0.1621
 5633SOL     OW17582   0.794   6.029   5.689 -0.3118 -0.0741 -0.1366
 5633SOL    HW117583   0.806   5.942   5.651  0.2203  0.2604 -0.7600
 5633SOL    HW217584   0.774   6.085   5.614 -0.4764  0.3740  0.2367
 5634SOL     OW17585   3.990   2.353   6.129 -0.3301 -0.3819 -0.1290
 5634SOL    HW117586   4.082   2.356   6.153 -0.7745 -1.3589  2.0078
 5634SOL    HW217587   3.989   2.350   6.034  1.8632 -0.8170 -0.1812
 5635SOL     OW17588   5.105   3.231   4.330 -0.4930 -0.4771  0.2278
 5635SOL    HW117589   5.182   3.274   4.292 -0.1977 -1.6711 -0.5982
 5635SOL    HW217590   5.084   3.283   4.408  0.0255  0.9491 -0.5383
 5636SOL     OW17591   6.515   2.973   3.793  0.8119 -0.6479  0.4882
 5636SOL    HW117592   6.533   2.879   3.793  1.0487 -0.6043  0.7459
 5636SOL    HW217593   6.430   2.981   3.836  0.3160 -0.8270 -0.4295
 5637SOL     OW17594   4.477   6.419   0.293 -0.0799 -0.1163 -0.2135
 5637SOL    HW117595   4.479   6.383   0.382  0.5758  0.5176  0.0353
 5637SOL    HW217596   4.461   6.512   0.305  1.0286  0.1605 -0.6870
 5638SOL     OW17597   1.906   2.248   5.985 -0.1465  0.2491  0.5094
 5638SOL    HW117598   1.938   2.285   5.903  0.6949  0.9646  1.1364
 5638SOL    HW217599   1.872   2.162   5.961  1.2783 -0.1027 -0.3767
 5639SOL     OW17600   4.196   5.958   6.148  0.4527 -0.1631 -0.6529
 5639SOL    HW117601   4.174   5.976   6.057  1.0707  1.9248 -0.4459
 5639SOL    HW217602   4.259   5.887   6.145  0.4381 -0.1344 -1.8485
 5640SOL     OW17603   0.164   4.902   4.287  0.1801 -0.2027 -0.2184
 5640SOL    HW117604   0.135   4.992   4.272  0.1887  0.0519  1.1150
 5640SOL    HW217605   0.147   4.887   4.380  1.5844 -1.0565 -0.0599
 5641SOL     OW17606   5.747   2.670   2.870 -0.6129  0.4509  0.0697
 5641SOL    HW117607   5.771   2.742   2.929 -1.1659 -0.6261  1.6518
 5641SOL    HW217608   5.828   2.651   2.822  0.0668  0.8509  1.0277
 5642SOL     OW17609   3.785   5.939   2.331 -0.4865  0.3607 -0.0748
 5642SOL    HW117610   3.858   5.969   2.277  0.3222 -0.3570  0.5960
 5642SOL    HW217611   3.823   5.928   2.419 -0.4873 -3.3282 -0.3740
 5643SOL     OW17612   0.949   0.859   4.881 -0.0447 -0.4239  0.1082
 5643SOL    HW117613   0.958   0.885   4.789 -0.4829  0.6261  0.3436
 5643SOL    HW217614   1.038   0.868   4.916  0.0377 -0.3884 -0.1055
 5644SOL     OW17615   4.803   4.353   1.539  0.5160  0.3216 -0.4702
 5644SOL    HW117616   4.752   4.392   1.469  0.2273 -0.9994 -1.0191
 5644SOL    HW217617   4.894   4.365   1.513  0.4506  1.1339 -0.3405
 5645SOL     OW17618   0.668   5.500   0.750 -0.2202  0.3335 -0.1232
 5645SOL    HW117619   0.715   5.584   0.753 -1.0803  0.9325 -2.1351
 5645SOL    HW217620   0.579   5.523   0.724 -1.1867 -0.9837  1.8117
 5646SOL     OW17621   0.397   2.192   5.810  0.6205  0.5701  0.2043
 5646SOL    HW117622   0.481   2.210   5.853  0.9376 -0.3212 -0.0213
 5646SOL    HW217623   0.421   2.169   5.721  0.1471  0.1572  0.1822
 5647SOL     OW17624   0.569   4.623   0.717  0.6889  0.3784  0.0679
 5647SOL    HW117625   0.506   4.678   0.670  2.0546 -0.2215 -2.6578
 5647SOL    HW217626   0.647   4.623   0.662  1.7215 -1.9974  1.3726
 5648SOL     OW17627   0.343   4.151   5.923  0.4375  0.1297  0.3220
 5648SOL    HW117628   0.421   4.166   5.977  0.3077  1.2113  0.2353
 5648SOL    HW217629   0.303   4.073   5.960  1.6631 -0.5523  0.2531
 5649SOL     OW17630   5.651   3.780   4.153  0.2190  0.4131 -0.2928
 5649SOL    HW117631   5.660   3.795   4.059  1.4258 -0.6941 -0.3827
 5649SOL    HW217632   5.733   3.737   4.178 -0.5573 -0.3338  1.0591
 5650SOL     OW17633   1.184   4.479   1.077 -0.1195 -0.5725  0.4410
 5650SOL    HW117634   1.246   4.476   1.150 -0.3376  1.1073  0.7371
 5650SOL    HW217635   1.099   4.495   1.118 -0.4351 -0.8400 -0.1005
 5651SOL     OW17636   5.038   4.985   2.349 -0.1056 -0.3626  0.4764
 5651SOL    HW117637   5.037   4.890   2.336 -0.8327 -0.1711 -1.1215
 5651SOL    HW217638   4.947   5.007   2.371  0.2950 -0.1462  2.0759
 5652SOL     OW17639   5.468   3.819   0.715  0.5580  0.1708 -0.3098
 5652SOL    HW117640   5.421   3.743   0.752  1.2424 -0.2655 -0.3307
 5652SOL    HW217641   5.511   3.859   0.791 -1.3532  1.6946  0.0450
 5653SOL     OW17642   3.966   2.889   1.941 -0.6777 -0.0975 -0.2500
 5653SOL    HW117643   3.967   2.819   1.876  0.2483  3.2371 -4.2813
 5653SOL    HW217644   4.059   2.907   1.958 -0.8776  0.7121  0.0325
 5654SOL     OW17645   1.823   4.272   2.769 -0.1713  0.2721 -0.0800
 5654SOL    HW117646   1.919   4.272   2.768 -0.1209  0.7912  1.3741
 5654SOL    HW217647   1.799   4.188   2.731  0.8824 -0.1173  0.0588
 5655SOL     OW17648   4.609   5.701   1.326  0.3177 -0.1968 -0.3475
 5655SOL    HW117649   4.538   5.718   1.388 -0.9011 -0.2909 -1.6722
 5655SOL    HW217650   4.596   5.766   1.256  2.4181  0.7548  0.0586
 5656SOL     OW17651   3.400   2.810   5.774  0.5974 -0.3852 -0.1192
 5656SOL    HW117652   3.383   2.803   5.868 -1.5923  0.0255 -0.4214
 5656SOL    HW217653   3.430   2.723   5.748  1.4284 -0.4418  0.9921
 5657SOL     OW17654   5.598   5.298   2.561  0.0662  0.0259 -0.1489
 5657SOL    HW117655   5.671   5.303   2.499  0.1546  0.2910 -0.0280
 5657SOL    HW217656   5.541   5.230   2.526  0.1937  0.0648 -0.4373
 5658SOL     OW17657   5.729   3.112   3.817 -0.3256  0.6407 -0.1432
 5658SOL    HW117658   5.666   3.078   3.881  0.4470  0.6028  0.6224
 5658SOL    HW217659   5.685   3.104   3.733 -1.5912  1.2381  0.4495
 5659SOL     OW17660   1.988   4.925   0.350  0.5563 -0.0918  0.4180
 5659SOL    HW117661   1.979   5.021   0.349  0.3886 -0.1013  0.8601
 5659SOL    HW217662   2.078   4.910   0.321  0.1609  0.1360 -0.9937
 5660SOL     OW17663   2.644   0.480   0.239 -0.5120  0.4528 -0.2507
 5660SOL    HW117664   2.637   0.460   0.146  0.1318 -1.9414  0.1660
 5660SOL    HW217665   2.735   0.461   0.262 -1.2088 -1.2913  1.3176
 5661SOL     OW17666   5.325   2.582   0.883 -0.4515 -0.3403  0.1794
 5661SOL    HW117667   5.338   2.674   0.907 -0.7347 -0.7003  1.8740
 5661SOL    HW217668   5.298   2.584   0.792 -0.5248  1.2672  0.2132
 5662SOL     OW17669   3.248   3.228   3.342  0.5613  0.1816 -0.2170
 5662SOL    HW117670   3.236   3.263   3.430  0.0343 -0.5881  0.0256
 5662SOL    HW217671   3.160   3.205   3.312  0.9911 -2.5010  0.3033
 5663SOL     OW17672   4.496   4.197   6.023 -0.0822 -0.8663 -0.0370
 5663SOL    HW117673   4.437   4.169   6.093 -2.5053  2.0644 -0.7009
 5663SOL    HW217674   4.555   4.259   6.066 -0.5241 -0.2871 -0.2586
 5664SOL     OW17675   1.813   4.562   1.780  0.2274 -0.4244 -0.9507
 5664SOL    HW117676   1.800   4.467   1.776 -0.5464 -0.4553  1.1739
 5664SOL    HW217677   1.728   4.597   1.804  0.8469  0.6704 -0.2584
 5665SOL     OW17678   5.869   2.396   5.957  0.5974  0.3320 -0.0267
 5665SOL    HW117679   5.919   2.461   5.909  1.9768 -1.0250 -0.5034
 5665SOL    HW217680   5.877   2.422   6.049  1.1234  0.8400 -0.2140
 5666SOL     OW17681   2.719   1.878   4.613 -0.0523  0.3974  0.1453
 5666SOL    HW117682   2.775   1.833   4.550  1.0983  2.0733 -0.1055
 5666SOL    HW217683   2.779   1.912   4.679 -1.0342  0.3179  1.1007
 5667SOL     OW17684   2.663   4.564   0.383  0.0736  0.0327 -0.6449
 5667SOL    HW117685   2.751   4.561   0.347  0.4249  0.1545  0.1785
 5667SOL    HW217686   2.636   4.472   0.389  0.4899 -0.0545 -0.0770
 5668SOL     OW17687   0.564   6.188   1.711 -0.0053 -0.5016  0.4385
 5668SOL    HW117688   0.564   6.260   1.648  0.0399 -1.5586 -0.7999
 5668SOL    HW217689   0.651   6.189   1.749 -0.1531  0.3799  0.7795
 5669SOL     OW17690   5.934   6.099   2.890 -0.1572  0.7204  0.0114
 5669SOL    HW117691   5.929   6.163   2.819  0.7112  1.7743  0.8567
 5669SOL    HW217692   5.989   6.141   2.956  0.4089 -0.8991  0.6148
 5670SOL     OW17693   2.795   1.869   3.329  0.1391 -0.0939 -0.2068
 5670SOL    HW117694   2.827   1.944   3.280  2.6899 -0.9248  0.0196
 5670SOL    HW217695   2.716   1.842   3.283 -0.4967  2.3239 -0.6390
 5671SOL     OW17696   0.308   4.237   4.952  0.1823  0.5980  0.1399
 5671SOL    HW117697   0.221   4.277   4.946 -0.3112  0.0351  2.7480
 5671SOL    HW217698   0.357   4.294   5.011  0.9515 -0.1831  0.2757
 5672SOL     OW17699   3.385   4.868   3.975  0.2149 -0.3357 -0.0756
 5672SOL    HW117700   3.419   4.875   3.886 -1.6016 -1.9062 -0.9611
 5672SOL    HW217701   3.323   4.941   3.981  0.5826 -0.0292  0.0298
 5673SOL     OW17702   0.164   4.297   1.619  0.0647 -0.2517 -0.1812
 5673SOL    HW117703   0.146   4.389   1.641  1.5668  0.1025 -0.3210
 5673SOL    HW217704   0.260   4.291   1.619  0.0276 -1.4335 -1.6932
 5674SOL     OW17705   1.916   3.637   2.509  0.4053 -0.4407  0.2785
 5674SOL    HW117706   1.919   3.607   2.418 -1.0650 -0.4303  0.1951
 5674SOL    HW217707   1.822   3.649   2.526  0.3804 -3.1147  2.6398
 5675SOL     OW17708   4.451   2.416   2.985 -0.8956  0.6727 -0.0534
 5675SOL    HW117709   4.491   2.464   3.057  0.6398 -0.2949 -0.2049
 5675SOL    HW217710   4.430   2.330   3.022  0.2416  0.0433 -0.8239
 5676SOL     OW17711   1.745   5.457   6.507  0.3280 -0.3414 -0.4160
 5676SOL    HW117712   1.750   5.486   6.415  2.1068  0.9099  0.0131
 5676SOL    HW217713   1.819   5.397   6.517  2.0030  1.8035  0.8784
 5677SOL     OW17714   1.589   1.470   2.404 -0.1239 -0.5410 -0.3259
 5677SOL    HW117715   1.667   1.426   2.437 -0.6527 -0.5342  0.9857
 5677SOL    HW217716   1.570   1.538   2.468 -0.6898  0.0498 -1.0985
 5678SOL     OW17717   0.857   2.171   4.654  0.2172 -0.6805  0.6292
 5678SOL    HW117718   0.769   2.192   4.685  0.5919  2.0705  0.0314
 5678SOL    HW217719   0.842   2.119   4.575 -0.9057  0.4014  0.0919
 5679SOL     OW17720   3.429   0.648   1.462 -0.1261 -0.5183  0.4860
 5679SOL    HW117721   3.385   0.630   1.379  1.4392  0.6932 -0.6784
 5679SOL    HW217722   3.405   0.738   1.483 -2.0994 -1.4127  2.4512
 5680SOL     OW17723   5.730   1.815   1.100 -0.1813 -0.1859  0.2878
 5680SOL    HW117724   5.637   1.831   1.082 -0.1839  0.1442  0.5944
 5680SOL    HW217725   5.744   1.725   1.071 -0.1427  0.3638 -1.5575
 5681SOL     OW17726   2.523   5.471   4.679 -0.4894  0.4922 -0.1211
 5681SOL    HW117727   2.585   5.437   4.743 -1.1545 -0.6040 -0.0177
 5681SOL    HW217728   2.522   5.405   4.609  0.2796  1.7044 -1.3147
 5682SOL     OW17729   6.399   3.213   0.076 -0.3777  0.2154  0.7262
 5682SOL    HW117730   6.443   3.265   0.143  0.1174 -1.1986  1.5333
 5682SOL    HW217731   6.341   3.155   0.124 -1.2477  0.3039 -0.1867
 5683SOL     OW17732   0.014   3.755   0.095  0.0748 -0.3641 -0.4343
 5683SOL    HW117733  -0.059   3.722   0.148 -0.0584  0.0091 -0.3801
 5683SOL    HW217734   0.028   3.845   0.127  1.2811 -0.7985  0.3204
 5684SOL     OW17735   1.271   5.021   1.904 -0.0558 -0.1292 -0.7454
 5684SOL    HW117736   1.355   5.033   1.859 -0.2927 -0.5435 -1.3038
 5684SOL    HW217737   1.205   5.028   1.836 -0.4315 -0.5816 -0.4389
 5685SOL     OW17738   3.948   6.050   2.883 -0.2515  0.3726  0.3650
 5685SOL    HW117739   4.031   6.039   2.931  1.0101  1.1237 -1.5280
 5685SOL    HW217740   3.947   6.142   2.858 -1.0557  0.0963 -0.6777
 5686SOL     OW17741   0.341   1.683   2.983 -0.5038 -0.0673  0.1638
 5686SOL    HW117742   0.309   1.763   3.025 -0.4657  0.3067 -0.5022
 5686SOL    HW217743   0.262   1.635   2.959 -0.5453 -1.1099  2.1383
 5687SOL     OW17744   2.742   5.660   3.295  1.1323  0.0528  0.1890
 5687SOL    HW117745   2.772   5.571   3.277  0.9924 -0.0525  0.4660
 5687SOL    HW217746   2.647   5.656   3.287  1.2636  0.9303 -3.1363
 5688SOL     OW17747   2.163   5.075   2.390  0.2916 -0.2310 -0.1615
 5688SOL    HW117748   2.145   4.989   2.428  1.0356 -0.9135 -1.2990
 5688SOL    HW217749   2.080   5.122   2.399 -0.0827 -0.9990  0.6235
 5689SOL     OW17750   0.015   4.912   6.037  0.0589  0.4681  0.3106
 5689SOL    HW117751  -0.078   4.891   6.038  0.2097 -0.2290  0.1536
 5689SOL    HW217752   0.023   4.981   5.971 -0.0518 -0.9290 -1.2207
 5690SOL     OW17753   5.158   4.299   3.954  0.0228 -0.0515  0.1057
 5690SOL    HW117754   5.201   4.286   4.038  1.0586 -0.7979 -0.5128
 5690SOL    HW217755   5.223   4.345   3.901 -1.3712  2.3060  0.3313
 5691SOL     OW17756   0.179   2.948   1.614 -0.0800  0.2863  0.1314
 5691SOL    HW117757   0.099   2.936   1.665 -2.3729 -1.7016 -3.4581
 5691SOL    HW217758   0.185   3.043   1.600 -1.3105  0.5408  1.1557
 5692SOL     OW17759   4.988   5.128   0.937  0.2712  0.1464  0.6424
 5692SOL    HW117760   4.969   5.035   0.940  1.4516 -0.1617 -0.4830
 5692SOL    HW217761   4.907   5.170   0.967 -0.0648 -1.2381  1.7661
 5693SOL     OW17762   0.488   5.778   2.049  0.0514  0.0703  0.7149
 5693SOL    HW117763   0.538   5.826   2.116 -1.7657  0.6857  1.6807
 5693SOL    HW217764   0.411   5.831   2.033 -0.0837 -0.6193 -1.1250
 5694SOL     OW17765   3.809   4.984   2.548 -0.1282 -0.1153  0.1202
 5694SOL    HW117766   3.727   4.952   2.510  0.7398 -1.4530 -0.7309
 5694SOL    HW217767   3.868   4.990   2.473  0.0461  2.7029  0.3858
 5695SOL     OW17768   6.435   5.743   1.906  0.0818  0.1460 -0.2392
 5695SOL    HW117769   6.448   5.837   1.891  4.6363 -0.5681 -2.6482
 5695SOL    HW217770   6.396   5.712   1.824  0.8748 -0.3503 -0.4356
 5696SOL     OW17771   1.878   3.349   5.497  0.2089  0.2685  0.4524
 5696SOL    HW117772   1.936   3.309   5.561 -1.4987 -1.6055  0.9413
 5696SOL    HW217773   1.790   3.329   5.529 -0.7009  0.2634 -1.8672
 5697SOL     OW17774   2.101   3.284   5.182  0.1345  0.1614 -0.8753
 5697SOL    HW117775   2.007   3.282   5.198  0.3309 -1.1035  0.1865
 5697SOL    HW217776   2.110   3.253   5.092 -0.6292  3.0840 -2.0967
 5698SOL     OW17777   3.770   0.355   1.054 -1.0984 -0.1224  0.8501
 5698SOL    HW117778   3.693   0.299   1.069 -1.7721 -0.0675 -1.8955
 5698SOL    HW217779   3.733   0.442   1.037 -0.4960 -0.1815 -0.9094
 5699SOL     OW17780   4.418   5.750   2.611 -0.3735  0.0314 -0.1487
 5699SOL    HW117781   4.361   5.725   2.684 -1.5088  0.5566 -0.8366
 5699SOL    HW217782   4.431   5.668   2.563  2.1694 -0.8261  1.7735
 5700SOL     OW17783   5.671   0.427   2.249 -0.9266 -0.1828 -0.4215
 5700SOL    HW117784   5.705   0.453   2.164 -1.0536 -0.5897 -0.5995
 5700SOL    HW217785   5.736   0.366   2.284 -0.6204  0.3774  0.0022
 5701SOL     OW17786   2.214   1.487   4.609  0.4080 -0.6803  0.0462
 5701SOL    HW117787   2.163   1.554   4.654  1.6683  0.2116  0.1923
 5701SOL    HW217788   2.276   1.455   4.675  1.8951  0.2426 -0.8363
 5702SOL     OW17789   0.941   4.471   6.418 -0.2662 -0.2392  0.4864
 5702SOL    HW117790   0.857   4.445   6.455 -1.1818 -1.4856 -2.2040
 5702SOL    HW217791   0.983   4.389   6.392  0.7705  0.4875 -0.2662
 5703SOL     OW17792   5.136   6.245   1.362 -0.4761  0.4958 -0.0321
 5703SOL    HW117793   5.218   6.295   1.365 -0.9337  1.5261 -2.4533
 5703SOL    HW217794   5.109   6.249   1.270 -1.2825 -3.1136 -0.1032
 5704SOL     OW17795   5.938   2.808   5.160  0.3855  0.3061  0.3446
 5704SOL    HW117796   5.993   2.799   5.082 -0.7183  0.6665 -0.4983
 5704SOL    HW217797   5.925   2.718   5.190 -1.3595 -0.1220 -1.4682
 5705SOL     OW17798   3.408   6.329   2.282 -0.6673  0.0354 -0.1028
 5705SOL    HW117799   3.467   6.254   2.291 -0.3213  0.1078 -1.5397
 5705SOL    HW217800   3.326   6.291   2.251 -0.9789  0.0935  0.6207
 5706SOL     OW17801   1.012   2.914   3.699 -0.2011  0.2049  0.0476
 5706SOL    HW117802   0.917   2.899   3.697 -0.4351  1.4756  0.7195
 5706SOL    HW217803   1.021   3.008   3.686  0.9569  0.1644  0.4799
 5707SOL     OW17804   5.999   4.253   5.426 -0.6844  0.1002  0.5574
 5707SOL    HW117805   5.907   4.257   5.450 -0.8918  0.8449 -0.2929
 5707SOL    HW217806   6.037   4.333   5.463 -1.0559  1.3840 -1.6264
 5708SOL     OW17807   3.257   5.877   0.191 -0.0609  0.1855  0.2238
 5708SOL    HW117808   3.178   5.832   0.222 -0.1941 -0.9514 -1.5904
 5708SOL    HW217809   3.225   5.961   0.158 -0.0797  0.9005  1.9650
 5709SOL     OW17810   3.934   2.769   1.681 -0.6377  0.3552 -0.1252
 5709SOL    HW117811   3.894   2.816   1.608 -0.5029  1.7282  0.6359
 5709SOL    HW217812   3.978   2.695   1.641 -0.6678  1.0107 -1.4321
 5710SOL     OW17813   1.682   3.162   3.831  0.0342  0.4155  0.3518
 5710SOL    HW117814   1.645   3.215   3.902  0.4206  0.1673  0.7443
 5710SOL    HW217815   1.681   3.072   3.866  2.2416  0.5537  0.9250
 5711SOL     OW17816   3.506   2.221   5.662 -0.1909 -0.3347 -0.7031
 5711SOL    HW117817   3.594   2.188   5.678  0.5029  1.5841 -0.3360
 5711SOL    HW217818   3.494   2.214   5.567 -0.0649 -1.5231 -0.6510
 5712SOL     OW17819   4.096   0.636   2.219  0.6076  0.4670  0.0827
 5712SOL    HW117820   4.174   0.640   2.275  1.2927 -1.0296 -0.7168
 5712SOL    HW217821   4.131   0.637   2.130 -0.2966  0.0080 -0.2855
 5713SOL     OW17822   0.360   5.305   4.959  0.2269 -0.1718 -0.0844
 5713SOL    HW117823   0.446   5.322   4.997  0.0856 -0.4237  0.3578
 5713SOL    HW217824   0.378   5.285   4.867  0.7439 -1.2231  0.2308
 5714SOL     OW17825   0.298   2.865   4.238  0.3744  0.1188  0.1642
 5714SOL    HW117826   0.224   2.839   4.293 -1.0319 -0.4909 -1.9047
 5714SOL    HW217827   0.358   2.791   4.242  0.9024  0.5890  1.8062
 5715SOL     OW17828   4.158   0.788   0.819  1.0382 -0.6828  0.2306
 5715SOL    HW117829   4.189   0.786   0.910 -1.8430 -0.3888  1.2978
 5715SOL    HW217830   4.151   0.881   0.798  0.4396 -0.7354  0.1798
 5716SOL     OW17831   5.078   0.712   0.905  0.1390 -0.2103 -0.4520
 5716SOL    HW117832   5.019   0.698   0.980 -3.5300  3.3887 -2.2504
 5716SOL    HW217833   5.154   0.758   0.942 -0.2084 -1.0668  1.4228
 5717SOL     OW17834   2.724   2.250   4.879 -0.3977 -0.1239  0.1292
 5717SOL    HW117835   2.650   2.306   4.856 -0.0077  0.4596  0.2690
 5717SOL    HW217836   2.788   2.310   4.917  1.1182 -0.2188 -2.1019
 5718SOL     OW17837   4.884   1.904   6.097 -0.1141 -0.4397 -0.0513
 5718SOL    HW117838   4.848   1.854   6.024 -1.9928  0.7971 -0.0297
 5718SOL    HW217839   4.899   1.991   6.061 -2.2241  0.5459  1.2691
 5719SOL     OW17840   4.278   3.923   5.099  0.5946  0.2123  0.0279
 5719SOL    HW117841   4.363   3.880   5.110  1.6430  1.9579 -0.8296
 5719SOL    HW217842   4.234   3.873   5.031  1.0233 -0.5764  0.3199
 5720SOL     OW17843   2.044   4.215   3.244 -0.2184 -0.0049 -0.1896
 5720SOL    HW117844   2.124   4.257   3.211 -0.8423  2.1806  0.8652
 5720SOL    HW217845   2.071   4.172   3.325  0.3335 -1.2903 -1.0309
 5721SOL     OW17846   0.775   0.370   4.446  0.1472  0.6690 -0.3658
 5721SOL    HW117847   0.730   0.285   4.446  1.7884 -0.2380 -0.5351
 5721SOL    HW217848   0.802   0.382   4.537  1.1539  0.2957 -0.5988
 5722SOL     OW17849   4.017   5.112   6.202 -0.2614 -0.0519  0.2430
 5722SOL    HW117850   4.107   5.129   6.228  0.4074  0.4932 -2.1374
 5722SOL    HW217851   4.021   5.103   6.106 -2.9694  1.7422 -0.1585
 5723SOL     OW17852   4.166   3.537   5.379 -0.2264 -0.1498 -0.0027
 5723SOL    HW117853   4.135   3.590   5.452 -0.2884 -1.5439  1.0385
 5723SOL    HW217854   4.260   3.528   5.393 -0.3414 -0.9739  0.3074
 5724SOL     OW17855   5.720   6.304   1.278  0.0688 -0.3866 -0.5272
 5724SOL    HW117856   5.767   6.330   1.199  3.0094 -2.8581  0.2491
 5724SOL    HW217857   5.732   6.377   1.338  0.4149  0.2267 -1.3221
 5725SOL     OW17858   1.379   5.329   2.226  0.4431  0.0335  0.0278
 5725SOL    HW117859   1.380   5.241   2.262  0.5901  0.6082  1.5066
 5725SOL    HW217860   1.385   5.317   2.131  2.2156 -1.4808  0.2839
 5726SOL     OW17861   4.947   5.696   5.460 -0.3870 -0.6286  0.2965
 5726SOL    HW117862   4.992   5.777   5.484 -3.6226  0.8975  1.7912
 5726SOL    HW217863   5.014   5.628   5.472  1.8003  1.5218  1.2826
 5727SOL     OW17864   2.989   2.029   2.199 -0.4792  0.2372  0.2634
 5727SOL    HW117865   2.989   2.054   2.106  0.1822  0.2282  0.2594
 5727SOL    HW217866   2.920   2.082   2.238 -1.9105 -0.9315 -0.5409
 5728SOL     OW17867   5.332   2.117   0.666 -0.2762  0.2063 -0.0629
 5728SOL    HW117868   5.410   2.173   0.661 -0.7352  0.9638  0.9022
 5728SOL    HW217869   5.290   2.129   0.581 -1.2049  2.6622  0.6371
 5729SOL     OW17870   6.136   5.139   3.188  0.2884  0.0362  0.2699
 5729SOL    HW117871   6.149   5.172   3.277  0.5463 -2.0046  1.0465
 5729SOL    HW217872   6.177   5.053   3.188  0.9089  0.2692 -2.0620
 5730SOL     OW17873   5.110   4.423   3.491  0.2094  0.1211 -0.0802
 5730SOL    HW117874   5.023   4.404   3.456 -0.1279  1.1160  0.1787
 5730SOL    HW217875   5.106   4.515   3.516  1.7247  0.5456 -1.2184
 5731SOL     OW17876   2.790   0.863   1.382 -0.7987 -0.1317  0.1517
 5731SOL    HW117877   2.799   0.921   1.307 -2.1382  0.9863  0.8019
 5731SOL    HW217878   2.854   0.793   1.367 -2.0072 -0.7292 -2.7072
 5732SOL     OW17879   5.906   2.097   0.021 -0.2332 -0.6921 -0.0945
 5732SOL    HW117880   5.866   2.136  -0.057 -0.6761 -3.3073 -1.2776
 5732SOL    HW217881   5.988   2.146   0.033 -0.4101  0.1236 -1.8732
 5733SOL     OW17882   1.760   3.165   6.125  0.2450  0.0976 -0.4337
 5733SOL    HW117883   1.791   3.084   6.085 -0.8405  0.6215 -2.4589
 5733SOL    HW217884   1.667   3.169   6.105 -0.3690  0.4734  2.1355
 5734SOL     OW17885   2.636   2.396   5.920 -0.8428  0.1189 -0.0183
 5734SOL    HW117886   2.677   2.328   5.974 -1.7497 -2.6498 -2.5289
 5734SOL    HW217887   2.564   2.428   5.973  0.4815  0.2088  1.8141
 5735SOL     OW17888   2.512   3.801   0.449  0.3262 -0.2679  0.4653
 5735SOL    HW117889   2.498   3.839   0.363 -2.3571  0.7818  1.2762
 5735SOL    HW217890   2.544   3.712   0.432  0.5326  0.1478 -1.5524
 5736SOL     OW17891   5.161   5.139   1.811  0.0473  0.3820  0.0546
 5736SOL    HW117892   5.234   5.148   1.749 -0.7934 -1.1486 -1.2362
 5736SOL    HW217893   5.198   5.090   1.885  0.0309 -1.8043 -1.2865
 5737SOL     OW17894   2.369   2.807   4.692  0.0729 -0.5994 -0.6275
 5737SOL    HW117895   2.276   2.831   4.694 -0.0230 -0.4823 -3.0072
 5737SOL    HW217896   2.409   2.873   4.635  1.6107 -0.7368  0.2316
 5738SOL     OW17897   1.361   3.688   2.265  0.1966  0.1394 -0.1208
 5738SOL    HW117898   1.324   3.727   2.186  0.0956 -0.9404 -0.6166
 5738SOL    HW217899   1.360   3.594   2.249  0.0965 -0.1119  1.1994
 5739SOL     OW17900   0.451   5.287   3.916  0.2853  0.1588 -0.3190
 5739SOL    HW117901   0.390   5.253   3.982 -0.5244 -0.9425 -1.5700
 5739SOL    HW217902   0.475   5.210   3.865  1.0930  0.9478 -1.1508
 5740SOL     OW17903   3.916   3.452   1.761  0.0794  0.4282  0.3938
 5740SOL    HW117904   3.881   3.516   1.700  1.3526 -0.0556 -0.9159
 5740SOL    HW217905   3.998   3.423   1.721 -0.8239 -2.6473  0.4443
 5741SOL     OW17906   2.520   4.982   3.007  0.5833  0.1856  0.7880
 5741SOL    HW117907   2.473   5.058   2.971 -1.0317 -1.2677 -0.3507
 5741SOL    HW217908   2.480   4.967   3.092 -0.0786 -0.2231  0.4091
 5742SOL     OW17909   5.916   5.614   5.672 -0.1411  0.7070  0.5410
 5742SOL    HW117910   5.880   5.701   5.688 -0.4116  0.5977  0.5290
 5742SOL    HW217911   5.974   5.625   5.597 -0.8656  0.6942 -0.0308
 5743SOL     OW17912   0.303   3.906   0.874  0.0247 -0.2464  0.1828
 5743SOL    HW117913   0.281   3.819   0.906  3.6325 -0.9059  1.3410
 5743SOL    HW217914   0.339   3.891   0.786 -1.2530  0.3945 -0.4748
 5744SOL     OW17915   2.348   6.030   1.821 -0.7610  0.3040  0.0205
 5744SOL    HW117916   2.311   5.983   1.746 -0.3598 -0.6833  0.4253
 5744SOL    HW217917   2.322   5.978   1.897 -1.2855  1.3719  0.5923
 5745SOL     OW17918   0.216   3.512   6.211  0.2379  0.0520 -0.3020
 5745SOL    HW117919   0.143   3.518   6.273  0.3877 -0.4057 -0.0705
 5745SOL    HW217920   0.190   3.566   6.137 -1.7277 -2.4480 -1.6009
 5746SOL     OW17921   3.604   1.924   4.239  0.0459 -0.6459 -0.4478
 5746SOL    HW117922   3.610   2.019   4.231  1.5283 -0.6606  0.2621
 5746SOL    HW217923   3.567   1.895   4.156 -1.1380  0.5949 -0.3991
 5747SOL     OW17924   3.141   5.677   1.599 -0.4651  0.1184  0.2231
 5747SOL    HW117925   3.122   5.586   1.619 -0.8159  0.2775  0.6349
 5747SOL    HW217926   3.237   5.683   1.600 -0.4204 -0.3652 -0.3899
 5748SOL     OW17927   2.454   2.650   4.343  0.4037 -0.2635  0.0532
 5748SOL    HW117928   2.501   2.725   4.381  0.0128 -0.0331  0.0864
 5748SOL    HW217929   2.501   2.631   4.262  2.3805 -1.8999  1.4819
 5749SOL     OW17930   0.944   1.568   3.944 -0.1425 -0.7592  0.0936
 5749SOL    HW117931   0.989   1.513   3.881 -1.5971 -2.6848  0.6285
 5749SOL    HW217932   0.856   1.581   3.907  0.1490  1.2463 -0.0072
 5750SOL     OW17933   1.034   5.053   0.617 -0.6657  0.1097 -0.6374
 5750SOL    HW117934   0.994   5.111   0.553 -0.2965  0.2781 -0.7220
 5750SOL    HW217935   1.043   5.107   0.696  1.6540  0.8859 -1.3504
 5751SOL     OW17936   5.708   4.396   0.808 -0.4031  0.4865  0.0055
 5751SOL    HW117937   5.650   4.388   0.733  0.0894 -0.1233 -0.3167
 5751SOL    HW217938   5.778   4.333   0.791  0.9464  1.9948 -0.1512
 5752SOL     OW17939   6.455   6.082   4.799  0.5651  0.0112 -0.6778
 5752SOL    HW117940   6.491   6.160   4.842  0.4334  1.2102 -2.6155
 5752SOL    HW217941   6.409   6.116   4.722 -1.7213 -1.7855 -0.2118
 5753SOL     OW17942   1.594   0.865   5.660  0.2428 -0.1220  0.0253
 5753SOL    HW117943   1.688   0.853   5.673  0.0248 -0.1872  1.8316
 5753SOL    HW217944   1.574   0.818   5.580  1.3228 -2.3154  0.9737
 5754SOL     OW17945   0.685   2.073   5.553 -0.4319 -0.1770  0.6474
 5754SOL    HW117946   0.714   1.983   5.569 -0.1009 -0.4396 -1.2130
 5754SOL    HW217947   0.765   2.125   5.556  0.3122 -0.7461 -3.3711
 5755SOL     OW17948   3.379   4.452   4.860  0.2223  0.4003  0.3943
 5755SOL    HW117949   3.373   4.358   4.878  0.4482  0.2442 -0.3395
 5755SOL    HW217950   3.449   4.483   4.918  1.0468 -0.1263 -0.3006
 5756SOL     OW17951   3.327   3.509   2.994 -0.2193 -0.8094 -0.1296
 5756SOL    HW117952   3.272   3.584   3.016 -0.4777 -0.7572 -0.9091
 5756SOL    HW217953   3.396   3.545   2.938  0.4155 -0.9380  0.5514
 5757SOL     OW17954   1.765   0.279   0.226  0.2473 -0.5506  0.0728
 5757SOL    HW117955   1.815   0.261   0.147  1.2477 -0.8190  0.7486
 5757SOL    HW217956   1.827   0.322   0.285 -0.9029  1.1154  0.1455
 5758SOL     OW17957   3.680   0.160   5.791  0.2220 -0.0266  0.3366
 5758SOL    HW117958   3.679   0.185   5.699  2.0378 -2.0843 -0.3269
 5758SOL    HW217959   3.655   0.239   5.838  1.9362  1.9076 -1.7734
 5759SOL     OW17960   3.017   3.762   3.985 -0.4706 -0.0911  0.2958
 5759SOL    HW117961   2.986   3.771   4.076  0.7970  1.5846  0.6168
 5759SOL    HW217962   3.113   3.765   3.993 -0.3427 -0.3579 -1.0606
 5760SOL     OW17963   3.274   4.476   2.300 -0.0792 -0.4865  0.9405
 5760SOL    HW117964   3.269   4.380   2.308  0.3295 -0.7913 -1.6332
 5760SOL    HW217965   3.202   4.499   2.242 -0.8014  0.9416  2.3261
 5761SOL     OW17966   1.599   6.103   1.770 -1.2695  0.5880 -0.2475
 5761SOL    HW117967   1.629   6.038   1.834  1.3087  2.6865  0.9058
 5761SOL    HW217968   1.526   6.147   1.814 -1.8653 -0.3172 -0.2984
 5762SOL     OW17969   4.301   4.449   6.273 -0.0822  0.4579  0.0814
 5762SOL    HW117970   4.339   4.515   6.331  1.0999  0.1417 -0.2991
 5762SOL    HW217971   4.222   4.419   6.318  0.1824  1.0580  0.9601
 5763SOL     OW17972   4.696   0.946   4.355  0.2643  0.1105 -0.4475
 5763SOL    HW117973   4.752   0.883   4.400  0.7627  1.9174  1.6413
 5763SOL    HW217974   4.677   1.013   4.421 -2.3706  0.8403 -1.8068
 5764SOL     OW17975   2.900   1.030   1.999  0.7051 -0.0053  0.0859
 5764SOL    HW117976   2.932   0.976   1.927  1.0200 -0.7571  0.7670
 5764SOL    HW217977   2.805   1.036   1.985  0.7260 -0.3885 -0.2294
 5765SOL     OW17978   1.948   4.856   6.391  0.2366  0.4036 -0.0612
 5765SOL    HW117979   1.911   4.810   6.466 -1.9536 -1.3171 -2.0520
 5765SOL    HW217980   2.014   4.796   6.356 -1.0252 -0.2999 -1.3330
 5766SOL     OW17981   5.914   5.310   3.780 -0.4589 -0.1415  0.3338
 5766SOL    HW117982   5.827   5.336   3.811 -1.6172 -0.3477 -2.4091
 5766SOL    HW217983   5.953   5.391   3.747  0.2193 -0.1371  1.1172
 5767SOL     OW17984   1.397   2.594   2.692  0.4433 -0.1887 -0.3145
 5767SOL    HW117985   1.301   2.595   2.694  0.4425  0.7382  1.5590
 5767SOL    HW217986   1.419   2.564   2.604 -1.5670 -2.2852 -0.1958
 5768SOL     OW17987   6.457   3.098   4.314 -0.1765 -0.3967 -0.2182
 5768SOL    HW117988   6.408   3.112   4.396  0.1385 -0.6047  0.0069
 5768SOL    HW217989   6.538   3.147   4.326  0.0516 -0.7692 -0.2398
 5769SOL     OW17990   2.455   5.874   0.553 -0.5008  0.8094 -0.2062
 5769SOL    HW117991   2.394   5.901   0.485 -0.6844 -0.7248 -0.6968
 5769SOL    HW217992   2.486   5.787   0.525  1.4247  1.2554  0.3423
 5770SOL     OW17993   1.403   1.037   4.831 -0.2316  0.0139 -0.4516
 5770SOL    HW117994   1.410   1.012   4.739  0.3756 -2.3281  0.1733
 5770SOL    HW217995   1.461   0.976   4.878 -1.2065  0.5406  1.5766
 5771SOL     OW17996   6.059   4.425   3.482  0.2848 -0.2091  0.6929
 5771SOL    HW117997   5.983   4.476   3.511 -1.0486 -0.1150 -2.5259
 5771SOL    HW217998   6.129   4.490   3.473 -0.4248  0.4893 -0.0576
 5772SOL     OW17999   0.678   5.410   6.289  0.4409  0.4326  0.0561
 5772SOL    HW118000   0.666   5.316   6.300 -1.1121  0.6177  0.2556
 5772SOL    HW218001   0.724   5.438   6.368 -0.1331  0.0058  0.5501
 5773SOL     OW18002   1.625   0.417   4.461  0.5616 -0.3100 -0.5295
 5773SOL    HW118003   1.640   0.433   4.368  1.4994  0.3753 -0.2729
 5773SOL    HW218004   1.536   0.449   4.477  0.6269  0.1371 -1.0590
 5774SOL     OW18005   1.970   5.749   5.933  0.3173  0.1671 -0.3425
 5774SOL    HW118006   1.982   5.776   6.024  1.4906 -0.0487 -0.4137
 5774SOL    HW218007   2.037   5.682   5.919 -0.0221  0.0139 -1.2867
 5775SOL     OW18008   3.856   1.796   4.077 -0.8003 -0.0773  0.4540
 5775SOL    HW118009   3.768   1.765   4.056 -0.1315 -0.5918 -1.7944
 5775SOL    HW218010   3.882   1.850   4.003  1.6744 -1.9166 -0.1576
 5776SOL     OW18011   4.839   4.395   0.743 -0.3454 -0.2064 -0.0493
 5776SOL    HW118012   4.869   4.483   0.720  0.8917 -0.0305  1.9376
 5776SOL    HW218013   4.893   4.336   0.691  0.4754  0.2001  0.3221
 5777SOL     OW18014   3.139   3.698   3.049 -0.5994 -0.3172  0.0089
 5777SOL    HW118015   3.070   3.749   3.007  1.0885  0.9025 -1.3752
 5777SOL    HW218016   3.171   3.755   3.119 -1.0233 -0.9276  0.7212
 5778SOL     OW18017   3.186   5.098   3.494  0.1693  0.0266  0.3096
 5778SOL    HW118018   3.270   5.064   3.464 -0.0091 -0.1783  0.0360
 5778SOL    HW218019   3.197   5.111   3.588 -0.0459 -1.6795  0.6047
 5779SOL     OW18020   2.074   6.480   2.079  0.9476 -0.6181  0.4050
 5779SOL    HW118021   2.120   6.563   2.062 -0.1679 -0.0111  0.2249
 5779SOL    HW218022   2.077   6.434   1.996  0.8082 -0.3506  0.2474
 5780SOL     OW18023   1.877   6.018   4.499  0.4591 -0.3095  0.3016
 5780SOL    HW118024   1.888   5.955   4.570 -0.4021 -1.6870 -0.7183
 5780SOL    HW218025   1.928   5.982   4.427  0.3713  0.4444 -0.1455
 5781SOL     OW18026   0.113   4.948   1.810  0.1461 -0.1827 -0.0470
 5781SOL    HW118027   0.113   4.892   1.888 -0.0868 -0.9143 -0.5561
 5781SOL    HW218028   0.042   4.912   1.755  0.9562 -0.3162 -1.0300
 5782SOL     OW18029   3.262   4.528   1.679 -0.7728  0.1674  0.0393
 5782SOL    HW118030   3.251   4.433   1.689  1.3223 -0.0336  0.9960
 5782SOL    HW218031   3.202   4.552   1.609 -0.8654 -1.9831 -0.6862
 5783SOL     OW18032   1.068   1.953   0.098  0.1974  0.9372 -0.7731
 5783SOL    HW118033   1.034   2.038   0.123 -1.2884 -0.5751  3.1632
 5783SOL    HW218034   1.127   1.928   0.169 -1.0127 -2.0682 -0.6380
 5784SOL     OW18035   5.945   4.456   5.737  0.3183 -0.3096 -0.2702
 5784SOL    HW118036   5.962   4.550   5.739 -1.0575 -0.0573  0.4001
 5784SOL    HW218037   6.032   4.416   5.744  0.8979  0.8961 -0.3137
 5785SOL     OW18038   4.820   5.145   2.192  0.1055  0.3097 -0.1143
 5785SOL    HW118039   4.903   5.188   2.214 -0.3964  1.3769 -0.2627
 5785SOL    HW218040   4.782   5.124   2.277 -0.8982  2.6419  0.0924
 5786SOL     OW18041   4.219   2.206   5.925 -0.5431  0.1961  0.4706
 5786SOL    HW118042   4.163   2.265   5.874 -1.7497  0.1033  1.6377
 5786SOL    HW218043   4.159   2.141   5.961  0.7866 -1.9708 -1.0068
 5787SOL     OW18044   5.537   3.031   2.125 -0.2901  0.1766  0.4714
 5787SOL    HW118045   5.462   2.972   2.115 -0.5260  0.1775  1.9937
 5787SOL    HW218046   5.611   2.973   2.143  0.3554  0.0944 -2.0216
 5788SOL     OW18047   6.444   4.662   1.377  0.5537  0.1752  0.0500
 5788SOL    HW118048   6.436   4.568   1.392  2.4163 -0.0309 -0.0887
 5788SOL    HW218049   6.412   4.702   1.459  0.9205 -0.6132  0.5809
 5789SOL     OW18050   2.328   4.228   0.220  0.0453  0.7142  0.2192
 5789SOL    HW118051   2.367   4.182   0.295 -1.1262  0.7931  0.8843
 5789SOL    HW218052   2.314   4.317   0.251  1.8537  1.4491 -0.9162
 5790SOL     OW18053   3.489   6.101   5.359  0.2222  0.3464  0.4859
 5790SOL    HW118054   3.549   6.030   5.340 -0.3878  0.1696 -0.8517
 5790SOL    HW218055   3.427   6.064   5.423  0.5043  0.0022  0.5604
 5791SOL     OW18056   2.892   4.493   3.254  0.6001 -0.0714  0.3718
 5791SOL    HW118057   2.812   4.441   3.248  1.4386 -1.4005  0.3714
 5791SOL    HW218058   2.943   4.470   3.177  1.0287  0.6936  0.4131
 5792SOL     OW18059   3.076   1.027   4.877  0.4660  0.2448  0.1528
 5792SOL    HW118060   3.143   1.094   4.866 -1.0194  2.0522  1.4357
 5792SOL    HW218061   3.060   1.024   4.971 -0.2067 -1.2148  0.0194
 5793SOL     OW18062   5.632   6.271   0.774  0.2338  0.2809  0.4670
 5793SOL    HW118063   5.710   6.244   0.822  0.4457 -1.0999 -0.6099
 5793SOL    HW218064   5.664   6.333   0.708  0.3024  0.2873  0.5065
 5794SOL     OW18065   0.485   4.057   5.239  0.2401  0.0540  0.4137
 5794SOL    HW118066   0.547   4.024   5.174  0.3444  2.6762 -0.9308
 5794SOL    HW218067   0.496   4.152   5.238 -2.7712  0.5377  1.1892
 5795SOL     OW18068   2.899   2.105   3.258 -0.2094  0.6580 -0.0850
 5795SOL    HW118069   2.989   2.095   3.227 -0.4040 -0.5335 -0.2884
 5795SOL    HW218070   2.889   2.200   3.270  1.4418  0.7455  1.0672
 5796SOL     OW18071   1.295   0.951   3.342  0.0324  0.7259  0.2487
 5796SOL    HW118072   1.204   0.953   3.310  0.0117 -0.1012  0.2428
 5796SOL    HW218073   1.302   0.869   3.390  1.1686  0.0978 -0.9282
 5797SOL     OW18074   5.655   2.989   5.443 -0.4760  0.0044 -0.1900
 5797SOL    HW118075   5.663   2.988   5.347  1.8082  0.0779 -0.0449
 5797SOL    HW218076   5.739   3.022   5.474 -0.4653 -1.7832  1.9069
 5798SOL     OW18077   3.075   0.047   5.993  0.4468 -0.2355 -0.8718
 5798SOL    HW118078   3.127   0.096   6.057 -0.6492  0.0899 -0.2088
 5798SOL    HW218079   3.087   0.095   5.911  0.2519  0.5367 -0.4601
 5799SOL     OW18080   3.210   5.294   0.577  0.2271 -0.3758  0.2618
 5799SOL    HW118081   3.297   5.259   0.591  0.9689  0.0638 -2.6531
 5799SOL    HW218082   3.218   5.388   0.595  0.3514 -0.3353 -0.0093
 5800SOL     OW18083   3.055   2.894   6.245  0.3725  0.2085 -0.3924
 5800SOL    HW118084   3.145   2.863   6.251 -0.4233 -2.3611 -0.5610
 5800SOL    HW218085   3.049   2.933   6.158  0.9151 -1.1835 -1.0812
 5801SOL     OW18086   6.203   2.490   0.219  0.3826  0.4847  0.0247
 5801SOL    HW118087   6.273   2.451   0.270 -0.5037  0.1749  1.0461
 5801SOL    HW218088   6.226   2.471   0.128  0.5030 -1.5367  0.4339
 5802SOL     OW18089   3.442   4.457   3.077  0.1377  0.0828 -0.1191
 5802SOL    HW118090   3.509   4.474   3.012  0.5178  1.7249  0.6492
 5802SOL    HW218091   3.473   4.379   3.123  0.1888 -0.7023 -1.4310
 5803SOL     OW18092   6.076   2.298   0.503 -0.0366 -0.0241  0.0798
 5803SOL    HW118093   6.039   2.333   0.584 -0.8278 -0.3506 -0.1336
 5803SOL    HW218094   6.167   2.327   0.504 -0.3310  0.9402  0.5401
 5804SOL     OW18095   2.010   0.485   0.763  0.4306 -0.5401 -0.2754
 5804SOL    HW118096   2.075   0.526   0.819 -0.2709 -1.0158  0.9385
 5804SOL    HW218097   1.954   0.557   0.735  0.2009 -0.4172  0.4649
 5805SOL     OW18098   5.744   4.913   0.623  0.1638 -0.2601  0.6915
 5805SOL    HW118099   5.787   4.921   0.708  1.9403 -1.9826  0.0304
 5805SOL    HW218100   5.670   4.972   0.628  0.1258 -0.4253  3.4943
 5806SOL     OW18101   0.066   6.319   4.909 -0.3098 -0.4796 -0.4660
 5806SOL    HW118102   0.139   6.317   4.848 -1.6242  0.9843 -2.2049
 5806SOL    HW218103   0.086   6.392   4.969 -1.3346  1.4759 -2.3768
 5807SOL     OW18104   3.603   6.503   5.495 -0.5893  0.3707 -0.4462
 5807SOL    HW118105   3.688   6.533   5.528 -0.4422  1.7227 -1.9141
 5807SOL    HW218106   3.605   6.408   5.505  0.8020  0.4434  0.1875
 5808SOL     OW18107   0.864   4.512   2.897  0.5072 -0.2327  0.1861
 5808SOL    HW118108   0.825   4.507   2.810  0.4667 -3.2570  0.2579
 5808SOL    HW218109   0.921   4.588   2.894 -0.8283  0.7651 -1.8787
 5809SOL     OW18110   2.115   0.630   0.485  0.1370 -0.4939  0.5035
 5809SOL    HW118111   2.062   0.610   0.409  1.7357  2.4188 -1.5535
 5809SOL    HW218112   2.064   0.695   0.534  0.2317 -0.4523  0.5471
 5810SOL     OW18113   1.751   5.747   0.829 -0.1264  0.0952  0.0275
 5810SOL    HW118114   1.806   5.683   0.786 -0.4842  0.2572 -0.6821
 5810SOL    HW218115   1.798   5.769   0.910  0.3935 -0.4383 -0.1252
 5811SOL     OW18116   3.379   5.733   2.173 -0.2325 -0.1577  0.4278
 5811SOL    HW118117   3.333   5.803   2.220  2.2208  1.6102  0.3881
 5811SOL    HW218118   3.464   5.770   2.152  0.0572 -2.0795 -2.4301
 5812SOL     OW18119   2.299   3.055   0.970 -0.4620 -0.4856  0.2930
 5812SOL    HW118120   2.264   2.984   0.916  0.3981 -0.3072 -0.5133
 5812SOL    HW218121   2.383   3.077   0.931 -1.4193  2.1239 -0.5333
 5813SOL     OW18122   6.194   2.368   2.639 -0.3678 -0.4571  0.5489
 5813SOL    HW118123   6.121   2.430   2.638 -0.7093 -0.8039 -1.9412
 5813SOL    HW218124   6.248   2.396   2.713 -0.2159  3.1742 -0.7417
 5814SOL     OW18125   3.043   6.308   6.072  0.9713 -0.1832 -0.4276
 5814SOL    HW118126   3.055   6.399   6.046  1.1608 -0.7150 -2.3869
 5814SOL    HW218127   3.115   6.261   6.029 -0.5917 -1.5920 -1.6567
 5815SOL     OW18128   4.507   2.496   4.804 -0.2545  0.2182 -0.3861
 5815SOL    HW118129   4.577   2.431   4.815  1.2379  1.6927 -0.8193
 5815SOL    HW218130   4.487   2.494   4.711  1.7501  2.2238 -0.9483
 5816SOL     OW18131   4.556   0.894   5.342 -0.0537 -0.3746  0.6023
 5816SOL    HW118132   4.592   0.806   5.355 -1.1576 -0.8130  0.7759
 5816SOL    HW218133   4.632   0.947   5.315  0.5586 -1.4460  0.1531
 5817SOL     OW18134   0.269   3.574   0.103 -0.0331 -0.1868  0.1343
 5817SOL    HW118135   0.238   3.531   0.182 -0.4802 -0.7436 -0.3436
 5817SOL    HW218136   0.294   3.662   0.132 -1.3322  0.0270  0.6709
 5818SOL     OW18137   5.752   6.155   4.835 -0.5139 -0.3910  0.0459
 5818SOL    HW118138   5.720   6.245   4.827  0.3434 -0.0706  0.1573
 5818SOL    HW218139   5.845   6.164   4.852 -0.5249 -1.2969  0.6374
 5819SOL     OW18140   1.999   1.233   3.801 -0.3545  0.0940 -0.1608
 5819SOL    HW118141   1.967   1.146   3.776 -0.7651 -0.2701  1.5225
 5819SOL    HW218142   2.028   1.223   3.891  0.2440  1.5592 -0.1628
 5820SOL     OW18143   0.668   0.898   3.592 -0.1868 -0.5565  0.6168
 5820SOL    HW118144   0.592   0.857   3.635  0.0583 -0.9705  0.6641
 5820SOL    HW218145   0.660   0.874   3.500 -0.1480 -0.5474  0.6108
 5821SOL     OW18146   3.685   3.894   4.869 -0.7887  0.2619  0.3676
 5821SOL    HW118147   3.609   3.841   4.893 -0.9413  0.5976  0.6444
 5821SOL    HW218148   3.742   3.890   4.946 -0.6966  0.3052  0.3006
 5822SOL     OW18149   6.474   5.308   0.090  0.4182  0.2045  0.2497
 5822SOL    HW118150   6.422   5.234   0.057  1.1146 -0.0481 -0.3000
 5822SOL    HW218151   6.542   5.267   0.144 -1.6298  0.6598  3.4693
 5823SOL     OW18152   3.282   2.716   0.714 -0.0794 -0.3235  0.5060
 5823SOL    HW118153   3.315   2.753   0.795 -1.1013 -0.4741  1.0084
 5823SOL    HW218154   3.282   2.789   0.652  3.6771 -0.8447 -0.3874
 5824SOL     OW18155   5.516   3.639   2.445  0.1855 -0.7516  0.1970
 5824SOL    HW118156   5.474   3.553   2.452  1.1292 -1.2204  0.3250
 5824SOL    HW218157   5.535   3.649   2.352  0.9085 -1.0989  0.3042
 5825SOL     OW18158   1.427   4.445   5.393 -0.3380 -0.1571 -0.3562
 5825SOL    HW118159   1.449   4.535   5.371 -0.0801 -0.3576 -0.9648
 5825SOL    HW218160   1.419   4.444   5.488 -3.1100  1.1224 -0.4939
 5826SOL     OW18161   4.658   5.708   5.565  0.0168 -0.1777 -0.1509
 5826SOL    HW118162   4.751   5.732   5.556 -0.2442  0.8846 -0.1921
 5826SOL    HW218163   4.655   5.653   5.643  0.3254  2.0088  1.5205
 5827SOL     OW18164   3.729   4.439   6.471  0.2167  0.1643 -0.2052
 5827SOL    HW118165   3.736   4.476   6.383 -0.8112  1.8158  0.3536
 5827SOL    HW218166   3.745   4.514   6.529  1.2137 -0.9693  1.0179
 5828SOL     OW18167   6.170   3.875   6.063  0.2001 -0.2796  0.0120
 5828SOL    HW118168   6.135   3.788   6.080  0.6798 -1.2103 -3.1774
 5828SOL    HW218169   6.153   3.891   5.970  1.9449  2.1866  0.0001
 5829SOL     OW18170   3.133   1.712   3.002 -0.0497  0.3831  0.0173
 5829SOL    HW118171   3.225   1.710   3.027  0.1491  1.7201 -0.5128
 5829SOL    HW218172   3.112   1.805   2.998 -1.0397  0.1237 -1.2351
 5830SOL     OW18173   5.483   4.367   1.547  0.2577 -0.0361 -0.0558
 5830SOL    HW118174   5.518   4.293   1.597 -0.1637 -0.3829 -0.2651
 5830SOL    HW218175   5.390   4.369   1.569  0.0885 -0.1313 -0.7467
 5831SOL     OW18176   4.265   0.380   3.211 -0.1529 -0.0560  0.1377
 5831SOL    HW118177   4.292   0.414   3.297 -1.6340  1.2471  0.1328
 5831SOL    HW218178   4.346   0.378   3.160  0.9370 -1.6952  1.7908
 5832SOL     OW18179   2.627   0.958   3.000  0.0496  0.5442 -0.3822
 5832SOL    HW118180   2.719   0.980   2.983 -0.2484  1.6348 -0.6292
 5832SOL    HW218181   2.585   0.963   2.914 -0.7303  2.5082  0.0594
 5833SOL     OW18182   5.590   4.593   5.885  0.1608 -0.1583 -0.2273
 5833SOL    HW118183   5.523   4.654   5.917  1.8642  0.7752  1.7425
 5833SOL    HW218184   5.567   4.579   5.793 -2.3724  0.5824  0.2115
 5834SOL     OW18185   6.120   5.208   0.636  0.1941  0.3725  0.9772
 5834SOL    HW118186   6.131   5.217   0.730  0.1013  1.2863  0.9141
 5834SOL    HW218187   6.053   5.273   0.613 -1.0521 -1.0291  0.5154
 5835SOL     OW18188   0.830   6.272   1.815  0.1525  0.3408  0.2174
 5835SOL    HW118189   0.903   6.214   1.793  0.7102  0.8839  0.6372
 5835SOL    HW218190   0.822   6.330   1.739 -0.7319 -0.5861 -0.4287
 5836SOL     OW18191   0.543   2.201   3.544 -0.0519  0.6505 -0.3261
 5836SOL    HW118192   0.632   2.233   3.557  0.0669  0.2992 -0.2587
 5836SOL    HW218193   0.493   2.279   3.519 -0.2508  1.3232  1.9856
 5837SOL     OW18194   1.679   1.186   3.941 -0.0780 -0.0250 -0.3219
 5837SOL    HW118195   1.651   1.208   4.031  1.1018 -0.5360  0.1877
 5837SOL    HW218196   1.712   1.268   3.906 -0.8880  0.2658 -0.4402
 5838SOL     OW18197   4.135   1.701   1.574 -0.1558  0.0631  0.2830
 5838SOL    HW118198   4.140   1.608   1.596 -1.3758 -0.0558  0.1214
 5838SOL    HW218199   4.103   1.703   1.484 -3.0510  0.6428  1.2248
 5839SOL     OW18200   2.377   0.567   0.083 -0.3283 -0.4079  0.3779
 5839SOL    HW118201   2.418   0.626   0.145 -2.4034  3.5052 -1.6145
 5839SOL    HW218202   2.450   0.525   0.038  1.2652  0.6017  1.8976
 5840SOL     OW18203   4.724   5.337   2.379  0.0774  0.2593 -0.0759
 5840SOL    HW118204   4.717   5.399   2.306  0.5194 -0.4359 -0.7231
 5840SOL    HW218205   4.648   5.280   2.369  1.0011 -0.8728 -1.0080
 5841SOL     OW18206   0.123   0.314   6.066 -0.6236  0.1998 -0.6093
 5841SOL    HW118207   0.093   0.355   6.147  0.3874  0.8315 -0.5414
 5841SOL    HW218208   0.043   0.278   6.026 -1.1412 -0.0844  0.6345
 5842SOL     OW18209   1.570   0.762   4.178  0.5703 -0.2033 -0.1816
 5842SOL    HW118210   1.625   0.692   4.213  1.7553  0.5129 -0.5536
 5842SOL    HW218211   1.626   0.809   4.117  0.2420  1.8557  1.0009
 5843SOL     OW18212   0.927   0.089   4.341 -0.0740 -0.4020  0.1241
 5843SOL    HW118213   0.994   0.075   4.407  0.0155  0.3327  0.1944
 5843SOL    HW218214   0.873   0.010   4.344 -0.1371 -0.3343  1.1525
 5844SOL     OW18215   4.366   4.165   5.162 -0.4042 -0.4486 -0.5939
 5844SOL    HW118216   4.317   4.208   5.233 -1.0238  0.5866 -1.6056
 5844SOL    HW218217   4.325   4.079   5.153  1.3572 -1.6891  1.9884
 5845SOL     OW18218   2.479   1.384   5.063 -0.3742  0.0376 -0.0632
 5845SOL    HW118219   2.401   1.370   5.010 -0.0520  0.7964 -0.7547
 5845SOL    HW218220   2.484   1.479   5.073  1.0070  0.0793 -0.8724
 5846SOL     OW18221   0.578   6.340   3.297 -0.4666 -0.3838  0.0776
 5846SOL    HW118222   0.533   6.420   3.325  0.1197  0.1714 -0.5463
 5846SOL    HW218223   0.666   6.348   3.333  0.7357  0.9664 -2.9049
 5847SOL     OW18224   3.021   0.854   5.511  0.2890  0.5833  0.0003
 5847SOL    HW118225   2.996   0.769   5.547  0.8743  0.6855  0.6829
 5847SOL    HW218226   3.108   0.871   5.549 -1.4053  3.3323  3.2351
 5848SOL     OW18227   0.435   1.836   1.491  0.0980  1.1648  0.5955
 5848SOL    HW118228   0.524   1.807   1.470  0.0249  0.9993  0.5087
 5848SOL    HW218229   0.441   1.931   1.498 -0.0726  1.3266 -1.1382
 5849SOL     OW18230   0.744   3.388   1.093  0.1753 -0.7752  0.3765
 5849SOL    HW118231   0.828   3.342   1.088  0.3278 -0.5376  0.6696
 5849SOL    HW218232   0.764   3.476   1.060 -0.4898 -1.3872 -1.7877
 5850SOL     OW18233   5.258   3.741   0.400 -0.1269 -0.0036  0.1180
 5850SOL    HW118234   5.205   3.733   0.321 -0.3898 -0.9344  0.3807
 5850SOL    HW218235   5.258   3.835   0.419 -0.0426  0.2329 -0.9905
 5851SOL     OW18236   1.725   0.910   3.518  0.4359  0.2067 -0.0449
 5851SOL    HW118237   1.710   0.844   3.450  1.9376 -1.1968  0.8960
 5851SOL    HW218238   1.662   0.979   3.498 -1.5487 -1.6811 -0.8363
 5852SOL     OW18239   0.801   5.189   3.314  0.2104 -0.3532  0.6528
 5852SOL    HW118240   0.891   5.164   3.337 -0.3097 -0.8872  2.2331
 5852SOL    HW218241   0.802   5.196   3.219  1.4339 -2.4760  0.4337
 5853SOL     OW18242   3.923   4.304   6.120  0.2225 -0.0214  0.5057
 5853SOL    HW118243   3.829   4.293   6.137  0.3134  0.3792  1.2714
 5853SOL    HW218244   3.950   4.375   6.177  0.9880 -0.0828  0.2322
 5854SOL     OW18245   3.823   5.738   4.135 -0.5123  0.2633 -0.0891
 5854SOL    HW118246   3.916   5.725   4.120 -0.4655  0.6290 -0.1267
 5854SOL    HW218247   3.787   5.649   4.144 -0.1404  0.1275  0.0700
 5855SOL     OW18248   2.658   2.259   0.661  0.2132 -0.6473  0.3632
 5855SOL    HW118249   2.703   2.198   0.602  1.0900  0.2000  0.1190
 5855SOL    HW218250   2.718   2.270   0.734 -1.0519 -2.0199  1.6767
 5856SOL     OW18251   2.002   1.420   3.250 -0.3441 -0.2794 -0.5276
 5856SOL    HW118252   1.980   1.512   3.235  0.0224  0.3156  2.1270
 5856SOL    HW218253   1.944   1.393   3.322 -0.7071 -2.2699 -1.4985
 5857SOL     OW18254   2.767   3.039   1.850 -0.6060  0.2519 -0.1107
 5857SOL    HW118255   2.732   2.965   1.801 -0.2540 -0.9864  1.4268
 5857SOL    HW218256   2.858   3.046   1.822 -0.2207 -0.8721  0.8314
 5858SOL     OW18257   3.280   0.224   2.177  0.3013 -0.3779  0.1043
 5858SOL    HW118258   3.368   0.251   2.205  0.1791 -1.8054  2.0242
 5858SOL    HW218259   3.223   0.253   2.248 -1.0714  1.7599 -1.7316
 5859SOL     OW18260   0.785   5.229   3.728  0.0557  0.0193  0.1920
 5859SOL    HW118261   0.751   5.221   3.817 -0.9321 -1.2734 -0.2715
 5859SOL    HW218262   0.724   5.178   3.674  2.5411 -2.2331 -0.7172
 5860SOL     OW18263   6.450   4.471   2.808 -0.0594  0.1190 -0.5872
 5860SOL    HW118264   6.412   4.426   2.733  0.9745 -0.3344 -0.8535
 5860SOL    HW218265   6.401   4.437   2.883 -1.4282  0.9378 -1.0773
 5861SOL     OW18266   1.905   4.552   2.600 -0.1818  0.0406 -0.2973
 5861SOL    HW118267   1.985   4.500   2.596 -0.5293 -0.4752 -0.6953
 5861SOL    HW218268   1.834   4.488   2.595 -0.6315  0.4467  0.5910
 5862SOL     OW18269   2.901   6.210   1.477  0.3265 -0.0288  0.4928
 5862SOL    HW118270   2.837   6.207   1.406  1.1595 -0.2798 -0.2719
 5862SOL    HW218271   2.849   6.202   1.557 -0.5843 -0.3360 -0.1141
 5863SOL     OW18272   4.618   3.088   2.642 -0.2556 -0.8713 -0.2161
 5863SOL    HW118273   4.622   3.124   2.731  0.7290  1.5744 -1.1678
 5863SOL    HW218274   4.532   3.111   2.610  0.1270  0.0650 -0.5882
 5864SOL     OW18275   5.316   4.871   5.396  0.3179 -0.0361 -0.3294
 5864SOL    HW118276   5.407   4.899   5.400  0.0634  0.7739  0.1091
 5864SOL    HW218277   5.268   4.942   5.440 -0.6670  0.2066 -1.7396
 5865SOL     OW18278   5.651   2.234   5.895 -0.1931 -0.2592  0.4671
 5865SOL    HW118279   5.613   2.221   5.982  1.2576 -1.5144  0.9617
 5865SOL    HW218280   5.714   2.305   5.907 -0.6715  0.2140  0.2062
 5866SOL     OW18281   3.215   6.463   2.559  0.0769 -0.2410  0.0458
 5866SOL    HW118282   3.139   6.419   2.520  0.1031 -0.4211  0.1993
 5866SOL    HW218283   3.242   6.526   2.492  0.5521 -1.0379 -0.5264
 5867SOL     OW18284   2.640   5.223   6.138 -0.1314  0.1666 -0.0434
 5867SOL    HW118285   2.649   5.232   6.043 -1.5656  1.4317 -0.1003
 5867SOL    HW218286   2.730   5.225   6.171  0.3140  2.2315 -1.2080
 5868SOL     OW18287   1.030   2.279   0.305 -0.4294 -0.3412 -0.3975
 5868SOL    HW118288   0.943   2.312   0.282 -0.6380  0.5393  1.4577
 5868SOL    HW218289   1.017   2.184   0.316 -1.0286 -0.3012 -0.6860
 5869SOL     OW18290   2.256   5.405   3.164  0.2257 -0.4114  0.2912
 5869SOL    HW118291   2.339   5.420   3.120 -1.2765  1.1601 -2.2642
 5869SOL    HW218292   2.189   5.426   3.099 -2.2170 -0.3068  2.6116
 5870SOL     OW18293   0.157   4.411   3.846 -0.1417 -0.4559  0.6534
 5870SOL    HW118294   0.160   4.357   3.767 -0.2837  0.7837 -0.2522
 5870SOL    HW218295   0.226   4.377   3.902 -0.3117 -1.6342  0.1714
 5871SOL     OW18296   4.110   1.052   5.446  0.3678 -0.4146 -0.6557
 5871SOL    HW118297   4.064   1.086   5.370 -1.8962 -1.7266  0.0279
 5871SOL    HW218298   4.159   0.976   5.414  0.1037 -0.4573 -0.9529
 5872SOL     OW18299   5.502   4.416   2.244  0.2493  0.6582 -0.0862
 5872SOL    HW118300   5.555   4.337   2.237 -2.1978 -1.1839  0.5088
 5872SOL    HW218301   5.561   4.483   2.279  2.4494 -0.8483 -0.7598
 5873SOL     OW18302   2.100   1.228   2.652  0.5453 -0.1716  0.2623
 5873SOL    HW118303   2.081   1.321   2.662 -0.4471 -0.1409 -1.4545
 5873SOL    HW218304   2.051   1.185   2.722  0.5598  0.5515  0.7244
 5874SOL     OW18305   2.314   4.350   1.203 -0.2077  0.2471 -0.5445
 5874SOL    HW118306   2.397   4.306   1.182  0.0760  0.4293  0.1629
 5874SOL    HW218307   2.257   4.330   1.129 -0.4857 -2.3376  0.2816
 5875SOL     OW18308   0.960   5.599   4.129 -0.1768  0.2539  0.3279
 5875SOL    HW118309   0.882   5.653   4.145 -1.1568 -1.2551  0.8514
 5875SOL    HW218310   0.980   5.561   4.214  0.1411 -0.6521 -0.1439
 5876SOL     OW18311   5.684   1.102   0.612  0.7319 -0.2410  0.7148
 5876SOL    HW118312   5.736   1.171   0.653 -0.0880  0.2304  0.9997
 5876SOL    HW218313   5.677   1.128   0.520  1.2791 -0.4889  0.5988
 5877SOL     OW18314   2.887   2.548   6.273 -0.0124 -0.1716  0.1859
 5877SOL    HW118315   2.889   2.558   6.178 -0.2479  0.0295  0.2035
 5877SOL    HW218316   2.974   2.515   6.295  2.0307  4.6298  0.4829
 5878SOL     OW18317   3.084   5.076   2.959  0.5071  0.2598  0.1706
 5878SOL    HW118318   3.171   5.062   2.997  0.5086  1.6286  0.7648
 5878SOL    HW218319   3.023   5.052   3.028  0.4600  0.7387  0.3013
 5879SOL     OW18320   3.165   5.857   2.653  0.3240  0.3221 -0.9205
 5879SOL    HW118321   3.106   5.867   2.728  0.4901 -0.6805 -0.6372
 5879SOL    HW218322   3.187   5.947   2.627  0.3773  0.6877  0.3222
 5880SOL     OW18323   4.047   1.667   6.495  0.0484 -0.2482  0.3166
 5880SOL    HW118324   3.984   1.739   6.501  1.3503  0.9307  0.4316
 5880SOL    HW218325   4.086   1.663   6.583  2.3028  1.1598 -0.5240
 5881SOL     OW18326   6.271   0.115   1.148 -0.4913 -0.0321  0.0995
 5881SOL    HW118327   6.200   0.178   1.157  0.3642  0.9983 -0.0898
 5881SOL    HW218328   6.350   0.166   1.169  0.5758 -0.1520 -3.1595
 5882SOL     OW18329   2.034   6.250   2.824  0.1765  0.0209 -0.3561
 5882SOL    HW118330   2.111   6.300   2.849 -0.0490  0.3123 -0.2391
 5882SOL    HW218331   2.069   6.172   2.780  0.5067  1.3050 -2.4924
 5883SOL     OW18332   6.189   5.587   4.888 -0.1049  0.8401  0.6604
 5883SOL    HW118333   6.277   5.604   4.856  0.4119  1.6199  2.3975
 5883SOL    HW218334   6.200   5.563   4.980 -1.5676 -0.8473  0.4731
 5884SOL     OW18335   4.429   5.224   5.112  0.0020 -0.4037 -0.2134
 5884SOL    HW118336   4.406   5.159   5.046 -0.5903 -1.5522  1.0657
 5884SOL    HW218337   4.523   5.211   5.127  0.0357 -0.4663 -0.4806
 5885SOL     OW18338   4.707   4.662   0.947  0.2593  0.1779  0.2107
 5885SOL    HW118339   4.687   4.699   1.033 -1.6027  0.6884 -0.4079
 5885SOL    HW218340   4.780   4.602   0.964  0.1008  0.4450  2.0949
 5886SOL     OW18341   1.617   5.899   2.996 -0.1894 -0.1268  0.7001
 5886SOL    HW118342   1.632   5.839   3.069 -0.6790 -0.4348  0.5453
 5886SOL    HW218343   1.556   5.853   2.939 -2.2202  1.3072  1.5889
 5887SOL     OW18344   2.628   6.357   0.438  0.9945 -0.1586  0.6153
 5887SOL    HW118345   2.632   6.304   0.359  0.4308  2.1628 -1.0882
 5887SOL    HW218346   2.718   6.386   0.453  1.1365 -0.7745  0.9399
 5888SOL     OW18347   0.270   4.091   1.859 -0.5292 -0.2047 -0.2087
 5888SOL    HW118348   0.227   4.122   1.779 -0.4249 -1.4535 -0.7762
 5888SOL    HW218349   0.307   4.006   1.835 -0.8841 -0.8219  1.3010
 5889SOL     OW18350   3.491   0.399   3.487  0.0950 -0.4448  0.0283
 5889SOL    HW118351   3.537   0.481   3.467 -0.1659  0.5346  3.0502
 5889SOL    HW218352   3.548   0.331   3.451  1.4275  0.9447 -0.6181
 5890SOL     OW18353   4.410   0.105   2.520 -0.0254 -0.1677 -0.4530
 5890SOL    HW118354   4.367   0.053   2.588  0.4481  0.9937  0.7802
 5890SOL    HW218355   4.494   0.061   2.506 -0.0202 -0.2692 -0.1133
 5891SOL     OW18356   3.672   4.897   3.886 -0.3625  0.0872 -0.2963
 5891SOL    HW118357   3.647   4.812   3.849  0.0303  0.1363 -0.6798
 5891SOL    HW218358   3.621   4.961   3.835 -2.1517 -0.0178  1.2743
 5892SOL     OW18359   2.348   5.036   5.484  0.3677  0.8053 -0.3372
 5892SOL    HW118360   2.363   5.094   5.409 -0.1219 -0.1246 -1.1744
 5892SOL    HW218361   2.435   5.021   5.520  0.5066  2.0169 -0.1345
 5893SOL     OW18362   0.998   6.191   4.519  0.4498 -0.5733 -0.3493
 5893SOL    HW118363   1.079   6.165   4.563  0.3476 -0.0321  0.1677
 5893SOL    HW218364   1.025   6.259   4.458  0.3520 -0.2226 -0.0054
 5894SOL     OW18365   1.759   5.237   3.924  0.2372  0.1429  0.1890
 5894SOL    HW118366   1.702   5.166   3.955 -0.3099  1.0580  1.3533
 5894SOL    HW218367   1.840   5.193   3.898 -1.2621 -1.3163 -2.3830
 5895SOL     OW18368   3.219   0.237   4.902  0.1427 -0.3316  0.6242
 5895SOL    HW118369   3.245   0.328   4.912 -0.0302 -0.0543 -1.1439
 5895SOL    HW218370   3.250   0.212   4.815 -0.8741 -1.5844  0.5806
 5896SOL     OW18371   5.897   6.476   3.049 -0.3970 -0.4436  0.1247
 5896SOL    HW118372   5.914   6.566   3.021 -0.8143 -0.4553 -0.1773
 5896SOL    HW218373   5.817   6.451   3.002  1.0979 -1.8798 -1.8541
 5897SOL     OW18374   2.740   5.152   5.360  0.3496  0.2191  0.2654
 5897SOL    HW118375   2.796   5.211   5.410  1.5536 -1.2519  0.7266
 5897SOL    HW218376   2.776   5.065   5.376 -1.8882 -0.7761  0.3303
 5898SOL     OW18377   4.967   6.417   1.927 -0.1348 -0.3124  0.1802
 5898SOL    HW118378   5.051   6.464   1.925 -0.3470  0.0597 -1.1052
 5898SOL    HW218379   4.988   6.332   1.965  0.3659  0.6082  2.0652
 5899SOL     OW18380   1.476   1.642   1.502 -0.2589  0.3809  0.6291
 5899SOL    HW118381   1.548   1.611   1.556  0.0649  0.8026  0.4424
 5899SOL    HW218382   1.429   1.704   1.557  0.9999  2.0409 -0.0731
 5900SOL     OW18383   6.402   1.182   1.686 -0.3522 -0.1633 -0.0067
 5900SOL    HW118384   6.438   1.257   1.638 -0.5582 -0.2423 -0.2923
 5900SOL    HW218385   6.379   1.119   1.617  2.1436 -1.5740  0.3322
 5901SOL     OW18386   3.101   4.931   2.228  0.3825  0.1274  0.2575
 5901SOL    HW118387   3.032   4.998   2.231 -0.9647 -1.2648  1.3017
 5901SOL    HW218388   3.163   4.959   2.295  1.5816  2.0723 -1.5156
 5902SOL     OW18389   4.075   2.872   0.163  0.5198 -0.2119  0.3673
 5902SOL    HW118390   4.006   2.853   0.227  1.2455  0.3680  1.3442
 5902SOL    HW218391   4.032   2.926   0.096 -0.2480 -0.8312  0.3423
 5903SOL     OW18392   1.365   5.516   3.664  0.1108  0.1861 -0.2493
 5903SOL    HW118393   1.433   5.484   3.723 -1.9062 -2.4905  0.8650
 5903SOL    HW218394   1.289   5.528   3.721 -1.3433 -0.4439 -1.9812
 5904SOL     OW18395   2.992   3.072   2.339  0.3156 -0.3279  0.0719
 5904SOL    HW118396   2.959   2.983   2.327 -1.1212  0.1560  0.2275
 5904SOL    HW218397   2.934   3.110   2.404  1.2412  0.5721  0.3981
 5905SOL     OW18398   1.473   1.891   4.622 -0.3642 -0.4873 -0.1581
 5905SOL    HW118399   1.410   1.845   4.566  0.3627 -1.2676 -0.3473
 5905SOL    HW218400   1.550   1.903   4.568  0.0297 -0.4660  0.3950
 5906SOL     OW18401   1.767   5.287   4.855  0.2134  0.1955 -0.3708
 5906SOL    HW118402   1.841   5.297   4.915  0.0059 -2.9136  0.5658
 5906SOL    HW218403   1.692   5.321   4.903  0.4478 -0.0512  0.1807
 5907SOL     OW18404   6.457   0.879   1.311 -0.0010 -0.0481  0.3682
 5907SOL    HW118405   6.540   0.926   1.305  0.8338 -1.6588 -1.9127
 5907SOL    HW218406   6.476   0.806   1.370  0.0719 -0.1560  0.2118
 5908SOL     OW18407   2.873   3.983   3.808 -0.0587  0.3318 -0.2713
 5908SOL    HW118408   2.913   4.057   3.853 -0.7129  0.4662  0.1109
 5908SOL    HW218409   2.913   3.906   3.849 -1.4545  0.4152  1.3881
 5909SOL     OW18410   2.022   1.466   6.458 -0.1049  0.0112  0.0919
 5909SOL    HW118411   1.964   1.533   6.494 -1.9335 -1.5865  0.3486
 5909SOL    HW218412   1.974   1.431   6.383  0.8145 -0.9772 -0.0618
 5910SOL     OW18413   0.742   5.464   2.163  0.2578 -0.5255  0.0162
 5910SOL    HW118414   0.680   5.424   2.224  2.1246 -2.0406  1.0483
 5910SOL    HW218415   0.787   5.389   2.123  1.5324  0.5215 -0.5643
 5911SOL     OW18416   3.952   1.409   3.935  0.0642 -0.5061 -0.2650
 5911SOL    HW118417   3.976   1.500   3.918  0.9915 -0.5004  0.9530
 5911SOL    HW218418   3.866   1.399   3.894  0.7207  0.3877 -1.9973
 5912SOL     OW18419   0.269   1.189   3.872 -0.0540  0.4772 -0.1839
 5912SOL    HW118420   0.182   1.150   3.879  0.5568 -0.7249  1.2994
 5912SOL    HW218421   0.256   1.280   3.896 -1.1635  0.7582 -1.6655
 5913SOL     OW18422   3.194   6.173   3.598 -0.4346  0.1699 -0.5055
 5913SOL    HW118423   3.121   6.122   3.562 -1.1963 -0.3826  1.6555
 5913SOL    HW218424   3.264   6.109   3.611 -0.5152  0.1627 -0.0978
 5914SOL     OW18425   3.624   0.519   4.298 -0.3974  0.0288  0.1042
 5914SOL    HW118426   3.594   0.604   4.267 -0.8166  0.2987  1.1806
 5914SOL    HW218427   3.545   0.473   4.324 -0.0236  0.2011  1.6492
 5915SOL     OW18428   3.554   5.070   2.079  0.0670  0.1624 -0.3097
 5915SOL    HW118429   3.489   5.134   2.107 -1.1751 -0.8157 -0.8782
 5915SOL    HW218430   3.633   5.093   2.128 -0.1299  2.5282 -0.9756
 5916SOL     OW18431   0.416   2.473   5.129 -0.0984  0.4777  0.0228
 5916SOL    HW118432   0.416   2.567   5.150  2.4150  0.4869  0.3799
 5916SOL    HW218433   0.379   2.431   5.206  2.3313  0.9967  1.5886
 5917SOL     OW18434   1.765   4.989   6.255  0.5149 -0.2428 -0.1238
 5917SOL    HW118435   1.751   5.066   6.310 -0.0936  1.4544 -2.4843
 5917SOL    HW218436   1.847   4.952   6.287  0.2518  0.7012  1.8122
 5918SOL     OW18437   2.520   3.910   4.686  0.2537 -0.0322  0.7392
 5918SOL    HW118438   2.434   3.918   4.646  0.3084  1.2202  0.8370
 5918SOL    HW218439   2.581   3.935   4.616  0.6566 -2.2219  0.2426
 5919SOL     OW18440   1.001   5.281   1.249  0.0968  0.1144 -0.8381
 5919SOL    HW118441   0.935   5.303   1.184  0.0448  1.1043 -0.4695
 5919SOL    HW218442   1.004   5.185   1.249 -1.1933  0.0581 -1.0001
 5920SOL     OW18443   3.463   4.451   0.030  1.1011  0.1527 -0.0535
 5920SOL    HW118444   3.558   4.456   0.039  1.0527 -0.0053  0.6221
 5920SOL    HW218445   3.448   4.404  -0.052  1.6068 -0.8115  0.3988
 5921SOL     OW18446   1.276   0.260   4.215  0.3343 -0.2368  0.6694
 5921SOL    HW118447   1.289   0.166   4.227 -1.0640 -0.2992  1.9444
 5921SOL    HW218448   1.263   0.271   4.121 -0.5314 -1.4655  0.6300
 5922SOL     OW18449   3.436   2.891   4.326 -0.1049 -0.5135 -0.2867
 5922SOL    HW118450   3.463   2.800   4.328  1.2935 -0.1543 -1.3152
 5922SOL    HW218451   3.502   2.937   4.379 -0.1527  0.0353 -0.6905
 5923SOL     OW18452   3.795   2.128   3.966  0.4515 -0.0327 -0.3572
 5923SOL    HW118453   3.808   2.200   3.904 -0.2871  0.6287  0.2285
 5923SOL    HW218454   3.861   2.063   3.942 -0.3528 -0.1687 -2.3561
 5924SOL     OW18455   2.498   5.644   3.852 -0.1653  0.5685 -0.0127
 5924SOL    HW118456   2.583   5.624   3.891 -0.1015 -2.8063 -1.5503
 5924SOL    HW218457   2.434   5.613   3.916 -0.1356 -0.6191 -0.5403
 5925SOL     OW18458   5.268   1.087   2.099 -0.6032  0.1920  0.4076
 5925SOL    HW118459   5.323   1.018   2.062 -1.7375 -0.1372 -0.7356
 5925SOL    HW218460   5.260   1.152   2.028 -0.1755  1.1501  1.2062
 5926SOL     OW18461   0.964   5.225   5.621  0.3303  0.6056 -0.0851
 5926SOL    HW118462   1.047   5.257   5.654 -0.4698  2.3279  0.3943
 5926SOL    HW218463   0.902   5.296   5.638 -1.3148 -0.7410 -0.1313
 5927SOL     OW18464   1.606   5.102   0.920 -0.1110  0.3701  0.0857
 5927SOL    HW118465   1.521   5.127   0.954  0.1549  0.3959  0.7583
 5927SOL    HW218466   1.648   5.184   0.897 -0.4853  0.3215 -0.8011
 5928SOL     OW18467   5.054   3.011   0.019 -0.1888  0.5192 -0.5807
 5928SOL    HW118468   4.983   3.075   0.029  0.4913  1.1006  0.8782
 5928SOL    HW218469   5.125   3.046   0.073 -0.1965 -2.0486  1.2978
 5929SOL     OW18470   4.605   1.841   2.478 -0.0038 -0.3280  0.0238
 5929SOL    HW118471   4.560   1.902   2.535  1.1904  1.2714 -0.6647
 5929SOL    HW218472   4.550   1.762   2.478 -0.2467 -0.2738  3.0237
 5930SOL     OW18473   3.831   1.220   4.726 -0.5084 -0.3490 -0.0026
 5930SOL    HW118474   3.888   1.172   4.666  1.6044  0.6680  1.0709
 5930SOL    HW218475   3.816   1.160   4.799  0.9667  0.0327  0.6710
 5931SOL     OW18476   0.814   1.723   3.606 -0.3537  0.3258 -0.1935
 5931SOL    HW118477   0.786   1.651   3.661  0.4369  0.6848  0.7132
 5931SOL    HW218478   0.771   1.708   3.522  1.1230 -2.1808 -0.6155
 5932SOL     OW18479   5.072   4.769   4.489  0.1213 -0.0515 -0.3198
 5932SOL    HW118480   5.076   4.685   4.535  0.0248  0.1152 -0.0042
 5932SOL    HW218481   5.129   4.758   4.413  1.2748  0.0763  0.5052
 5933SOL     OW18482   5.083   1.109   3.868 -0.2700  0.0538  0.0643
 5933SOL    HW118483   5.054   1.019   3.883 -2.0312 -0.2540 -3.9620
 5933SOL    HW218484   5.175   1.101   3.843  0.0502 -0.3707  1.2956
 5934SOL     OW18485   5.987   1.357   1.910  0.4796  0.1031  0.2019
 5934SOL    HW118486   5.925   1.430   1.911 -0.6146 -0.8028  0.5478
 5934SOL    HW218487   5.943   1.288   1.861  0.9267 -0.8018  1.0341
 5935SOL     OW18488   3.085   2.886   1.696  0.2875 -0.8997  0.4159
 5935SOL    HW118489   3.050   2.804   1.732  1.4484 -1.4739  0.2560
 5935SOL    HW218490   3.019   2.914   1.632  0.2019 -2.0716 -0.0258
 5936SOL     OW18491   6.394   0.609   2.847  0.4508  0.3320 -0.1613
 5936SOL    HW118492   6.475   0.650   2.819  0.6552 -0.7076 -1.1551
 5936SOL    HW218493   6.421   0.524   2.883 -0.3309 -0.9664 -2.4720
 5937SOL     OW18494   3.606   5.839   4.697  0.1481 -0.3531 -0.3202
 5937SOL    HW118495   3.553   5.760   4.695  0.4972 -0.6820  1.3928
 5937SOL    HW218496   3.543   5.910   4.708 -0.1062 -0.4646 -1.0275
 5938SOL     OW18497   4.113   0.866   1.463 -0.1571 -0.4794 -0.1595
 5938SOL    HW118498   4.175   0.885   1.533 -0.7863  0.3787  0.1776
 5938SOL    HW218499   4.084   0.777   1.480 -0.4162 -0.2311  0.7705
 5939SOL     OW18500   0.665   6.291   0.346  0.3745  0.7209 -0.2189
 5939SOL    HW118501   0.648   6.198   0.330  0.6469  0.6556 -0.1378
 5939SOL    HW218502   0.628   6.307   0.433  0.1843  0.7279 -0.3002
 5940SOL     OW18503   3.756   0.405   3.145 -0.2032  0.0805  0.4012
 5940SOL    HW118504   3.727   0.415   3.054  0.0469 -0.6051  0.2358
 5940SOL    HW218505   3.849   0.386   3.138 -0.5086 -1.6866  0.6780
 5941SOL     OW18506   5.078   2.988   2.810 -0.5715  0.1335 -0.1857
 5941SOL    HW118507   5.028   3.059   2.850  0.4340  1.0305 -0.5066
 5941SOL    HW218508   5.017   2.914   2.810 -1.6863  1.0211  0.0123
 5942SOL     OW18509   1.715   0.174   3.388 -0.0023  0.7458 -0.1413
 5942SOL    HW118510   1.782   0.109   3.369  1.2773  1.8649  0.3671
 5942SOL    HW218511   1.707   0.226   3.307  1.0776  1.7289  0.3512
 5943SOL     OW18512   1.709   0.002   0.331 -0.2014 -0.0653  0.3126
 5943SOL    HW118513   1.804  -0.013   0.338 -0.1284 -0.5442 -1.2813
 5943SOL    HW218514   1.701   0.092   0.299 -0.2830 -0.0207  0.4601
 5944SOL     OW18515   5.028   2.993   1.005  0.0800 -0.2873 -0.3113
 5944SOL    HW118516   5.054   2.919   1.061  1.5813 -0.2060 -0.8505
 5944SOL    HW218517   4.981   2.952   0.933  1.2697 -0.8045 -0.8314
 5945SOL     OW18518   5.887   5.798   3.159  0.4074 -0.1265  0.1446
 5945SOL    HW118519   5.859   5.709   3.139  0.2313  0.3673 -2.0748
 5945SOL    HW218520   5.982   5.791   3.169  0.3740 -0.5884  0.1786
 5946SOL     OW18521   1.595   4.451   2.096 -0.0993 -0.6773  0.3997
 5946SOL    HW118522   1.672   4.417   2.141  0.1620  0.9379  1.2559
 5946SOL    HW218523   1.602   4.417   2.007  1.5955 -0.5815  0.4700
 5947SOL     OW18524   3.193   1.849   3.852 -0.2755 -0.9573 -0.2828
 5947SOL    HW118525   3.116   1.805   3.888 -1.0403  0.2211 -0.4065
 5947SOL    HW218526   3.165   1.940   3.843  1.3138 -0.4074  0.1559
 5948SOL     OW18527   1.236   1.735   5.354 -0.2858 -0.2356 -0.2418
 5948SOL    HW118528   1.314   1.716   5.302 -0.1252  1.2275 -0.6048
 5948SOL    HW218529   1.166   1.749   5.290  0.2129  2.9241 -0.2609
 5949SOL     OW18530   2.246   2.323   1.715  0.0902 -0.4027  0.1999
 5949SOL    HW118531   2.201   2.351   1.635 -2.6696 -0.7964  1.5073
 5949SOL    HW218532   2.198   2.365   1.786  3.1726  0.8802  1.7122
 5950SOL     OW18533   0.416   0.253   1.444  0.6192  0.6165 -0.5898
 5950SOL    HW118534   0.405   0.343   1.473  1.9931  0.3330  0.9340
 5950SOL    HW218535   0.337   0.208   1.475  0.0309  1.2262 -1.1682
 5951SOL     OW18536   5.331   4.704   0.118  0.1901  0.1950  0.6885
 5951SOL    HW118537   5.291   4.780   0.075  1.7060  0.5654 -0.1338
 5951SOL    HW218538   5.333   4.727   0.211  0.9230  1.3158  0.4107
 5952SOL     OW18539   4.200   3.209   2.078 -0.8073  0.3730  0.3676
 5952SOL    HW118540   4.144   3.286   2.078 -0.6466  0.4898  0.1743
 5952SOL    HW218541   4.258   3.221   2.153  1.4033  2.0351 -1.4882
 5953SOL     OW18542   3.686   4.269   5.728  0.4567 -0.1683  0.3132
 5953SOL    HW118543   3.622   4.209   5.766  0.5938  1.7152  3.8938
 5953SOL    HW218544   3.766   4.216   5.720 -0.8914 -2.0441 -2.5900
 5954SOL     OW18545   5.481   4.473   0.036  0.0094  0.0175  0.0297
 5954SOL    HW118546   5.410   4.536   0.049 -0.1876  0.1482 -1.5484
 5954SOL    HW218547   5.449   4.393   0.078 -1.6954 -0.3177 -1.7383
 5955SOL     OW18548   4.450   5.277   4.607 -0.4390  0.5516 -0.0005
 5955SOL    HW118549   4.393   5.201   4.594 -0.7216  0.7123  0.2800
 5955SOL    HW218550   4.450   5.291   4.702  0.9155 -0.0907  0.1133
 5956SOL     OW18551   5.513   4.659   1.873 -0.1066  0.1124  0.2179
 5956SOL    HW118552   5.442   4.623   1.820 -0.4248  1.0426  0.0021
 5956SOL    HW218553   5.471   4.724   1.929  0.2691 -0.6512  1.4360
 5957SOL     OW18554   0.637   5.432   5.989 -0.5416 -0.2477  0.1216
 5957SOL    HW118555   0.606   5.500   5.930  2.0070  2.7063  1.9169
 5957SOL    HW218556   0.626   5.468   6.076  0.5060 -2.3457  1.2108
 5958SOL     OW18557   0.490   4.390   6.150 -0.0552 -0.0546 -0.0597
 5958SOL    HW118558   0.465   4.387   6.057 -0.8085 -0.7125  0.1537
 5958SOL    HW218559   0.486   4.299   6.179  0.0396  0.1637  0.6576
 5959SOL     OW18560   4.486   6.427   6.349  0.1124 -0.1744  0.3797
 5959SOL    HW118561   4.451   6.375   6.421  0.7546 -0.7887  0.2582
 5959SOL    HW218562   4.448   6.388   6.270 -0.4517  0.3874  0.3574
 5960SOL     OW18563   5.774   5.835   5.376 -0.2673  0.5773 -0.5273
 5960SOL    HW118564   5.846   5.873   5.325  0.3268 -0.4911 -0.5170
 5960SOL    HW218565   5.769   5.744   5.347 -0.9103  0.3521  0.2494
 5961SOL     OW18566   4.346   3.211   1.478 -0.4469 -0.2590  0.2190
 5961SOL    HW118567   4.305   3.187   1.561 -3.3400 -0.5719 -1.1983
 5961SOL    HW218568   4.391   3.132   1.450 -2.7875 -1.4808 -0.3363
 5962SOL     OW18569   2.078   4.558   1.874 -0.2532  0.1331 -0.1235
 5962SOL    HW118570   1.988   4.525   1.868  0.0083 -0.5564 -0.3019
 5962SOL    HW218571   2.070   4.640   1.924 -0.8220 -0.6038  1.0312
 5963SOL     OW18572   2.275   1.796   6.453 -0.3091 -0.0830 -0.2921
 5963SOL    HW118573   2.252   1.739   6.380 -0.5627 -0.5166  0.1238
 5963SOL    HW218574   2.370   1.804   6.447 -0.4712  1.4109 -1.7869
 5964SOL     OW18575   6.397   4.543   5.498 -0.4584 -0.2497  0.7197
 5964SOL    HW118576   6.457   4.488   5.548  0.0052 -0.5086 -0.0971
 5964SOL    HW218577   6.446   4.623   5.482 -0.1186 -0.6596 -0.3864
 5965SOL     OW18578   6.342   5.368   5.836 -0.2513  0.4165  0.1783
 5965SOL    HW118579   6.271   5.304   5.844 -0.1274  0.3504  0.7492
 5965SOL    HW218580   6.302   5.452   5.859 -0.4162  0.5554 -0.5809
 5966SOL     OW18581   4.108   5.329   1.837 -0.3219 -0.7462 -0.1406
 5966SOL    HW118582   4.072   5.273   1.768  0.0106 -1.2015  0.0508
 5966SOL    HW218583   4.097   5.278   1.917  1.5913 -1.3067 -0.1955
 5967SOL     OW18584   3.908   3.801   5.101  0.4348  0.0120  0.1013
 5967SOL    HW118585   3.894   3.875   5.161 -0.3575 -0.6508  0.7635
 5967SOL    HW218586   3.967   3.835   5.034  0.0826  1.2447  0.3925
 5968SOL     OW18587   3.322   5.116   6.220  0.2413  0.8233 -0.0094
 5968SOL    HW118588   3.392   5.167   6.261  0.2327 -0.3045  1.5555
 5968SOL    HW218589   3.273   5.080   6.294 -2.1022  1.6522 -1.0477
 5969SOL     OW18590   3.970   4.550   4.696  0.1911 -0.4823  0.1951
 5969SOL    HW118591   3.914   4.486   4.740 -0.4468  0.1768  0.3596
 5969SOL    HW218592   4.057   4.512   4.700  0.1098 -0.5529  1.8252
 5970SOL     OW18593   2.703   5.867   2.577  0.6906  0.2218 -0.3312
 5970SOL    HW118594   2.741   5.837   2.660  1.1223 -0.4123 -0.7453
 5970SOL    HW218595   2.736   5.805   2.512 -0.6444 -0.0468 -0.7897
 5971SOL     OW18596   5.287   1.636   1.434  0.0204  0.2232 -0.2947
 5971SOL    HW118597   5.279   1.585   1.354  0.7432 -0.1128 -0.1622
 5971SOL    HW218598   5.298   1.727   1.403 -2.1366  0.4637 -0.5110
 5972SOL     OW18599   5.446   2.647   2.852  0.2186 -0.0225 -0.0428
 5972SOL    HW118600   5.371   2.707   2.856 -0.6531 -1.0780  0.0653
 5972SOL    HW218601   5.506   2.679   2.919  0.6575  1.8559 -1.2833
 5973SOL     OW18602   5.495   0.175   2.607 -0.3046  0.3125 -0.2584
 5973SOL    HW118603   5.457   0.113   2.670  2.7671 -2.5707 -0.9560
 5973SOL    HW218604   5.426   0.190   2.543 -2.2263  0.2737  1.6959
 5974SOL     OW18605   1.027   0.024   2.965  0.2436 -0.1201  0.2949
 5974SOL    HW118606   1.041  -0.020   2.881  0.2389 -0.2570  0.3654
 5974SOL    HW218607   0.953   0.082   2.949  0.5837  0.2496  0.0578
 5975SOL     OW18608   2.029   5.119   3.316  0.4129 -0.2019 -0.0194
 5975SOL    HW118609   1.975   5.075   3.381 -0.4463 -0.4496 -0.8663
 5975SOL    HW218610   1.992   5.207   3.309  0.1266 -0.3568 -0.5674
 5976SOL     OW18611   3.326   5.247   2.147  0.2670 -0.1342 -0.4169
 5976SOL    HW118612   3.326   5.325   2.203  1.1502  1.0126 -1.9534
 5976SOL    HW218613   3.244   5.252   2.099  0.7279  0.3872 -1.1829
 5977SOL     OW18614   3.442   3.301   3.695 -0.4672  0.2281 -0.2891
 5977SOL    HW118615   3.437   3.220   3.747  0.0039  1.7083  2.2060
 5977SOL    HW218616   3.353   3.313   3.661 -1.0174 -0.3780  0.8779
 5978SOL     OW18617   4.973   3.140   1.550  0.2467 -0.1745  0.6840
 5978SOL    HW118618   4.941   3.068   1.604  1.1345  0.0904  1.6004
 5978SOL    HW218619   5.063   3.117   1.530  0.6759  0.8412  1.3193
 5979SOL     OW18620   5.762   6.171   6.388  0.0278  0.5372  0.0521
 5979SOL    HW118621   5.696   6.207   6.329 -1.1000 -0.6259  0.5504
 5979SOL    HW218622   5.759   6.076   6.373  1.2384  0.4192  0.4513
 5980SOL     OW18623   4.655   1.839   5.132  0.4039 -0.1493 -0.0719
 5980SOL    HW118624   4.721   1.894   5.089  0.8183  0.0543  0.7997
 5980SOL    HW218625   4.701   1.801   5.207 -0.4947  0.0678  0.6025
 5981SOL     OW18626   4.438   5.037   5.505  0.3144  0.8888 -0.3622
 5981SOL    HW118627   4.394   5.110   5.547  2.2720  2.7945 -1.4149
 5981SOL    HW218628   4.523   5.032   5.547  0.6161 -0.1189 -1.0295
 5982SOL     OW18629   3.352   0.654   5.384  0.1836  0.2060 -0.3871
 5982SOL    HW118630   3.447   0.667   5.379  0.5377 -2.1822 -1.6472
 5982SOL    HW218631   3.337   0.572   5.338 -2.0578 -1.5268  2.9724
 5983SOL     OW18632   6.503   3.519   1.605 -0.3297 -0.4877  0.4013
 5983SOL    HW118633   6.532   3.557   1.522 -1.0563 -1.3717 -0.2791
 5983SOL    HW218634   6.486   3.595   1.660 -1.6429  0.2206 -0.8948
 5984SOL     OW18635   2.611   6.053   0.878 -0.4340 -0.3448  0.2353
 5984SOL    HW118636   2.668   6.013   0.944  0.4182 -0.2204 -0.4085
 5984SOL    HW218637   2.537   5.992   0.872 -0.1208 -0.7915  0.7030
 5985SOL     OW18638   1.921   2.313   5.267 -0.7602 -0.3450  0.1074
 5985SOL    HW118639   1.840   2.359   5.290 -3.6249 -2.6211 -4.0696
 5985SOL    HW218640   1.924   2.237   5.325 -0.2779  0.8879  1.7724
 5986SOL     OW18641   5.297   4.203   3.555  0.0051  0.3718 -0.1510
 5986SOL    HW118642   5.238   4.277   3.536 -0.7123 -0.1026  0.2043
 5986SOL    HW218643   5.246   4.125   3.533  0.7541 -0.0328 -0.5062
 5987SOL     OW18644   3.741   5.998   0.228  0.2081 -0.1585  0.4492
 5987SOL    HW118645   3.661   6.043   0.254 -0.2148 -0.6467  0.0275
 5987SOL    HW218646   3.746   5.922   0.286  0.8190  0.3190  1.0335
 5988SOL     OW18647   5.684   5.500   0.392 -0.3004 -0.2414  0.3636
 5988SOL    HW118648   5.636   5.555   0.454  1.0279  1.7430 -0.2591
 5988SOL    HW218649   5.769   5.544   0.382 -0.7692  0.1827 -3.5893
 5989SOL     OW18650   3.177   3.432   2.188  0.0593 -0.5393 -0.1202
 5989SOL    HW118651   3.092   3.473   2.201  0.7159  0.9349 -0.1783
 5989SOL    HW218652   3.165   3.342   2.216 -1.6149 -0.4744 -0.5267
 5990SOL     OW18653   2.322   1.072   0.084  0.6725  0.3887 -0.1978
 5990SOL    HW118654   2.256   1.137   0.108  1.6434  0.7220  1.7546
 5990SOL    HW218655   2.273   1.003   0.039 -0.7169  1.4411 -0.3513
 5991SOL     OW18656   1.272   6.484   6.187  0.2602  0.1939 -0.1033
 5991SOL    HW118657   1.300   6.554   6.128  0.4754  0.2303  0.0449
 5991SOL    HW218658   1.348   6.427   6.196 -0.3979 -1.0221 -1.6002
 5992SOL     OW18659   6.125   4.236   5.853  0.2209 -0.3173 -0.2128
 5992SOL    HW118660   6.189   4.303   5.829 -1.4245  1.4706  0.1863
 5992SOL    HW218661   6.114   4.245   5.948 -2.1456  0.9046 -0.5333
 5993SOL     OW18662   2.393   2.087   2.308  0.2759  0.0549 -0.0956
 5993SOL    HW118663   2.306   2.127   2.302  0.8444  1.1739 -1.5018
 5993SOL    HW218664   2.408   2.050   2.221  0.8758 -0.8643  0.3889
 5994SOL     OW18665   2.238   0.771   6.142 -0.0274 -0.1177 -0.7506
 5994SOL    HW118666   2.237   0.686   6.185 -1.2211 -0.0807 -0.6697
 5994SOL    HW218667   2.329   0.783   6.114  0.2053 -1.3019 -0.5489
 5995SOL     OW18668   6.184   1.867   5.991 -0.3558 -0.2022 -0.2194
 5995SOL    HW118669   6.114   1.916   6.034  0.0231 -0.1952  0.3996
 5995SOL    HW218670   6.174   1.888   5.898  0.5496  2.0672  0.1355
 5996SOL     OW18671   5.538   5.718   5.983 -0.4362  0.0947  0.2313
 5996SOL    HW118672   5.626   5.685   6.003 -1.0526 -1.3666  0.6492
 5996SOL    HW218673   5.530   5.798   6.034  1.1067  0.9673 -0.7878
 5997SOL     OW18674   6.104   2.146   2.806  0.0055  0.5654  0.2888
 5997SOL    HW118675   6.017   2.110   2.789  0.4097 -0.5064  0.4116
 5997SOL    HW218676   6.094   2.241   2.792 -0.7730  0.2784 -1.3943
 5998SOL     OW18677   5.241   5.267   4.109 -0.1671  0.2329  0.2164
 5998SOL    HW118678   5.308   5.242   4.172  0.0069 -0.8940 -0.3861
 5998SOL    HW218679   5.264   5.355   4.081  3.2246 -1.3285 -2.6687
 5999SOL     OW18680   2.955   5.543   5.428  0.0946  0.3675 -0.2154
 5999SOL    HW118681   3.017   5.579   5.492  1.4634  1.4163 -2.0472
 5999SOL    HW218682   2.887   5.610   5.419  1.3058  1.4717 -1.7418
 6000SOL     OW18683   1.182   2.508   5.684 -0.0221  0.5686 -0.1492
 6000SOL    HW118684   1.163   2.455   5.761  0.3447 -0.7455 -0.9245
 6000SOL    HW218685   1.220   2.588   5.718 -1.0836  0.5771  1.0888
 6001SOL     OW18686   1.217   2.551   0.684 -0.2772  0.1544  0.3419
 6001SOL    HW118687   1.226   2.474   0.740 -2.7542  0.6281  1.5630
 6001SOL    HW218688   1.151   2.525   0.619 -0.9376  1.1402  0.6024
 6002SOL     OW18689   5.502   6.012   2.257 -0.1012  0.3636  0.1670
 6002SOL    HW118690   5.494   6.039   2.165 -0.7210  1.8334  0.6207
 6002SOL    HW218691   5.544   5.926   2.253 -0.1455  0.3804 -1.4911
 6003SOL     OW18692   5.463   4.659   0.582 -0.6422 -0.1766  0.4414
 6003SOL    HW118693   5.465   4.718   0.658 -0.8892 -0.5751  0.7574
 6003SOL    HW218694   5.387   4.604   0.597 -2.8257  1.9704 -1.7668
 6004SOL     OW18695   2.914   4.718   2.183 -0.1125  0.6180 -0.4170
 6004SOL    HW118696   2.975   4.771   2.234  1.5582 -2.2414  0.7937
 6004SOL    HW218697   2.915   4.758   2.096 -1.4039  4.3500  1.0827
 6005SOL     OW18698   1.125   0.894   1.400 -0.5443  0.0119  0.2929
 6005SOL    HW118699   1.103   0.949   1.476 -0.4491  1.0863 -0.4263
 6005SOL    HW218700   1.095   0.945   1.325  0.0315 -0.6992 -0.4280
 6006SOL     OW18701   6.270   2.861   0.100 -0.4796  0.3682  0.2451
 6006SOL    HW118702   6.270   2.921   0.026 -0.9727 -0.9356 -0.8428
 6006SOL    HW218703   6.244   2.777   0.063  0.3089 -0.5552  1.6998
 6007SOL     OW18704   3.167   6.452   0.799  0.2288  0.2677 -0.4825
 6007SOL    HW118705   3.078   6.447   0.766  0.8799  0.6199 -2.4278
 6007SOL    HW218706   3.202   6.364   0.785 -0.4754 -0.6178  2.5340
 6008SOL     OW18707   3.955   0.087   3.717  0.2478 -0.0948  0.2813
 6008SOL    HW118708   3.865   0.057   3.731  1.0678 -1.8659  2.4865
 6008SOL    HW218709   4.001   0.062   3.797  2.7500  0.5858 -0.8419
 6009SOL     OW18710   0.324   0.868   1.831 -0.0640 -0.4241  0.1911
 6009SOL    HW118711   0.327   0.793   1.891  2.2611 -0.6580 -0.0989
 6009SOL    HW218712   0.286   0.939   1.883  1.6863 -0.6760  1.9401
 6010SOL     OW18713   2.081   4.611   0.592  0.6812 -0.1548  0.0636
 6010SOL    HW118714   2.109   4.651   0.674  1.2574  0.3506 -0.3680
 6010SOL    HW218715   1.985   4.620   0.592  0.8121  1.4960 -0.1475
 6011SOL     OW18716   5.257   4.326   2.207 -0.2160  0.1914  0.2576
 6011SOL    HW118717   5.342   4.354   2.241 -0.0591  0.4482 -0.3234
 6011SOL    HW218718   5.277   4.250   2.152 -0.1414  1.1480 -1.0896
 6012SOL     OW18719   4.258   4.114   4.233 -0.3801 -0.5455 -0.6501
 6012SOL    HW118720   4.217   4.058   4.167  1.6085 -1.9398 -0.7933
 6012SOL    HW218721   4.342   4.073   4.250  0.3549  1.3794  0.6946
 6013SOL     OW18722   2.989   4.167   4.498 -0.2636 -0.3589  0.6190
 6013SOL    HW118723   3.069   4.205   4.461 -1.6547  1.8104 -0.4018
 6013SOL    HW218724   2.963   4.229   4.567 -1.8384 -0.1669 -0.1009
 6014SOL     OW18725   2.899   3.251   5.214  0.1069  0.1725  0.3063
 6014SOL    HW118726   2.908   3.344   5.234 -1.6351  0.0003  2.3069
 6014SOL    HW218727   2.837   3.219   5.280  1.1967 -2.5592  0.1263
 6015SOL     OW18728   3.455   1.473   0.954 -0.2127  0.3624  0.2525
 6015SOL    HW118729   3.435   1.469   0.861  0.0229  1.4132  0.1462
 6015SOL    HW218730   3.447   1.382   0.984 -3.5295  0.3920 -0.1124
 6016SOL     OW18731   4.674   0.275   4.146  0.0493  0.3147  0.0025
 6016SOL    HW118732   4.654   0.362   4.111  0.4134  0.8679  1.0941
 6016SOL    HW218733   4.646   0.281   4.238 -0.3309 -0.8778 -0.0246
 6017SOL     OW18734   3.416   5.232   1.080  0.3685 -0.1909 -0.3821
 6017SOL    HW118735   3.394   5.230   1.174 -0.6282  2.7169 -0.4161
 6017SOL    HW218736   3.351   5.175   1.039  0.2432 -0.7984  0.6360
 6018SOL     OW18737   2.675   1.104   4.871 -0.7227  0.5212  0.3527
 6018SOL    HW118738   2.705   1.017   4.842 -0.4551  0.9026 -0.5464
 6018SOL    HW218739   2.722   1.120   4.953  0.9086  0.7353 -0.5854
 6019SOL     OW18740   2.405   3.389   6.460 -0.3470  0.5708 -0.0033
 6019SOL    HW118741   2.421   3.407   6.368 -0.2837 -0.7098 -0.2567
 6019SOL    HW218742   2.438   3.300   6.474 -2.3968 -0.1366  0.7113
 6020SOL     OW18743   6.494   6.097   4.299 -0.7886  0.1736 -0.5724
 6020SOL    HW118744   6.498   6.078   4.205  0.9865 -2.8484 -0.0129
 6020SOL    HW218745   6.585   6.107   4.325 -1.2091  0.1823  0.9723
 6021SOL     OW18746   2.959   2.676   1.849  0.3141 -0.0760  0.5037
 6021SOL    HW118747   2.957   2.593   1.897 -0.2323 -0.9275 -0.8981
 6021SOL    HW218748   2.879   2.674   1.795  0.7652  0.9289 -0.2419
 6022SOL     OW18749   3.758   5.320   6.083 -0.0224 -0.1940  0.7258
 6022SOL    HW118750   3.810   5.241   6.070  2.3944  1.3795  0.0651
 6022SOL    HW218751   3.799   5.363   6.159 -0.6075  0.9007  0.4367
 6023SOL     OW18752   0.480   2.068   3.256  0.0680  0.5184  0.8103
 6023SOL    HW118753   0.539   2.064   3.181  1.1430 -0.5742  1.6715
 6023SOL    HW218754   0.497   2.153   3.296  1.2891  0.0979  1.2124
 6024SOL     OW18755   5.837   1.714   1.727  0.2502  0.8860 -0.2396
 6024SOL    HW118756   5.750   1.732   1.690 -1.4657 -0.8900  2.5534
 6024SOL    HW218757   5.887   1.677   1.654 -2.0264  0.0408 -1.4682
 6025SOL     OW18758   1.329   5.424   4.836 -0.9542 -0.3859 -0.3990
 6025SOL    HW118759   1.277   5.345   4.847 -1.8399  0.2954  0.4087
 6025SOL    HW218760   1.402   5.414   4.897 -0.6704 -0.8841 -0.8079
 6026SOL     OW18761   0.359   3.937   3.997  0.3594  0.2381 -0.3215
 6026SOL    HW118762   0.396   3.914   4.081 -1.0070  1.7540  0.7715
 6026SOL    HW218763   0.284   3.878   3.986  0.5923 -0.0215 -0.5277
 6027SOL     OW18764   4.169   3.385   4.288 -0.3310 -0.0087 -0.2655
 6027SOL    HW118765   4.089   3.343   4.255 -0.7044  0.2503  0.2795
 6027SOL    HW218766   4.214   3.417   4.210 -1.1614  0.5369 -0.5360
 6028SOL     OW18767   3.707   3.974   4.197  0.2059 -0.0124 -0.1617
 6028SOL    HW118768   3.736   3.996   4.285  1.5320 -1.0489 -0.3057
 6028SOL    HW218769   3.741   4.044   4.142  1.6104 -0.6939 -0.1844
 6029SOL     OW18770   2.513   1.130   6.063  0.1547  0.1856 -0.1281
 6029SOL    HW118771   2.425   1.166   6.078  0.3979 -0.0153  2.3097
 6029SOL    HW218772   2.570   1.207   6.056 -0.1294  0.3096 -1.1816
 6030SOL     OW18773   0.451   4.271   3.489  0.4522  0.2008 -0.5474
 6030SOL    HW118774   0.507   4.195   3.474 -0.5534 -0.3934 -1.4177
 6030SOL    HW218775   0.378   4.260   3.428 -0.2473  1.3337  0.0413
 6031SOL     OW18776   5.860   5.311   1.129  0.4019  0.0424  0.8889
 6031SOL    HW118777   5.883   5.390   1.178 -2.6042  0.8124  1.2763
 6031SOL    HW218778   5.944   5.270   1.108  2.1367  3.4855  0.3731
 6032SOL     OW18779   0.397   3.722   2.253  0.6056 -0.4191  0.3857
 6032SOL    HW118780   0.349   3.686   2.178  0.8431 -0.9312  0.4771
 6032SOL    HW218781   0.463   3.779   2.214  0.3397 -0.2106  0.2333
 6033SOL     OW18782   2.063   4.406   5.071 -0.0893 -0.9964  0.0560
 6033SOL    HW118783   2.078   4.396   4.977  1.2214  0.6163  0.0432
 6033SOL    HW218784   2.002   4.479   5.078  1.1951  0.0782  0.4701
 6034SOL     OW18785   2.179   5.812   4.770  0.8493  0.3381 -0.5926
 6034SOL    HW118786   2.175   5.732   4.823 -0.3150  0.8260  0.0940
 6034SOL    HW218787   2.225   5.785   4.690  1.5107 -0.7263  0.1138
 6035SOL     OW18788   4.036   4.115   4.005 -0.1959 -0.4607  0.3190
 6035SOL    HW118789   4.071   4.151   3.924  0.5649 -0.9292  0.4287
 6035SOL    HW218790   4.031   4.190   4.064  0.7784 -0.4018  0.3491
 6036SOL     OW18791   3.679   4.377   5.311 -0.3408  0.4096  0.2046
 6036SOL    HW118792   3.673   4.464   5.349  0.7111  0.4490  0.2966
 6036SOL    HW218793   3.773   4.362   5.298 -0.4777 -0.8479  0.5154
 6037SOL     OW18794   4.095   2.067   6.375  0.0256  0.0889 -0.2887
 6037SOL    HW118795   4.017   2.020   6.343 -0.3408  0.7883 -0.4503
 6037SOL    HW218796   4.169   2.018   6.339 -0.3116 -1.0855  0.5676
 6038SOL     OW18797   2.227   2.360   4.728  0.3078 -0.0659 -0.1362
 6038SOL    HW118798   2.178   2.282   4.755  1.1095  0.0503  1.7443
 6038SOL    HW218799   2.161   2.430   4.726 -0.5983 -0.8575 -2.6485
 6039SOL     OW18800   3.358   4.123   4.618  0.1982  0.9144  0.2573
 6039SOL    HW118801   3.454   4.128   4.625  0.2336  0.9377 -0.2024
 6039SOL    HW218802   3.327   4.201   4.664  0.3266  0.1621  1.6825
 6040SOL     OW18803   4.325   3.305   2.439 -0.3239 -0.7444 -0.4231
 6040SOL    HW118804   4.356   3.374   2.381  0.8387 -0.3353  0.6554
 6040SOL    HW218805   4.389   3.301   2.510 -0.0224 -3.3247 -0.7217
 6041SOL     OW18806   3.945   3.032   0.003  0.7048 -1.1013 -0.7005
 6041SOL    HW118807   3.934   3.121  -0.031  0.1685 -1.0772 -0.4701
 6041SOL    HW218808   3.954   2.977  -0.075 -0.5110 -1.0463 -0.8986
 6042SOL     OW18809   5.060   5.916   5.608 -0.3793 -0.4455 -0.1747
 6042SOL    HW118810   5.071   5.924   5.703  1.2738 -0.9112 -0.3060
 6042SOL    HW218811   5.149   5.916   5.573 -0.9911  1.8468 -1.9363
 6043SOL     OW18812   0.512   0.839   1.510  0.0573 -0.5010  0.1213
 6043SOL    HW118813   0.519   0.826   1.415 -0.8001 -0.9947  0.1181
 6043SOL    HW218814   0.601   0.829   1.542  0.8536  2.2292 -0.9180
 6044SOL     OW18815   5.775   2.704   1.147 -0.0739 -0.1309  0.1753
 6044SOL    HW118816   5.691   2.720   1.103 -0.3804 -0.8586  0.4744
 6044SOL    HW218817   5.835   2.766   1.108 -0.6938  0.2181 -0.2398
 6045SOL     OW18818   5.412   6.264   1.966 -0.0609 -0.2991  0.2458
 6045SOL    HW118819   5.458   6.180   1.970 -0.6844 -0.6700 -0.1862
 6045SOL    HW218820   5.457   6.313   1.898 -0.6393 -0.8855 -0.5906
 6046SOL     OW18821   3.973   5.845   0.501 -0.5678 -0.2526  0.0821
 6046SOL    HW118822   3.884   5.819   0.479 -0.4931 -0.9070  0.5253
 6046SOL    HW218823   4.022   5.837   0.419 -0.7722 -0.5489 -0.0113
 6047SOL     OW18824   5.688   0.773   2.539  0.5604  0.7049  0.1510
 6047SOL    HW118825   5.727   0.821   2.612  0.3864  0.4685  0.3990
 6047SOL    HW218826   5.644   0.698   2.579 -1.2606  1.6322  0.0377
 6048SOL     OW18827   2.478   4.067   4.940 -0.3938  0.5982  0.4974
 6048SOL    HW118828   2.402   4.123   4.957 -0.8066  0.1050  0.3027
 6048SOL    HW218829   2.450   4.009   4.869 -0.0006  0.0950  0.7444
 6049SOL     OW18830   4.078   2.569   1.876 -0.3714 -0.1741  0.1833
 6049SOL    HW118831   4.065   2.492   1.931 -2.1329  0.4052  0.6603
 6049SOL    HW218832   4.082   2.642   1.938 -0.6702  0.3040 -0.3511
 6050SOL     OW18833   1.590   5.252   6.121 -0.1585 -0.4930 -0.6811
 6050SOL    HW118834   1.616   5.249   6.213  0.1696  0.5324 -0.7248
 6050SOL    HW218835   1.561   5.342   6.107  0.8847 -0.3103 -1.8565
 6051SOL     OW18836   2.230   6.447   2.919 -0.1044  0.1556 -0.0794
 6051SOL    HW118837   2.285   6.525   2.910 -0.0138  0.0265 -0.7096
 6051SOL    HW218838   2.168   6.469   2.989  1.4873 -0.1420  1.5172
 6052SOL     OW18839   0.902   4.455   0.199  0.1808  0.4346 -0.6166
 6052SOL    HW118840   0.926   4.407   0.120 -0.2173 -0.3684 -0.2634
 6052SOL    HW218841   0.934   4.544   0.184  1.9558 -0.2078 -0.7997
 6053SOL     OW18842   3.415   3.435   1.298 -0.2887 -0.0983  0.0357
 6053SOL    HW118843   3.443   3.354   1.340 -1.0387  0.2137  1.1676
 6053SOL    HW218844   3.320   3.427   1.290 -0.5648  1.2137  1.4329
 6054SOL     OW18845   5.845   0.199   1.818 -0.7515 -0.2516  0.1393
 6054SOL    HW118846   5.811   0.137   1.883 -0.4512 -0.5710 -0.0047
 6054SOL    HW218847   5.798   0.280   1.836  0.2043  0.0193  1.5528
 6055SOL     OW18848   2.745   1.355   5.074 -0.8347 -0.0498  0.7622
 6055SOL    HW118849   2.652   1.375   5.082 -0.9098  0.4016 -0.9047
 6055SOL    HW218850   2.783   1.434   5.036  0.6493  0.5940  3.3439
 6056SOL     OW18851   3.821   4.280   1.077 -0.4298  0.3568  0.7360
 6056SOL    HW118852   3.757   4.232   1.130 -0.9488 -0.6812 -0.7393
 6056SOL    HW218853   3.777   4.294   0.993  0.6128  1.3048  0.3166
 6057SOL     OW18854   4.021   2.810   5.888 -0.1648 -0.2887  0.5160
 6057SOL    HW118855   3.988   2.891   5.926  0.0671 -1.0799  2.5382
 6057SOL    HW218856   4.077   2.773   5.955 -0.3660 -2.1972 -0.2916
 6058SOL     OW18857   1.088   6.497   4.563 -0.1406 -0.2062  0.1320
 6058SOL    HW118858   1.152   6.488   4.492 -2.2324 -2.2347 -1.6472
 6058SOL    HW218859   1.128   6.449   4.636  1.7618  1.3754  0.2310
 6059SOL     OW18860   1.031   6.352   6.187 -0.0346  0.4052 -0.0598
 6059SOL    HW118861   1.039   6.288   6.257  0.4373  1.8124  1.2034
 6059SOL    HW218862   1.116   6.396   6.183 -1.3615  3.5021  1.6944
 6060SOL     OW18863   4.685   1.901   1.626  0.8470  0.1726 -0.2024
 6060SOL    HW118864   4.751   1.848   1.582  0.3688 -1.0563  0.5230
 6060SOL    HW218865   4.683   1.983   1.576  2.7012  0.1302 -0.4041
 6061SOL     OW18866   1.892   2.348   4.150  0.0735 -0.2288  0.0805
 6061SOL    HW118867   1.848   2.396   4.220  0.5323  2.4119 -1.3141
 6061SOL    HW218868   1.820   2.315   4.095 -0.2487 -1.3857  1.1381
 6062SOL     OW18869   0.305   2.355   5.386  0.5297 -0.1797 -0.0852
 6062SOL    HW118870   0.385   2.307   5.363 -0.6425 -2.4024  0.1364
 6062SOL    HW218871   0.281   2.321   5.472 -0.3410  0.8997  0.1145
 6063SOL     OW18872   4.250   2.244   3.172  0.1462 -0.0366  0.2638
 6063SOL    HW118873   4.216   2.262   3.259  0.8242  0.2310  0.4788
 6063SOL    HW218874   4.314   2.174   3.185  0.2571  0.0089 -0.0222
 6064SOL     OW18875   4.816   2.809   3.475  0.1710 -0.1342 -0.2997
 6064SOL    HW118876   4.821   2.903   3.455  1.4898 -0.1437 -0.1244
 6064SOL    HW218877   4.724   2.786   3.461  0.2376  0.7015 -2.4674
 6065SOL     OW18878   2.651   4.264   6.031  0.4201  0.2977 -0.3455
 6065SOL    HW118879   2.729   4.232   6.077  0.8300 -2.3645 -2.6417
 6065SOL    HW218880   2.673   4.256   5.938 -2.4279 -0.0774 -1.0679
 6066SOL     OW18881   5.642   3.031   3.575  0.1231  0.5447  0.1565
 6066SOL    HW118882   5.721   2.988   3.540 -0.6593 -1.9779  1.2983
 6066SOL    HW218883   5.582   3.033   3.501  0.6232  0.8686 -0.2501
 6067SOL     OW18884   2.670   1.923   1.861 -0.0903 -0.5189  0.0395
 6067SOL    HW118885   2.726   1.894   1.788  0.1283  0.1732 -0.0745
 6067SOL    HW218886   2.688   1.860   1.931  3.6681  1.6706  1.3298
 6068SOL     OW18887   0.494   2.508   3.913  0.0705  0.1681  0.4006
 6068SOL    HW118888   0.532   2.504   4.001  1.6158  2.3854 -0.0857
 6068SOL    HW218889   0.453   2.422   3.901  1.5234 -0.9151  2.5195
 6069SOL     OW18890   5.173   2.961   3.383 -0.2130  0.4098 -0.7597
 6069SOL    HW118891   5.124   3.034   3.345 -1.3880 -1.1011 -2.3230
 6069SOL    HW218892   5.171   2.893   3.315  1.5785 -0.7812  0.2958
 6070SOL     OW18893   6.265   0.385   1.915 -0.0206  0.1614  0.1817
 6070SOL    HW118894   6.357   0.378   1.888  0.4218 -1.8584  1.9127
 6070SOL    HW218895   6.269   0.414   2.006 -1.0753 -0.3611  0.4080
 6071SOL     OW18896   5.882   3.383   6.086  0.1500 -0.3449 -0.3154
 6071SOL    HW118897   5.803   3.384   6.141 -0.0239  1.8862 -0.4779
 6071SOL    HW218898   5.876   3.302   6.036 -2.2497 -0.1097 -0.5540
 6072SOL     OW18899   1.409   6.095   3.039 -0.1460 -0.6817  0.3189
 6072SOL    HW118900   1.462   6.147   2.980 -0.4420 -1.4565 -0.6476
 6072SOL    HW218901   1.469   6.029   3.074  0.3521  0.5390  1.9175
 6073SOL     OW18902   2.563   4.642   3.608 -0.4423  0.5846 -0.0778
 6073SOL    HW118903   2.648   4.648   3.652  0.4567 -0.3922 -1.5616
 6073SOL    HW218904   2.512   4.580   3.661  0.8795 -1.1549 -0.7368
 6074SOL     OW18905   3.343   2.150   5.198 -0.2117 -0.1981  0.5412
 6074SOL    HW118906   3.398   2.129   5.273 -1.3767 -2.2116  0.9132
 6074SOL    HW218907   3.256   2.166   5.235 -0.7335 -0.8950 -0.3221
 6075SOL     OW18908   3.038   4.164   3.518  0.4602  0.1523  0.8509
 6075SOL    HW118909   3.108   4.147   3.581 -0.5182 -1.6142  1.5131
 6075SOL    HW218910   3.011   4.078   3.488 -0.7957  0.8532 -0.1331
 6076SOL     OW18911   3.955   0.127   3.375 -0.5338 -0.6292 -0.2419
 6076SOL    HW118912   3.959   0.137   3.470  0.0727 -2.4601 -0.0428
 6076SOL    HW218913   3.869   0.162   3.351 -0.8784 -0.5389  1.0209
 6077SOL     OW18914   0.838   4.868   0.145  0.1332 -0.0754 -0.0783
 6077SOL    HW118915   0.903   4.828   0.202 -0.3946  0.3737  0.8616
 6077SOL    HW218916   0.765   4.806   0.143  1.2187 -1.4597 -2.5784
 6078SOL     OW18917   0.343   4.520   6.360 -0.6573 -0.0856  0.1543
 6078SOL    HW118918   0.253   4.550   6.349 -0.8119 -0.4749  0.3551
 6078SOL    HW218919   0.365   4.480   6.275 -1.3906 -1.8655  0.7598
 6079SOL     OW18920   5.226   4.517   4.958  0.0660 -0.2207 -0.0668
 6079SOL    HW118921   5.192   4.591   4.907  2.4477  0.2647 -1.1000
 6079SOL    HW218922   5.168   4.444   4.938 -2.3247  1.3042  0.9489
 6080SOL     OW18923   1.015   0.795   3.058 -0.0037 -0.0337 -0.2121
 6080SOL    HW118924   0.958   0.774   2.983 -0.3160 -1.1232  0.3081
 6080SOL    HW218925   1.098   0.822   3.018  0.3849 -2.1715 -0.9839
 6081SOL     OW18926   2.925   0.385   6.424 -0.3248  0.1420 -0.3530
 6081SOL    HW118927   2.960   0.454   6.481 -0.0946 -0.8147  0.6832
 6081SOL    HW218928   2.954   0.411   6.336  1.4799  0.3455  0.2504
 6082SOL     OW18929   1.785   1.821   1.103 -0.1020 -0.0707 -0.3080
 6082SOL    HW118930   1.846   1.893   1.089 -0.3159  0.4301  1.1286
 6082SOL    HW218931   1.773   1.819   1.198 -3.8330  1.1281 -0.6136
 6083SOL     OW18932   6.332   4.303   1.747 -0.3809 -0.0287  0.8712
 6083SOL    HW118933   6.323   4.339   1.659 -0.1634 -1.9899  0.0080
 6083SOL    HW218934   6.294   4.370   1.804  1.4188  2.2798 -0.4427
 6084SOL     OW18935   1.117   2.084   5.211  0.1100  0.0245 -0.2184
 6084SOL    HW118936   1.054   2.156   5.219 -0.2699 -0.2038 -1.0068
 6084SOL    HW218937   1.140   2.082   5.118  0.0352 -0.9319 -0.2318
 6085SOL     OW18938   1.366   2.218   3.145  0.6231  0.3129 -0.5209
 6085SOL    HW118939   1.288   2.194   3.095  0.8064 -0.6490 -0.3677
 6085SOL    HW218940   1.431   2.152   3.121  0.0183 -1.7207  2.7288
 6086SOL     OW18941   5.691   4.512   4.386 -0.1158 -0.4372  0.0845
 6086SOL    HW118942   5.786   4.514   4.402 -0.1319  1.4661  0.1641
 6086SOL    HW218943   5.678   4.433   4.334  1.4284 -1.0539  0.5606
 6087SOL     OW18944   2.501   4.919   3.455 -0.0890  0.1132 -0.6104
 6087SOL    HW118945   2.422   4.959   3.492  0.9089  2.5244 -0.9017
 6087SOL    HW218946   2.531   4.860   3.524 -0.8452  0.9767  0.5161
 6088SOL     OW18947   4.911   3.512   2.575  0.0439 -0.0991 -0.3196
 6088SOL    HW118948   4.968   3.436   2.589 -0.2866  0.1605  3.4263
 6088SOL    HW218949   4.907   3.555   2.660  0.6529  4.5603 -2.3630
 6089SOL     OW18950   0.053   4.506   0.155  0.1578  0.3116 -0.3698
 6089SOL    HW118951   0.020   4.427   0.113 -0.4528  0.5792 -0.4097
 6089SOL    HW218952   0.083   4.561   0.082 -0.2479  0.4816 -0.4146
 6090SOL     OW18953   5.119   4.969   2.064 -0.0563 -0.4538 -0.1195
 6090SOL    HW118954   5.054   5.020   2.016  0.9263  1.2795  0.3009
 6090SOL    HW218955   5.091   4.974   2.155  1.1887  1.2845  0.2349
 6091SOL     OW18956   6.181   0.509   1.260 -0.3814  0.2381 -0.0958
 6091SOL    HW118957   6.160   0.416   1.250 -1.3364  0.3540  0.7488
 6091SOL    HW218958   6.181   0.524   1.354 -1.5652  1.3825 -0.2525
 6092SOL     OW18959   1.368   2.835   5.421  0.0846  0.1836  0.7314
 6092SOL    HW118960   1.451   2.873   5.449  0.3687  0.5237 -0.4836
 6092SOL    HW218961   1.391   2.778   5.347 -0.7440  0.2417  0.4112
 6093SOL     OW18962   5.631   4.905   4.371 -0.0845  0.1036 -0.4879
 6093SOL    HW118963   5.560   4.940   4.425 -0.0819  1.1277 -1.1189
 6093SOL    HW218964   5.641   4.969   4.300  0.5688 -0.7132 -1.1534
 6094SOL     OW18965   6.407   5.820   4.950  0.1831 -0.4295  0.1906
 6094SOL    HW118966   6.466   5.894   4.967 -1.2648  0.8538 -0.1591
 6094SOL    HW218967   6.454   5.764   4.888  0.8594  0.7956 -0.4228
 6095SOL     OW18968   0.689   2.905   5.231 -0.3561  0.1859 -0.0282
 6095SOL    HW118969   0.743   2.873   5.303 -1.0127  1.6517  1.1810
 6095SOL    HW218970   0.693   2.836   5.165  0.0541 -1.3382  1.5142
 6096SOL     OW18971   3.307   5.265   3.749  0.6014 -0.0910  0.5599
 6096SOL    HW118972   3.263   5.302   3.673  0.5625 -1.1419  0.0528
 6096SOL    HW218973   3.339   5.341   3.798 -1.6175  0.7044  0.8793
 6097SOL     OW18974   3.421   6.014   2.485 -0.5014 -0.2013 -0.3837
 6097SOL    HW118975   3.510   5.987   2.461 -0.9244 -1.2792 -0.7850
 6097SOL    HW218976   3.364   5.961   2.430 -1.4044  0.4020 -0.0517
 6098SOL     OW18977   3.267   5.578   1.975 -0.3565 -0.3249 -0.0167
 6098SOL    HW118978   3.190   5.618   1.934 -0.8643 -0.4224  0.8147
 6098SOL    HW218979   3.289   5.636   2.048  0.0457 -0.5695  0.0625
 6099SOL     OW18980   3.361   1.627   4.492 -0.0627 -0.3128 -0.5466
 6099SOL    HW118981   3.306   1.555   4.522 -1.6635  1.1086  0.0538
 6099SOL    HW218982   3.432   1.584   4.443 -1.4940 -2.2196 -1.0568
 6100SOL     OW18983   4.917   0.792   0.695 -0.3621 -0.1921 -0.3547
 6100SOL    HW118984   4.828   0.801   0.729 -0.4619 -2.6679  0.2463
 6100SOL    HW218985   4.969   0.765   0.771  0.8833  0.9835 -0.7475
 6101SOL     OW18986   3.883   4.611   1.314  0.1842  0.7162  0.2170
 6101SOL    HW118987   3.892   4.557   1.235 -2.3690  1.5579 -0.7596
 6101SOL    HW218988   3.861   4.550   1.383  0.3175  0.1859 -0.1997
 6102SOL     OW18989   1.337   2.900   0.122  0.5697  0.2463  0.1461
 6102SOL    HW118990   1.350   2.990   0.152  0.2000  1.0277 -1.8597
 6102SOL    HW218991   1.331   2.907   0.027  0.0669 -1.8603 -0.0373
 6103SOL     OW18992   2.088   1.860   2.741  0.6437 -0.0831  0.1093
 6103SOL    HW118993   2.025   1.920   2.699  0.1242 -0.2470  0.6390
 6103SOL    HW218994   2.162   1.857   2.680  0.7679  1.2570  0.1593
 6104SOL     OW18995   5.782   2.884   2.642 -0.0918 -0.3244 -0.4721
 6104SOL    HW118996   5.722   2.813   2.619  0.4881 -1.1633  0.5099
 6104SOL    HW218997   5.855   2.840   2.687  0.4220  0.8643 -0.1068
 6105SOL     OW18998   6.448   2.650   1.256  0.3579 -0.0426  0.1794
 6105SOL    HW118999   6.356   2.675   1.249  0.9672  2.1035 -0.9757
 6105SOL    HW219000   6.475   2.680   1.343  0.3452  0.7819 -0.0946
 6106SOL     OW19001   0.319   4.120   4.413 -0.2008 -0.2890 -0.4137
 6106SOL    HW119002   0.344   4.140   4.503  1.3440  1.5711 -1.1815
 6106SOL    HW219003   0.226   4.141   4.408 -0.2887 -0.3694  0.7134
 6107SOL     OW19004   4.066   4.878   1.838  0.0688  0.1438  0.0562
 6107SOL    HW119005   4.159   4.864   1.853  1.0776  1.2887 -3.9945
 6107SOL    HW219006   4.026   4.791   1.849  1.9239 -0.7485  0.0483
 6108SOL     OW19007   6.382   1.882   1.531  0.0568 -0.0049 -0.1271
 6108SOL    HW119008   6.368   1.923   1.446  1.5213 -0.1862 -0.4900
 6108SOL    HW219009   6.436   1.944   1.580 -0.2323 -0.1815  0.4322
 6109SOL     OW19010   4.787   4.128   1.335  0.3288 -0.5321  0.1963
 6109SOL    HW119011   4.710   4.180   1.356 -2.1861 -3.6723 -0.4726
 6109SOL    HW219012   4.783   4.114   1.241  2.0759 -0.3232  0.0529
 6110SOL     OW19013   3.654   5.934   5.255 -0.3083 -0.4048 -0.2329
 6110SOL    HW119014   3.725   5.876   5.285 -0.4566  0.0327  0.9973
 6110SOL    HW219015   3.592   5.875   5.212 -0.9771 -1.3598  1.9278
 6111SOL     OW19016   4.843   1.958   4.773 -0.5404  0.6557 -0.1844
 6111SOL    HW119017   4.764   1.991   4.817 -0.9178  0.1463 -0.4661
 6111SOL    HW219018   4.915   1.997   4.822 -0.9674  1.6014 -0.2856
 6112SOL     OW19019   4.304   4.108   1.735  0.7814  0.3339 -0.3864
 6112SOL    HW119020   4.325   4.037   1.676  2.3508 -0.8232  1.4519
 6112SOL    HW219021   4.254   4.170   1.682  1.0789 -1.1930 -2.5489
 6113SOL     OW19022   2.330   0.122   4.469 -0.0707  0.2505 -0.6138
 6113SOL    HW119023   2.248   0.172   4.468  0.2148  0.7226 -0.5988
 6113SOL    HW219024   2.398   0.189   4.465  0.3005 -0.1809 -1.5794
 6114SOL     OW19025   1.242   3.214   4.184  0.2036 -0.3076  0.2849
 6114SOL    HW119026   1.319   3.159   4.167 -0.2711 -0.5665 -1.1607
 6114SOL    HW219027   1.228   3.207   4.278 -0.1595 -3.1376  0.0982
 6115SOL     OW19028   4.664   5.022   5.701 -0.0986  0.5815  0.0157
 6115SOL    HW119029   4.676   4.959   5.773 -1.4581 -0.0302 -0.2660
 6115SOL    HW219030   4.744   5.074   5.702  0.5977 -0.4482  0.9564
 6116SOL     OW19031   4.648   3.155   2.992 -0.4867  0.0354 -0.0466
 6116SOL    HW119032   4.587   3.087   3.021  0.1760 -0.4779  0.1625
 6116SOL    HW219033   4.610   3.236   3.024 -0.4971 -0.3849  1.0417
 6117SOL     OW19034   6.374   5.164   3.809 -0.0703  0.7197 -0.2888
 6117SOL    HW119035   6.328   5.130   3.886  1.3627  0.1105  0.3430
 6117SOL    HW219036   6.349   5.105   3.738 -0.2900  0.3997  0.0469
 6118SOL     OW19037   5.128   4.656   3.723  0.1556  0.2591  0.6236
 6118SOL    HW119038   5.042   4.698   3.733  0.2034  0.0674  2.0487
 6118SOL    HW219039   5.186   4.726   3.694 -0.1248  0.8113  1.3576
 6119SOL     OW19040   1.857   5.173   0.325 -0.5577 -0.4158 -0.0424
 6119SOL    HW119041   1.782   5.231   0.335 -0.5591 -0.2248 -1.0818
 6119SOL    HW219042   1.875   5.173   0.231 -1.0249 -2.6972 -0.1798
 6120SOL     OW19043   1.103   3.310   0.458  0.4619  0.4200  0.1362
 6120SOL    HW119044   1.047   3.299   0.381  0.1993 -0.9661  0.4997
 6120SOL    HW219045   1.123   3.221   0.486  2.1188  0.8912  0.5605
 6121SOL     OW19046   5.297   4.810   0.366 -0.2576 -0.2368 -0.3650
 6121SOL    HW119047   5.223   4.787   0.423 -1.5788 -0.2011 -1.9718
 6121SOL    HW219048   5.371   4.820   0.426 -1.9886  1.8913  1.6571
 6122SOL     OW19049   3.632   6.256   6.513 -0.6661 -0.0987  0.4637
 6122SOL    HW119050   3.591   6.326   6.565 -0.1608 -0.8652  1.9517
 6122SOL    HW219051   3.565   6.189   6.506 -0.2808 -0.5915  1.3581
 6123SOL     OW19052   0.001   0.077   2.205  0.2468 -0.5629  0.6668
 6123SOL    HW119053   0.041   0.007   2.154 -0.1778 -3.1271  3.5149
 6123SOL    HW219054  -0.091   0.078   2.177  0.5908 -0.0784 -0.4567
 6124SOL     OW19055   5.044   1.824   5.711 -0.3099  0.3005 -0.1201
 6124SOL    HW119056   5.011   1.867   5.632  1.2356  0.8748 -0.4824
 6124SOL    HW219057   5.021   1.884   5.782  1.7346  1.7628 -0.6097
 6125SOL     OW19058   3.527   3.835   1.805  0.2169 -0.3265  0.6278
 6125SOL    HW119059   3.445   3.862   1.844  0.4831  0.8461  0.3988
 6125SOL    HW219060   3.517   3.741   1.790 -1.5548  0.0044 -0.5107
 6126SOL     OW19061   0.778   2.197   6.404  0.2618  0.6949 -0.1766
 6126SOL    HW119062   0.740   2.188   6.491  1.4305  0.8122  0.3630
 6126SOL    HW219063   0.790   2.291   6.392  0.6007  0.6461 -0.2391
 6127SOL     OW19064   3.689   4.174   6.463  0.3836 -0.7496 -0.0693
 6127SOL    HW119065   3.715   4.266   6.455 -0.6927 -0.3593  0.6687
 6127SOL    HW219066   3.770   4.125   6.450  0.9204  0.2885 -0.7717
 6128SOL     OW19067   1.371   6.295   3.678  0.3754  0.1884 -0.2318
 6128SOL    HW119068   1.395   6.206   3.704 -1.3362  0.2034  1.6751
 6128SOL    HW219069   1.297   6.284   3.619  0.6949  0.3316 -0.6616
 6129SOL     OW19070   1.283   1.718   0.824  0.2682 -0.2050  0.0007
 6129SOL    HW119071   1.328   1.647   0.779  0.3380 -0.4513  0.4470
 6129SOL    HW219072   1.293   1.794   0.767  0.7528 -0.3992 -0.1757
 6130SOL     OW19073   1.364   3.010   4.906 -0.0101 -0.1405 -0.1241
 6130SOL    HW119074   1.450   2.974   4.887  0.1966  0.0332  0.4334
 6130SOL    HW219075   1.379   3.069   4.980 -0.8350 -1.1607  0.8944
 6131SOL     OW19076   4.101   0.629   1.851 -0.5678 -0.0774  0.4129
 6131SOL    HW119077   4.193   0.640   1.829 -0.7005  1.3316  0.4366
 6131SOL    HW219078   4.093   0.539   1.883  0.8649 -0.0850  0.7814
 6132SOL     OW19079   4.141   5.739   5.366  0.1976 -0.3637  0.1368
 6132SOL    HW119080   4.118   5.674   5.432  0.4670  1.0195  1.6491
 6132SOL    HW219081   4.234   5.757   5.381  0.4221 -0.4328 -1.0156
 6133SOL     OW19082   0.522   2.729   2.195 -0.0908  0.6316  0.2744
 6133SOL    HW119083   0.449   2.718   2.134 -0.8030  0.2197  1.1775
 6133SOL    HW219084   0.504   2.812   2.238  0.0754  0.6217  0.3620
 6134SOL     OW19085   1.744   2.421   0.581  0.0998 -0.1598 -0.1227
 6134SOL    HW119086   1.741   2.464   0.495  0.7964 -2.7980 -1.5526
 6134SOL    HW219087   1.834   2.390   0.590 -0.6746 -2.5131  0.1524
 6135SOL     OW19088   0.482   4.030   4.882 -0.0883 -0.5932 -0.1052
 6135SOL    HW119089   0.411   4.086   4.913  0.3157 -0.3734  0.4343
 6135SOL    HW219090   0.545   4.090   4.844  0.0995 -0.7293 -0.0094
 6136SOL     OW19091   2.328   3.073   3.801 -0.0160 -0.5521  0.3061
 6136SOL    HW119092   2.371   3.147   3.761 -1.0061  0.6590  1.3779
 6136SOL    HW219093   2.398   3.025   3.846  0.3428  1.0299  1.5095
 6137SOL     OW19094   4.582   1.943   0.228  0.4301  0.4937 -0.1560
 6137SOL    HW119095   4.553   1.913   0.143  0.1346 -1.1062  0.4853
 6137SOL    HW219096   4.675   1.963   0.217  0.4059  0.2307 -0.8169
 6138SOL     OW19097   6.244   0.186   5.579  0.4168  0.2634  0.0972
 6138SOL    HW119098   6.320   0.229   5.541  0.1215 -0.1652 -1.0425
 6138SOL    HW219099   6.183   0.257   5.600 -0.4046  0.4446 -2.5095
 6139SOL     OW19100   1.777   1.062   5.155 -0.0042  0.4355 -0.0189
 6139SOL    HW119101   1.817   1.125   5.216  2.8083  0.5261 -1.8112
 6139SOL    HW219102   1.765   1.112   5.074  0.3639 -0.7893 -0.8456
 6140SOL     OW19103   5.279   3.777   5.862 -0.0322  0.3237  0.2808
 6140SOL    HW119104   5.374   3.782   5.853 -0.0388  1.4819  0.6711
 6140SOL    HW219105   5.246   3.852   5.813 -0.9018 -1.1689 -1.5306
 6141SOL     OW19106   2.524   3.952   5.543 -0.1004  0.2399 -0.3944
 6141SOL    HW119107   2.568   3.915   5.620  0.0932 -0.2498 -0.7355
 6141SOL    HW219108   2.595   3.973   5.482 -0.1958  1.3176 -0.1545
 6142SOL     OW19109   3.156   3.824   1.114 -0.0942 -0.0980  0.5563
 6142SOL    HW119110   3.224   3.811   1.047 -0.3862 -0.5524  0.3519
 6142SOL    HW219111   3.091   3.879   1.071 -1.6823 -2.6811 -0.5097
 6143SOL     OW19112   4.547   0.581   0.964  0.4087 -0.1924  0.0002
 6143SOL    HW119113   4.474   0.540   0.918 -0.5098  1.6464 -0.2778
 6143SOL    HW219114   4.551   0.535   1.048 -1.1070 -0.2876  0.0436
 6144SOL     OW19115   0.520   2.057   1.750  0.0368  0.0267 -0.5085
 6144SOL    HW119116   0.558   1.970   1.758 -2.3915 -1.1300 -0.6966
 6144SOL    HW219117   0.529   2.096   1.836  1.3392 -0.2961 -0.4786
 6145SOL     OW19118   4.174   5.191   2.512  0.1904  0.5245 -0.5533
 6145SOL    HW119119   4.085   5.224   2.523  0.0296  0.1283 -0.6256
 6145SOL    HW219120   4.230   5.261   2.545 -0.1730  0.5139  0.1138
 6146SOL     OW19121   0.983   3.356   5.463  0.4943 -0.0992 -0.3583
 6146SOL    HW119122   0.929   3.389   5.391 -0.3175  0.4935  0.4965
 6146SOL    HW219123   0.929   3.289   5.505 -0.0974  1.2673  1.1890
 6147SOL     OW19124   4.549   2.302   0.555  0.5985  0.5635 -0.6973
 6147SOL    HW119125   4.502   2.379   0.588  2.6900  1.3068  0.7536
 6147SOL    HW219126   4.550   2.314   0.460  1.4759  2.7565 -0.4801
 6148SOL     OW19127   5.945   3.657   4.128 -0.3418  0.1410  0.4355
 6148SOL    HW119128   5.933   3.599   4.203 -0.1772 -0.4688 -0.0014
 6148SOL    HW219129   6.040   3.667   4.121 -0.4025  1.2667  1.1099
 6149SOL     OW19130   0.001   2.474   5.635 -0.1636  0.9610 -0.0778
 6149SOL    HW119131   0.028   2.399   5.687 -0.2642 -0.3292 -1.8090
 6149SOL    HW219132  -0.001   2.442   5.545 -1.3545  2.7229 -0.7385
 6150SOL     OW19133   3.562   1.380   0.016  0.2900 -0.2491  0.1062
 6150SOL    HW119134   3.656   1.396   0.015  0.1582  0.5815  0.0169
 6150SOL    HW219135   3.532   1.409  -0.071 -0.0928 -0.1967  0.2525
 6151SOL     OW19136   0.064   0.492   1.498 -0.4030  0.4965 -0.1626
 6151SOL    HW119137   0.109   0.505   1.415  0.7991 -0.4325  0.3043
 6151SOL    HW219138   0.060   0.580   1.537 -0.9125  0.9271 -1.1467
 6152SOL     OW19139   1.265   2.050   0.896 -0.5300 -0.3324 -0.0012
 6152SOL    HW119140   1.283   2.016   0.809 -0.0371 -0.1368  0.0214
 6152SOL    HW219141   1.182   2.010   0.921 -0.7884 -0.2066 -0.6540
 6153SOL     OW19142   1.660   5.289   1.740  0.4650  0.3470  0.6200
 6153SOL    HW119143   1.614   5.235   1.675  0.0793  0.1979  1.0118
 6153SOL    HW219144   1.734   5.326   1.692  0.0082  0.4897  0.0037
 6154SOL     OW19145   2.028   0.772   3.586  0.2430  0.1845 -0.6476
 6154SOL    HW119146   2.031   0.746   3.494  1.7184  1.1181 -0.8880
 6154SOL    HW219147   2.107   0.733   3.624 -0.6393 -0.6599  0.3788
 6155SOL     OW19148   1.193   0.427   1.747  0.2623  0.2190  0.4867
 6155SOL    HW119149   1.153   0.498   1.697 -0.2617 -0.9763 -0.8610
 6155SOL    HW219150   1.224   0.365   1.680  2.2009 -0.0503  1.5629
 6156SOL     OW19151   6.188   3.963   4.217  0.3381  0.5089  0.3151
 6156SOL    HW119152   6.181   3.925   4.130  2.0613  0.6067  0.0973
 6156SOL    HW219153   6.210   4.055   4.201  1.9552  0.2407  0.8217
 6157SOL     OW19154   1.015   4.967   5.709 -0.2035 -0.4741 -0.2562
 6157SOL    HW119155   0.929   4.931   5.685 -0.2133  0.1225 -1.1841
 6157SOL    HW219156   1.010   5.059   5.682 -0.7391  0.7439  3.3914
 6158SOL     OW19157   2.619   3.868   0.184  0.4087 -0.3301 -0.1026
 6158SOL    HW119158   2.632   3.820   0.103 -0.6731  0.6237 -0.8638
 6158SOL    HW219159   2.529   3.900   0.180  0.1783 -0.6241  1.6745
 6159SOL     OW19160   4.253   6.041   2.274 -0.0092 -0.2304  0.0758
 6159SOL    HW119161   4.195   6.034   2.199 -1.1648  0.7475  0.8388
 6159SOL    HW219162   4.323   6.099   2.244 -0.4565  0.1487 -0.2499
 6160SOL     OW19163   1.044   0.539   3.513  0.6196 -0.2518  0.5441
 6160SOL    HW119164   0.982   0.567   3.445  1.9280 -0.7777 -0.9318
 6160SOL    HW219165   0.989   0.501   3.581 -0.6917 -0.6548 -0.6834
 6161SOL     OW19166   1.491   6.309   6.203 -0.0662 -0.1571  0.5640
 6161SOL    HW119167   1.496   6.238   6.267 -2.4814  0.8549  2.0322
 6161SOL    HW219168   1.484   6.265   6.119 -0.5601 -1.6459  1.3468
 6162SOL     OW19169   5.808   5.739   0.760  0.1023  0.1205 -0.2837
 6162SOL    HW119170   5.825   5.703   0.847  0.4331  0.0412 -0.3817
 6162SOL    HW219171   5.801   5.662   0.704 -1.3303  0.1046 -0.1197
 6163SOL     OW19172   3.387   6.098   2.953 -0.3597  0.0328 -0.3274
 6163SOL    HW119173   3.427   6.126   2.870 -0.1157  1.1168  0.1359
 6163SOL    HW219174   3.440   6.139   3.020  0.6931 -2.4826  0.4864
 6164SOL     OW19175   6.290   5.087   5.583 -0.0053  0.2987 -0.3106
 6164SOL    HW119176   6.194   5.093   5.588  0.0051  1.1184 -0.8526
 6164SOL    HW219177   6.316   5.168   5.540  0.9615  0.2065  0.0898
 6165SOL     OW19178   4.219   3.474   4.549  0.3031 -0.3577  0.1492
 6165SOL    HW119179   4.314   3.475   4.548  0.3543 -2.1409  0.6988
 6165SOL    HW219180   4.195   3.446   4.460  0.2480  0.6189 -0.1606
 6166SOL     OW19181   4.854   2.362   2.160  0.1490  0.0826 -0.6250
 6166SOL    HW119182   4.777   2.331   2.112 -0.5879  0.2543  0.4214
 6166SOL    HW219183   4.819   2.402   2.240  1.2297  1.3988 -0.7616
 6167SOL     OW19184   6.252   0.066   3.968  0.2490 -0.1389  0.7105
 6167SOL    HW119185   6.336   0.040   3.930  0.1282 -0.9335  0.9752
 6167SOL    HW219186   6.198  -0.012   3.961 -0.4099  0.3162  0.7117
 6168SOL     OW19187   5.048   0.735   6.502 -0.2095 -0.7621 -0.2302
 6168SOL    HW119188   4.974   0.795   6.493 -0.6577 -1.3225 -0.3590
 6168SOL    HW219189   5.056   0.720   6.596  1.2321  1.1046  0.0120
 6169SOL     OW19190   4.511   2.985   4.272 -0.2203 -0.3230 -0.2264
 6169SOL    HW119191   4.436   3.043   4.289  1.1596  1.6748 -0.5552
 6169SOL    HW219192   4.502   2.915   4.336 -1.8298  0.4081  0.4099
 6170SOL     OW19193   3.060   0.876   0.085  0.2334 -0.4474  0.1259
 6170SOL    HW119194   3.079   0.786   0.112  1.2740 -0.3451 -0.2231
 6170SOL    HW219195   2.971   0.873   0.050  0.5790 -1.5391 -0.7132
 6171SOL     OW19196   3.740   3.788   2.260 -0.5046  0.0480  0.2186
 6171SOL    HW119197   3.668   3.816   2.316  1.0672  2.6974  1.1324
 6171SOL    HW219198   3.772   3.869   2.220  0.4257 -1.3519 -2.1017
 6172SOL     OW19199   6.309   2.409   6.006  0.7275 -0.1556  0.7919
 6172SOL    HW119200   6.369   2.463   6.058 -0.0461 -1.3314  2.9951
 6172SOL    HW219201   6.257   2.473   5.956  3.6015  0.9013 -1.0859
 6173SOL     OW19202   2.152   3.674   1.396 -0.3831 -0.0978 -0.4578
 6173SOL    HW119203   2.058   3.660   1.389 -0.1779 -2.4553  0.3303
 6173SOL    HW219204   2.162   3.754   1.447 -1.9708 -0.1157 -0.0890
 6174SOL     OW19205   1.612   4.124   6.137  0.1813 -0.1500 -0.5441
 6174SOL    HW119206   1.659   4.139   6.056  2.5945 -0.2670  0.7490
 6174SOL    HW219207   1.664   4.169   6.204 -2.1733  0.6784  0.8589
 6175SOL     OW19208   3.491   1.076   6.194 -0.2474  0.2588  0.1240
 6175SOL    HW119209   3.584   1.074   6.219 -0.2019  0.3901 -0.0314
 6175SOL    HW219210   3.479   1.162   6.153 -0.9275  1.0922  1.9643
 6176SOL     OW19211   0.433   2.392   2.938 -1.0712 -0.7826 -0.3767
 6176SOL    HW119212   0.424   2.403   3.032 -1.2097 -2.9785 -0.0706
 6176SOL    HW219213   0.388   2.309   2.919 -1.5528 -0.1032 -2.4690
 6177SOL     OW19214   4.581   4.539   3.462 -0.1468  0.5159 -0.1348
 6177SOL    HW119215   4.562   4.539   3.369 -1.9846  2.2281  0.1618
 6177SOL    HW219216   4.508   4.492   3.501 -0.0017  0.8105  0.5112
 6178SOL     OW19217   6.082   3.928   3.608 -0.3505  0.2392  0.1837
 6178SOL    HW119218   6.173   3.959   3.609 -0.1309 -0.3628  1.1006
 6178SOL    HW219219   6.084   3.848   3.661 -1.4340  0.2672  0.2952
 6179SOL     OW19220   6.266   1.710   1.283 -0.5099  0.0694 -0.3485
 6179SOL    HW119221   6.265   1.737   1.191 -1.4540 -0.0916 -0.3925
 6179SOL    HW219222   6.338   1.646   1.287 -0.6229 -0.1153 -1.0331
 6180SOL     OW19223   5.345   2.206   3.116 -0.4044  0.2048 -0.8718
 6180SOL    HW119224   5.302   2.161   3.044  0.1785 -0.3753 -0.8643
 6180SOL    HW219225   5.319   2.298   3.106 -1.7319 -0.1389 -0.7994
 6181SOL     OW19226   3.130   6.507   4.391  0.3216  0.0375 -0.5618
 6181SOL    HW119227   3.071   6.574   4.355 -0.7450 -0.6932 -0.2053
 6181SOL    HW219228   3.112   6.506   4.484  1.8728  0.7239 -0.2158
 6182SOL     OW19229   0.435   4.287   2.383 -0.2569  0.1441 -0.3688
 6182SOL    HW119230   0.408   4.267   2.293  0.3266 -0.3845 -0.4317
 6182SOL    HW219231   0.371   4.352   2.413  0.4102  1.4446 -1.6633
 6183SOL     OW19232   2.028   1.447   5.125 -0.1073 -0.1240 -0.1456
 6183SOL    HW119233   1.948   1.493   5.103  0.3579  0.8180  0.0608
 6183SOL    HW219234   2.001   1.378   5.186 -0.4543  1.9705  2.2596
 6184SOL     OW19235   5.741   1.441   1.760  0.0783  0.3389  0.3988
 6184SOL    HW119236   5.751   1.395   1.677  1.4916 -0.6643  1.0688
 6184SOL    HW219237   5.755   1.533   1.739 -2.5229  0.5243 -0.9239
 6185SOL     OW19238   5.836   4.451   1.335  0.2792 -0.0867  0.5792
 6185SOL    HW119239   5.837   4.505   1.414 -0.0968  0.6479  0.0993
 6185SOL    HW219240   5.829   4.362   1.367 -0.6592  0.2476  1.3629
 6186SOL     OW19241   5.768   0.236   0.496  0.5794 -0.5420 -0.1348
 6186SOL    HW119242   5.850   0.277   0.468 -0.0983  0.9158 -0.0866
 6186SOL    HW219243   5.700   0.292   0.460 -0.4363  1.9992  4.8194
 6187SOL     OW19244   0.251   1.276   1.724  0.1606  0.7837  0.3970
 6187SOL    HW119245   0.193   1.352   1.727  0.0944  0.7086  1.0971
 6187SOL    HW219246   0.337   1.310   1.750 -0.1766  0.3437  2.1724
 6188SOL     OW19247   6.143   0.506   5.936  0.1419  0.0373 -0.2609
 6188SOL    HW119248   6.087   0.438   5.972  0.8656 -0.6618 -0.4329
 6188SOL    HW219249   6.111   0.520   5.847  0.4374 -0.5762 -0.4630
 6189SOL     OW19250   2.968   2.630   4.793 -0.4568  0.4947 -0.2928
 6189SOL    HW119251   3.021   2.620   4.714 -0.4724  0.9629 -0.3660
 6189SOL    HW219252   2.890   2.577   4.777  0.2043 -0.6102  0.0210
 6190SOL     OW19253   5.311   0.789   3.980 -0.7264 -0.4740  0.7257
 6190SOL    HW119254   5.357   0.825   3.904 -0.2925 -0.0240  1.1992
 6190SOL    HW219255   5.226   0.761   3.945 -0.2917 -0.8697 -0.0572
 6191SOL     OW19256   2.941   2.592   2.694  0.5334  0.0508 -0.4713
 6191SOL    HW119257   2.920   2.515   2.747 -0.4613  0.8013  0.2565
 6191SOL    HW219258   2.995   2.557   2.623  1.8820 -0.9989  0.9803
 6192SOL     OW19259   0.340   4.680   5.824  0.0913 -0.3793  0.3588
 6192SOL    HW119260   0.420   4.643   5.862 -0.7805 -0.3559  2.3122
 6192SOL    HW219261   0.364   4.770   5.801  0.2842  0.1160  2.3038
 6193SOL     OW19262   5.700   2.824   0.716 -0.2303  0.0547 -0.0648
 6193SOL    HW119263   5.741   2.851   0.634  0.2953  1.1261  0.5326
 6193SOL    HW219264   5.606   2.832   0.699 -0.2257 -1.6956 -1.1991
 6194SOL     OW19265   3.132   4.511   3.460 -0.4691  0.3163 -0.1505
 6194SOL    HW119266   3.036   4.512   3.461 -0.5358  2.9337 -0.9173
 6194SOL    HW219267   3.154   4.492   3.369 -0.2054 -1.0440  0.1774
 6195SOL     OW19268   1.968   5.796   1.622 -0.4005 -0.5070 -0.5126
 6195SOL    HW119269   1.988   5.795   1.716 -0.2511 -4.2636 -0.4569
 6195SOL    HW219270   1.878   5.766   1.615 -0.3451 -0.4732 -1.6039
 6196SOL     OW19271   4.527   1.881   4.003  0.5605 -0.3515 -0.2278
 6196SOL    HW119272   4.488   1.809   4.053  0.7882 -1.7384 -1.9629
 6196SOL    HW219273   4.609   1.900   4.049  0.6140 -1.3862  0.1314
 6197SOL     OW19274   3.033   5.715   1.866 -0.1274 -0.3506  0.2223
 6197SOL    HW119275   2.991   5.800   1.858  0.3557  0.0476  1.5324
 6197SOL    HW219276   3.053   5.689   1.776 -0.6579  0.7213 -0.2233
 6198SOL     OW19277   5.440   6.214   2.430  0.1539 -0.7315 -0.2705
 6198SOL    HW119278   5.457   6.144   2.367 -0.8685 -1.6313  0.4266
 6198SOL    HW219279   5.358   6.254   2.400 -0.3756 -1.2091  0.5174
 6199SOL     OW19280   2.243   3.867   3.479  0.1960  0.6501 -0.4160
 6199SOL    HW119281   2.182   3.872   3.405  0.0752 -1.6784 -0.5411
 6199SOL    HW219282   2.216   3.789   3.527  0.9460  1.5322  1.5175
 6200SOL     OW19283   4.750   5.981   3.462  0.1631  0.8017  0.0620
 6200SOL    HW119284   4.826   6.039   3.474  2.2469 -1.0345 -3.0082
 6200SOL    HW219285   4.775   5.899   3.505 -1.0337  0.8064  0.8183
 6201SOL     OW19286   5.433   1.036   2.770  0.5118 -0.2233  0.5718
 6201SOL    HW119287   5.416   1.108   2.830  1.5848 -1.1537  2.0747
 6201SOL    HW219288   5.459   1.078   2.688  0.1257  1.0781  1.0906
 6202SOL     OW19289   5.328   1.900   2.200 -0.0476  0.6093 -0.2336
 6202SOL    HW119290   5.294   1.894   2.289  1.2754 -0.8698  0.2214
 6202SOL    HW219291   5.266   1.851   2.147 -0.5200  0.9761 -0.0205
 6203SOL     OW19292   3.914   4.993   5.535 -0.0828  0.1020  0.3640
 6203SOL    HW119293   4.000   4.997   5.493 -0.4968 -0.1776 -0.5429
 6203SOL    HW219294   3.915   4.911   5.584  0.0810 -0.0189  0.1597
 6204SOL     OW19295   4.937   1.179   2.636 -0.4831 -0.0403  0.1865
 6204SOL    HW119296   4.906   1.248   2.695 -0.4020  1.3167 -1.2957
 6204SOL    HW219297   5.032   1.185   2.641 -0.4539 -0.9470  1.0351
 6205SOL     OW19298   3.400   3.461   0.276 -0.2020 -0.4109 -0.0967
 6205SOL    HW119299   3.331   3.513   0.235  0.3995  0.7524  0.3221
 6205SOL    HW219300   3.360   3.375   0.291 -1.0708 -0.2279 -1.2277
 6206SOL     OW19301   2.992   1.466   4.486  0.2757 -0.2940 -0.4701
 6206SOL    HW119302   2.946   1.464   4.570 -1.3932 -3.0413 -1.3215
 6206SOL    HW219303   3.084   1.455   4.509 -0.2090 -1.6126  1.0070
 6207SOL     OW19304   1.178   3.436   6.337 -0.2015  0.9181 -0.1230
 6207SOL    HW119305   1.109   3.496   6.312 -2.4448 -1.1800  0.6145
 6207SOL    HW219306   1.162   3.418   6.430 -1.1267 -2.4906 -0.8059
 6208SOL     OW19307   0.740   1.796   0.494  0.4358  0.0126  0.0376
 6208SOL    HW119308   0.801   1.771   0.563 -0.5395  1.1211  1.3589
 6208SOL    HW219309   0.728   1.717   0.442  2.8655 -0.2669 -0.2020
 6209SOL     OW19310   1.976   5.155   1.385  0.1369 -0.1443 -0.3294
 6209SOL    HW119311   1.926   5.176   1.306  1.0595 -0.6029 -1.0627
 6209SOL    HW219312   2.064   5.137   1.353  0.0863 -2.2770  0.5830
 6210SOL     OW19313   2.618   5.133   2.250 -0.0590  0.1025  0.0084
 6210SOL    HW119314   2.523   5.145   2.255 -0.2419 -0.4412 -1.5849
 6210SOL    HW219315   2.631   5.075   2.174  1.3828 -1.8957  1.6570
 6211SOL     OW19316   3.725   6.030   3.064  0.4937 -0.7752 -0.2825
 6211SOL    HW119317   3.784   6.062   2.996  2.1579 -1.7512  0.6348
 6211SOL    HW219318   3.730   6.096   3.133 -0.7920 -0.0455 -0.8588
 6212SOL     OW19319   0.123   2.058   6.513 -0.2188 -0.2054 -0.5199
 6212SOL    HW119320   0.080   2.140   6.536 -0.8446 -0.4114 -0.9271
 6212SOL    HW219321   0.058   1.990   6.533  1.1563 -0.8538  2.1865
 6213SOL     OW19322   2.941   5.201   2.230  0.4821  0.6188 -0.0935
 6213SOL    HW119323   2.865   5.156   2.269  1.9419 -2.4376 -0.4923
 6213SOL    HW219324   2.982   5.247   2.303 -0.0531 -0.2589  0.7842
 6214SOL     OW19325   2.954   5.124   5.156 -0.2740 -0.1720 -0.0983
 6214SOL    HW119326   3.023   5.070   5.195 -1.1457 -1.0871  0.2292
 6214SOL    HW219327   2.877   5.067   5.155 -1.0362  0.8364 -0.4269
 6215SOL     OW19328   3.274   5.989   3.339  0.1424  0.1600 -0.4308
 6215SOL    HW119329   3.370   5.991   3.330  0.1264  1.0568 -0.5679
 6215SOL    HW219330   3.243   5.963   3.253  0.2754 -0.7085 -0.2236
 6216SOL     OW19331   4.372   2.884   6.406 -0.1214  0.0791  0.7004
 6216SOL    HW119332   4.316   2.948   6.361 -1.0954 -0.9065  0.4675
 6216SOL    HW219333   4.392   2.925   6.490 -2.4021 -0.0888  1.3990
 6217SOL     OW19334   0.094   2.700   3.682  0.0704  0.4868  0.1604
 6217SOL    HW119335   0.078   2.649   3.762 -0.3154  1.8580  0.9933
 6217SOL    HW219336   0.025   2.671   3.622  0.2174 -0.3937  0.4001
 6218SOL     OW19337   2.620   5.146   5.650 -0.0370 -0.3762  0.1923
 6218SOL    HW119338   2.661   5.179   5.729  0.4025 -1.5560  0.4811
 6218SOL    HW219339   2.665   5.192   5.579  1.2029 -0.9935  0.5405
 6219SOL     OW19340   1.372   5.197   1.531  0.0881 -0.1212 -0.2805
 6219SOL    HW119341   1.324   5.125   1.490 -2.6641  0.2608  1.9858
 6219SOL    HW219342   1.304   5.260   1.555  1.8749  1.0872  1.9464
 6220SOL     OW19343   2.819   4.696   4.843 -0.5715 -0.1062 -0.6452
 6220SOL    HW119344   2.897   4.741   4.877  0.7503 -1.6979 -1.4344
 6220SOL    HW219345   2.777   4.659   4.921 -0.2146  0.2682 -0.2674
 6221SOL     OW19346   5.741   3.359   5.234  0.3779 -0.5566 -0.2581
 6221SOL    HW119347   5.771   3.432   5.180  1.4384 -0.8230 -0.0606
 6221SOL    HW219348   5.802   3.288   5.214 -1.1393 -1.6829 -1.0826
 6222SOL     OW19349   4.544   2.359   2.104 -0.1795  0.2494  0.1313
 6222SOL    HW119350   4.487   2.322   2.036  0.0660 -1.6653  0.8971
 6222SOL    HW219351   4.536   2.454   2.094 -1.1269  0.0045 -1.7333
 6223SOL     OW19352   3.928   2.104   5.965 -0.2631  0.4751  0.1943
 6223SOL    HW119353   3.854   2.126   6.021  0.6694  2.2636  0.8019
 6223SOL    HW219354   3.943   2.183   5.913  1.9587  0.6302  0.9561
 6224SOL     OW19355   1.524   4.892   5.227  0.0245  0.5277  0.2753
 6224SOL    HW119356   1.597   4.873   5.168 -1.9944  0.5082 -2.3458
 6224SOL    HW219357   1.526   4.820   5.291  0.6864 -0.9749 -1.3535
 6225SOL     OW19358   1.110   6.292   1.119 -0.3335 -0.0524  0.0309
 6225SOL    HW119359   1.150   6.352   1.057 -1.0574  0.3307 -0.0769
 6225SOL    HW219360   1.027   6.333   1.142 -0.8308 -0.9904 -0.0316
 6226SOL     OW19361   5.022   3.266   2.627  0.0426  0.1506 -0.3321
 6226SOL    HW119362   4.957   3.226   2.569  2.4515 -1.9531 -1.8079
 6226SOL    HW219363   5.001   3.231   2.714 -0.5820 -0.8092 -0.8472
 6227SOL     OW19364   4.392   0.253   4.018  0.2972  0.6702  0.5814
 6227SOL    HW119365   4.351   0.180   4.065  1.0969 -1.6098 -2.0111
 6227SOL    HW219366   4.483   0.251   4.046  0.1249  1.3488  1.2282
 6228SOL     OW19367   1.119   4.665   6.436 -0.2716 -0.2333 -0.3157
 6228SOL    HW119368   1.046   4.605   6.419  0.6532 -1.5387  0.1125
 6228SOL    HW219369   1.133   4.659   6.531  1.1842 -0.9886 -0.5549
 6229SOL     OW19370   3.030   0.539   0.745 -0.3458 -0.9731 -0.7499
 6229SOL    HW119371   3.004   0.454   0.711 -3.0591 -0.6103  0.1690
 6229SOL    HW219372   3.097   0.570   0.684 -0.1589 -3.2289 -1.7654
 6230SOL     OW19373   4.884   4.849   4.976 -0.0033  0.1029 -0.6350
 6230SOL    HW119374   4.845   4.765   4.997  0.8580 -0.3427 -0.7754
 6230SOL    HW219375   4.966   4.827   4.933  0.6284  1.0174  0.0664
 6231SOL     OW19376   5.974   3.055   4.726 -0.2450  0.3686 -0.0544
 6231SOL    HW119377   6.054   3.008   4.704 -1.2940 -0.7865 -1.6356
 6231SOL    HW219378   5.965   3.122   4.659 -0.5789  0.5158  0.1318
 6232SOL     OW19379   5.419   6.123   4.278  0.3941 -0.5089 -0.2121
 6232SOL    HW119380   5.486   6.133   4.345 -0.1054 -1.0479  0.3798
 6232SOL    HW219381   5.453   6.055   4.220  0.8388 -0.0209 -0.5297
 6233SOL     OW19382   1.577   0.529   3.406 -0.6124 -0.1268 -0.3445
 6233SOL    HW119383   1.654   0.546   3.460 -1.0540 -2.9049  1.3749
 6233SOL    HW219384   1.517   0.601   3.425  0.4825  0.6001  0.4475
 6234SOL     OW19385   2.035   5.960   3.426 -0.1078 -0.0276 -0.0142
 6234SOL    HW119386   2.031   5.969   3.521 -1.7360  0.8039 -0.1249
 6234SOL    HW219387   1.976   6.027   3.393  1.7620  0.8822 -1.7104
 6235SOL     OW19388   3.369   1.365   1.501  0.1744 -0.3702 -0.2063
 6235SOL    HW119389   3.296   1.392   1.446 -0.3506  1.1556  1.1565
 6235SOL    HW219390   3.445   1.409   1.463 -0.0670  0.1282 -0.1195
 6236SOL     OW19391   0.924   5.135   5.373 -0.6643 -0.0205  0.2626
 6236SOL    HW119392   1.012   5.156   5.341 -1.6179  3.4786 -0.4511
 6236SOL    HW219393   0.917   5.182   5.456 -1.8984 -0.2227  0.2882
 6237SOL     OW19394   4.166   1.485   1.853 -0.1677  0.2490 -0.0173
 6237SOL    HW119395   4.098   1.549   1.830 -2.4812 -1.2891  2.0249
 6237SOL    HW219396   4.190   1.506   1.943 -0.0501 -0.9601  0.2556
 6238SOL     OW19397   1.138   1.682   1.731 -0.3488 -0.3416  0.2392
 6238SOL    HW119398   1.119   1.775   1.721 -2.0613 -0.4766  1.8380
 6238SOL    HW219399   1.113   1.661   1.821 -2.8226 -2.9267 -0.8855
 6239SOL     OW19400   0.229   5.544   1.723 -0.0539  0.2099  0.2373
 6239SOL    HW119401   0.202   5.564   1.812 -0.2217 -0.5795  0.3689
 6239SOL    HW219402   0.323   5.525   1.730  0.3670  1.9788 -0.0644
 6240SOL     OW19403   5.764   1.720   3.418  0.0775  0.4878 -0.2737
 6240SOL    HW119404   5.781   1.690   3.508 -0.9488  0.7208  0.0118
 6240SOL    HW219405   5.776   1.642   3.364 -1.2860 -0.1765  0.3184
 6241SOL     OW19406   5.167   5.548   0.941 -0.1735  0.0955 -0.1320
 6241SOL    HW119407   5.074   5.546   0.918 -0.1497  2.9164 -0.8826
 6241SOL    HW219408   5.172   5.604   1.018  0.9433  0.4480 -0.4317
 6242SOL     OW19409   3.743   0.851   6.163 -0.5232  0.0180  0.3080
 6242SOL    HW119410   3.730   0.941   6.193 -0.4611  0.4171 -0.8432
 6242SOL    HW219411   3.742   0.799   6.244  0.3770  1.1487  1.0795
 6243SOL     OW19412   0.896   1.377   5.274 -0.4153  0.7399  0.5161
 6243SOL    HW119413   0.845   1.367   5.354 -1.0437 -0.2373  0.0130
 6243SOL    HW219414   0.837   1.348   5.204  0.4247  0.7215 -0.2036
 6244SOL     OW19415   0.441   5.653   0.579 -0.0627 -0.8493  0.6631
 6244SOL    HW119416   0.357   5.696   0.560  1.0284  0.5129 -1.3870
 6244SOL    HW219417   0.471   5.695   0.660  0.1374  1.1127 -0.3530
 6245SOL     OW19418   3.940   2.514   1.287  0.3729 -0.2617 -0.0240
 6245SOL    HW119419   3.941   2.557   1.373 -1.1497  1.2822 -0.7120
 6245SOL    HW219420   3.872   2.448   1.294 -1.9117  1.8443 -0.8315
 6246SOL     OW19421   5.929   0.257   2.103  0.1872 -0.5474  0.5132
 6246SOL    HW119422   5.905   0.343   2.068  0.9081 -0.5563 -0.0136
 6246SOL    HW219423   5.995   0.224   2.042  1.4231 -0.5877  1.8395
 6247SOL     OW19424   5.900   3.187   2.922  0.5740 -0.6294 -0.0305
 6247SOL    HW119425   5.954   3.172   2.999  0.1278  1.8113  0.8266
 6247SOL    HW219426   5.957   3.234   2.861 -0.6192  2.6011  1.1542
 6248SOL     OW19427   1.937   6.304   5.264  0.4661 -0.5936  0.2926
 6248SOL    HW119428   1.862   6.255   5.298 -0.2852 -0.0999 -0.5968
 6248SOL    HW219429   1.992   6.238   5.221 -0.7639 -0.6414 -1.2995
 6249SOL     OW19430   3.753   3.888   3.020  0.2416 -0.3737  0.1185
 6249SOL    HW119431   3.734   3.795   3.007  0.6283 -0.4886  0.3718
 6249SOL    HW219432   3.831   3.904   2.967  1.3631 -0.6635  1.6416
 6250SOL     OW19433   2.601   6.001   3.083 -0.6385  0.5087  0.4972
 6250SOL    HW119434   2.624   5.910   3.068 -0.2118  0.7885 -0.6693
 6250SOL    HW219435   2.536   6.020   3.015 -0.8877  1.0109  0.8730
 6251SOL     OW19436   1.716   3.049   2.962 -0.4316 -0.1628  0.1325
 6251SOL    HW119437   1.642   3.028   2.905  0.6918  0.3432 -1.5610
 6251SOL    HW219438   1.758   3.125   2.922  1.6513 -1.0866  0.4090
 6252SOL     OW19439   1.302   4.983   5.134 -0.1851 -0.0273  0.0010
 6252SOL    HW119440   1.388   4.942   5.147  0.6385  1.9495  1.2072
 6252SOL    HW219441   1.311   5.031   5.051 -0.2822 -0.1755 -0.0960
 6253SOL     OW19442   0.884   6.223   5.181 -0.3360 -0.0223  0.0880
 6253SOL    HW119443   0.823   6.289   5.149 -1.1188 -0.9172 -0.3248
 6253SOL    HW219444   0.968   6.247   5.143 -0.7482  0.3755 -0.5834
 6254SOL     OW19445   4.683   3.294   2.250 -0.2384 -0.5353  0.0488
 6254SOL    HW119446   4.632   3.364   2.290 -0.0459 -0.1420 -0.3931
 6254SOL    HW219447   4.685   3.316   2.157  0.4743 -0.7149  0.0195
 6255SOL     OW19448   2.391   3.904   2.174  0.3913 -0.8340 -0.3892
 6255SOL    HW119449   2.332   3.917   2.099 -1.6132 -2.8867  0.7019
 6255SOL    HW219450   2.468   3.861   2.136  1.4457  2.0940 -1.8797
 6256SOL     OW19451   3.707   0.459   0.285 -0.4839 -0.3858  0.5757
 6256SOL    HW119452   3.640   0.528   0.283 -0.3026 -0.1450  1.8504
 6256SOL    HW219453   3.709   0.425   0.195 -1.1049  0.7539  0.1032
 6257SOL     OW19454   1.473   3.529   0.368 -0.2981  0.4212 -0.1897
 6257SOL    HW119455   1.421   3.594   0.415 -0.4614 -0.4141  0.8314
 6257SOL    HW219456   1.410   3.481   0.314 -0.5214 -0.2332  0.6336
 6258SOL     OW19457   0.684   5.261   2.399 -0.3266 -0.0020  0.5242
 6258SOL    HW119458   0.752   5.298   2.456 -0.2006 -3.1358  2.6485
 6258SOL    HW219459   0.604   5.267   2.451 -0.8234 -0.2721 -0.1929
 6259SOL     OW19460   2.538   5.920   3.846  0.0719  0.3849 -0.5293
 6259SOL    HW119461   2.524   5.937   3.753  0.4189 -1.2182 -0.9080
 6259SOL    HW219462   2.532   5.825   3.854 -2.0242  0.5936  1.4510
 6260SOL     OW19463   1.346   2.355   1.961 -0.2991 -0.2582  0.4482
 6260SOL    HW119464   1.325   2.329   1.872  1.1061  0.6177 -0.1724
 6260SOL    HW219465   1.267   2.335   2.011 -1.5367  0.3085 -1.2006
 6261SOL     OW19466   0.663   5.070   4.218 -0.4606  0.0168  0.0696
 6261SOL    HW119467   0.720   4.994   4.218 -0.1385  0.1884  2.2304
 6261SOL    HW219468   0.577   5.036   4.194 -0.0912 -0.8248 -0.0681
 6262SOL     OW19469   5.613   5.420   1.765  0.7739  0.0019 -0.0638
 6262SOL    HW119470   5.657   5.452   1.686  1.4639 -1.9734 -0.5277
 6262SOL    HW219471   5.568   5.341   1.737  3.2236 -2.3124  1.9961
 6263SOL     OW19472   4.560   3.299   0.556  0.1367 -0.4471 -0.7499
 6263SOL    HW119473   4.504   3.333   0.626  1.2362 -1.2044  0.5380
 6263SOL    HW219474   4.552   3.204   0.562 -1.9206 -0.5638 -3.5091
 6264SOL     OW19475   4.817   6.268   0.889  0.1565  0.7163 -0.5057
 6264SOL    HW119476   4.799   6.175   0.904 -2.0321  1.2952  0.8768
 6264SOL    HW219477   4.787   6.285   0.800  1.7259 -0.1173 -1.2375
 6265SOL     OW19478   4.641   4.465   1.364  0.0137  0.5187 -0.3233
 6265SOL    HW119479   4.552   4.441   1.388  0.5764 -1.7570 -0.3116
 6265SOL    HW219480   4.633   4.500   1.275 -0.6293 -2.2056 -1.4335
 6266SOL     OW19481   3.771   0.853   0.014 -0.3497  0.3366 -0.0564
 6266SOL    HW119482   3.844   0.792   0.019  0.1130  0.8974  0.2709
 6266SOL    HW219483   3.707   0.810  -0.042  0.4658  0.0713 -0.8108
 6267SOL     OW19484   4.095   4.506   3.198  0.1750  0.5843  0.4075
 6267SOL    HW119485   4.001   4.516   3.211 -0.0927  0.9502 -1.5485
 6267SOL    HW219486   4.109   4.523   3.105  2.2020  0.6677  0.6752
 6268SOL     OW19487   0.645   1.399   0.746  0.1219  0.5408 -0.3272
 6268SOL    HW119488   0.662   1.378   0.654 -0.4302  0.0483 -0.3225
 6268SOL    HW219489   0.558   1.362   0.763  1.4992 -2.1855  1.2844
 6269SOL     OW19490   6.436   5.185   4.530  0.8847 -0.3159  0.3040
 6269SOL    HW119491   6.470   5.171   4.619 -0.5943 -1.2480  0.7659
 6269SOL    HW219492   6.451   5.278   4.513  0.6859  0.0173  1.7644
 6270SOL     OW19493   3.397   1.972   1.833  0.3122  0.1145  0.4761
 6270SOL    HW119494   3.433   1.918   1.904 -0.2168  0.0197  0.6789
 6270SOL    HW219495   3.473   1.996   1.780  0.4903 -1.4019 -0.0138
 6271SOL     OW19496   1.736   1.636   2.170  0.6048 -0.1315 -0.0735
 6271SOL    HW119497   1.711   1.544   2.180 -0.2022  0.2223  1.4037
 6271SOL    HW219498   1.814   1.633   2.114 -1.2427 -1.4648 -2.7842
 6272SOL     OW19499   4.263   1.552   5.934  0.4748 -0.3750 -0.3687
 6272SOL    HW119500   4.257   1.541   5.839 -3.1142 -2.3465 -0.0789
 6272SOL    HW219501   4.267   1.462   5.968  1.1135  0.2790  1.4124
 6273SOL     OW19502   5.825   2.931   5.811  0.2295 -0.3635  0.3994
 6273SOL    HW119503   5.875   2.850   5.812 -0.2408 -0.6750 -0.3421
 6273SOL    HW219504   5.743   2.908   5.768 -0.1127  0.3916  0.6279
 6274SOL     OW19505   3.568   5.248   1.482  0.0532 -0.1493  0.0131
 6274SOL    HW119506   3.613   5.179   1.532  0.7464 -1.1126 -1.8291
 6274SOL    HW219507   3.629   5.322   1.483  0.4019 -0.4338 -0.0519
 6275SOL     OW19508   2.977   0.585   0.109  0.4190  0.6237 -0.1940
 6275SOL    HW119509   3.065   0.548   0.108 -0.3179 -1.2809 -1.4695
 6275SOL    HW219510   2.946   0.572   0.198  0.7451 -0.5303 -0.2335
 6276SOL     OW19511   3.346   5.858   4.445  0.3032 -0.3027 -0.2116
 6276SOL    HW119512   3.332   5.935   4.389 -1.0810 -1.1845 -1.1764
 6276SOL    HW219513   3.353   5.893   4.533 -0.8584  0.9158 -0.5653
 6277SOL     OW19514   4.666   0.277   5.992 -0.2483 -0.5115 -0.3794
 6277SOL    HW119515   4.658   0.359   5.943 -1.3952 -1.0042 -1.0698
 6277SOL    HW219516   4.576   0.254   6.015  0.0835 -1.4328  0.0555
 6278SOL     OW19517   4.165   6.407   1.189  0.4397 -0.0927  0.3540
 6278SOL    HW119518   4.175   6.422   1.283 -2.0894 -1.4625  0.9469
 6278SOL    HW219519   4.076   6.434   1.170  0.7749 -0.2190 -1.5860
 6279SOL     OW19520   0.012   3.063   2.743  0.9616 -0.4665 -0.3899
 6279SOL    HW119521   0.023   3.012   2.823 -0.4887 -0.6179 -0.2725
 6279SOL    HW219522  -0.010   2.997   2.676 -2.8666  0.0698  0.1470
 6280SOL     OW19523   1.269   5.204   2.664  0.4780  0.2209 -0.0480
 6280SOL    HW119524   1.326   5.139   2.623 -1.4771 -1.2518 -0.5680
 6280SOL    HW219525   1.265   5.276   2.600  0.0737 -0.6190 -1.0020
 6281SOL     OW19526   1.338   6.045   2.095  0.2496 -0.0249  0.1515
 6281SOL    HW119527   1.426   6.027   2.128  0.2506  0.5186  0.4589
 6281SOL    HW219528   1.352   6.091   2.012  0.2732  0.9734  0.6936
 6282SOL     OW19529   3.295   2.868   0.331 -0.1926 -0.8430 -0.1414
 6282SOL    HW119530   3.387   2.894   0.334 -0.8827  1.8873  0.3246
 6282SOL    HW219531   3.251   2.926   0.394 -2.3336 -1.5831 -0.8480
 6283SOL     OW19532   4.031   3.752   0.193  0.2102  0.2800 -0.4062
 6283SOL    HW119533   4.061   3.804   0.268  1.5813 -0.0227 -0.7192
 6283SOL    HW219534   4.061   3.802   0.116 -1.3222  0.6706 -0.7812
 6284SOL     OW19535   4.534   0.273   0.886  0.8814 -0.3501  0.0837
 6284SOL    HW119536   4.602   0.329   0.923  1.6024 -1.0321 -0.1809
 6284SOL    HW219537   4.490   0.235   0.962  0.5834  0.3220  0.2586
 6285SOL     OW19538   3.039   0.147   6.379  0.6461 -0.3512 -0.7999
 6285SOL    HW119539   3.088   0.183   6.305  0.4742  1.4807 -0.0869
 6285SOL    HW219540   2.991   0.222   6.415  2.0778 -0.7159  2.2365
 6286SOL     OW19541   1.240   5.483   0.878  0.1255 -0.0341  0.9015
 6286SOL    HW119542   1.154   5.447   0.899  0.3840 -0.8247  0.6459
 6286SOL    HW219543   1.302   5.424   0.919  0.5534  0.9486  1.7175
 6287SOL     OW19544   1.005   3.445   0.660 -0.5059 -0.1874 -0.1862
 6287SOL    HW119545   0.925   3.398   0.684 -0.4478 -0.6517 -0.8558
 6287SOL    HW219546   1.054   3.383   0.605  0.4148  0.0153  0.3753
 6288SOL     OW19547   2.266   2.926   6.416 -0.0821 -0.2088  0.5162
 6288SOL    HW119548   2.320   2.914   6.494  2.4216  1.2041 -0.8775
 6288SOL    HW219549   2.179   2.896   6.443  0.5484  0.5736  3.9509
 6289SOL     OW19550   3.127   5.001   1.934 -0.1947 -0.1243 -0.6800
 6289SOL    HW119551   3.215   4.964   1.941 -0.9363 -1.7889  0.6610
 6289SOL    HW219552   3.069   4.925   1.929 -1.6389  0.9126 -0.5040
 6290SOL     OW19553   0.946   3.353   0.242 -0.1781 -0.1711 -0.1145
 6290SOL    HW119554   0.931   3.441   0.277 -0.4680 -0.0345 -0.5712
 6290SOL    HW219555   0.865   3.332   0.195  1.2555  0.9027 -3.3704
 6291SOL     OW19556   0.339   2.323   2.206 -0.3697  0.7002 -0.2559
 6291SOL    HW119557   0.360   2.364   2.121 -0.9406  0.7455 -0.3754
 6291SOL    HW219558   0.281   2.386   2.249 -2.6077 -0.6639 -1.1145
 6292SOL     OW19559   2.464   0.545   0.448  0.3534 -0.4338  0.1845
 6292SOL    HW119560   2.532   0.546   0.381  1.7879  0.1319  1.5823
 6292SOL    HW219561   2.414   0.625   0.434  0.4717 -0.4561 -0.3691
 6293SOL     OW19562   2.182   2.456   3.514  0.2858 -0.1043 -0.2355
 6293SOL    HW119563   2.247   2.522   3.540 -0.5213  0.6248 -0.0548
 6293SOL    HW219564   2.110   2.506   3.477 -0.7095 -0.8214  0.6780
 6294SOL     OW19565   5.551   3.580   0.144 -0.2135  0.1665 -0.0181
 6294SOL    HW119566   5.638   3.542   0.157 -0.8666 -0.8787  1.4879
 6294SOL    HW219567   5.530   3.624   0.227 -1.1835  0.2853 -0.3062
 6295SOL     OW19568   0.601   1.266   2.876 -0.5474 -0.2608  0.0498
 6295SOL    HW119569   0.676   1.230   2.828 -1.1393  0.1203 -1.2065
 6295SOL    HW219570   0.614   1.360   2.874 -0.4561 -0.2517  0.8722
 6296SOL     OW19571   4.467   4.784   1.683 -0.7290  0.6042 -0.3356
 6296SOL    HW119572   4.487   4.862   1.735 -0.3311  0.0103  0.4260
 6296SOL    HW219573   4.506   4.802   1.597 -0.6534  1.2461 -0.1691
 6297SOL     OW19574   3.398   3.292   5.117 -0.1816 -0.2742  0.0988
 6297SOL    HW119575   3.413   3.243   5.037  0.8369  0.7119 -0.3504
 6297SOL    HW219576   3.485   3.324   5.141 -1.0178  2.8493 -0.6551
 6298SOL     OW19577   5.692   4.492   5.318  0.2800  0.3883  0.1306
 6298SOL    HW119578   5.668   4.488   5.225 -0.2695  0.6714  0.2527
 6298SOL    HW219579   5.717   4.584   5.331  1.3648  0.1156  0.0278
 6299SOL     OW19580   6.507   5.034   0.988  0.0653  0.3206 -0.6366
 6299SOL    HW119581   6.520   4.940   0.999  1.9980  0.5701 -0.4504
 6299SOL    HW219582   6.519   5.070   1.076 -1.3823  0.7060 -0.5673
 6300SOL     OW19583   0.757   1.067   2.448  0.2029  0.1501 -0.1688
 6300SOL    HW119584   0.822   1.026   2.505  0.2035  0.3587 -0.0201
 6300SOL    HW219585   0.692   1.104   2.507  0.0122  0.0527 -0.3141
 6301SOL     OW19586   5.927   4.126   4.368  0.2230 -0.5683  0.1047
 6301SOL    HW119587   5.979   4.061   4.415  0.2299 -0.5988  0.0553
 6301SOL    HW219588   5.922   4.092   4.279 -2.1170 -1.9840  0.6618
 6302SOL     OW19589   5.624   5.597   4.845  0.2882 -0.3851  0.1696
 6302SOL    HW119590   5.714   5.614   4.815  0.5314 -0.2859  0.9368
 6302SOL    HW219591   5.628   5.510   4.885 -0.3489 -1.1336 -1.2890
 6303SOL     OW19592   3.248   2.693   3.603  0.5338  0.2974  0.1093
 6303SOL    HW119593   3.217   2.769   3.652  1.1589 -0.1506  1.2300
 6303SOL    HW219594   3.279   2.730   3.520  1.2352  1.3383  0.7987
 6304SOL     OW19595   0.295   3.438   3.874  0.3576 -0.2993  0.0858
 6304SOL    HW119596   0.235   3.500   3.833  0.4615  0.1459  0.5989
 6304SOL    HW219597   0.364   3.492   3.912  1.0490 -0.8011 -0.4310
 6305SOL     OW19598   0.251   0.460   3.162 -0.0736 -0.1898  0.2313
 6305SOL    HW119599   0.155   0.453   3.160 -0.2444  1.5232  0.8081
 6305SOL    HW219600   0.279   0.423   3.078 -1.2362 -0.7602  0.0701
 6306SOL     OW19601   1.215   4.372   0.742 -0.0285 -0.3553  0.3500
 6306SOL    HW119602   1.197   4.407   0.655 -0.7140 -2.0310 -0.2112
 6306SOL    HW219603   1.141   4.401   0.795 -0.1219 -0.1765  0.1253
 6307SOL     OW19604   0.757   5.113   6.423 -0.1978 -0.1279  0.1688
 6307SOL    HW119605   0.779   5.040   6.480 -1.5911  0.1147  1.0529
 6307SOL    HW219606   0.663   5.127   6.437 -0.0723  1.4590 -0.4209
 6308SOL     OW19607   3.648   4.499   4.679  0.0046 -0.2146  0.1951
 6308SOL    HW119608   3.688   4.419   4.713  0.0799 -1.1112 -1.8343
 6308SOL    HW219609   3.653   4.489   4.584 -1.8681  1.2694 -0.1112
 6309SOL     OW19610   6.421   3.550   2.597 -0.5494  0.6938  0.5347
 6309SOL    HW119611   6.497   3.536   2.540 -0.3378  2.4928  0.3235
 6309SOL    HW219612   6.416   3.470   2.650 -0.2261 -0.6588 -1.3779
 6310SOL     OW19613   0.785   5.811   4.192  0.2910  0.0382  0.0760
 6310SOL    HW119614   0.802   5.851   4.107  0.4130  0.8653  0.4722
 6310SOL    HW219615   0.791   5.884   4.254  3.4427 -0.9827  1.2015
 6311SOL     OW19616   1.349   4.694   0.412  0.8054  0.1825 -1.1723
 6311SOL    HW119617   1.309   4.626   0.467  0.4658  1.2468 -0.0553
 6311SOL    HW219618   1.309   4.776   0.443  0.5588  0.8198 -3.0619
 6312SOL     OW19619   3.387   4.231   0.327 -0.0616  0.0667 -0.9476
 6312SOL    HW119620   3.378   4.202   0.235 -1.2359 -0.4559 -0.6957
 6312SOL    HW219621   3.398   4.149   0.376  1.1869  0.3878 -0.6742
 6313SOL     OW19622   5.866   2.609   1.522 -0.3561 -0.0470  0.5011
 6313SOL    HW119623   5.868   2.544   1.593  0.2889 -0.1515  0.3992
 6313SOL    HW219624   5.851   2.557   1.443  0.0126 -0.0640  0.4376
 6314SOL     OW19625   3.191   4.064   4.085 -0.5987 -0.0124  0.1304
 6314SOL    HW119626   3.195   3.973   4.116 -1.1380  0.5786  2.0402
 6314SOL    HW219627   3.264   4.108   4.129 -0.5086  0.5541 -0.5716
 6315SOL     OW19628   4.288   3.712   6.352  0.8023  0.7758  0.1472
 6315SOL    HW119629   4.231   3.741   6.281  1.6703  0.4971 -0.6703
 6315SOL    HW219630   4.349   3.785   6.364 -0.0417  1.3155  1.4046
 6316SOL     OW19631   3.125   2.173   0.536 -0.4543  0.2151  0.2588
 6316SOL    HW119632   3.034   2.147   0.552  0.4188 -2.1230  1.9115
 6316SOL    HW219633   3.118   2.246   0.474 -3.4041 -0.2648 -0.1347
 6317SOL     OW19634   2.255   2.788   2.473  0.3267 -0.2059 -0.0118
 6317SOL    HW119635   2.210   2.709   2.443 -0.4725 -0.2169  1.1691
 6317SOL    HW219636   2.310   2.758   2.545  2.6562 -0.2843 -1.7110
 6318SOL     OW19637   3.952   6.491   4.273  0.1863 -0.1692  0.5620
 6318SOL    HW119638   3.934   6.444   4.354 -2.2449 -1.7267 -0.7467
 6318SOL    HW219639   3.873   6.544   4.258  1.2437  1.3175 -0.0359
 6319SOL     OW19640   4.982   2.296   1.019 -0.3854  0.1311  0.2388
 6319SOL    HW119641   4.994   2.326   0.929  1.8327  0.6178  0.6424
 6319SOL    HW219642   5.046   2.225   1.030 -0.9646 -0.2546  1.2801
 6320SOL     OW19643   6.266   2.490   6.430 -0.1474  0.1629  0.3846
 6320SOL    HW119644   6.221   2.574   6.421 -0.0989  0.1932  0.4301
 6320SOL    HW219645   6.347   2.501   6.380 -0.9685 -0.4550 -1.1884
 6321SOL     OW19646   2.143   3.388   3.901  0.0534 -0.4206 -0.0166
 6321SOL    HW119647   2.204   3.454   3.869 -0.9465 -0.0624 -1.2613
 6321SOL    HW219648   2.074   3.438   3.945 -0.0512 -0.7332  0.1840
 6322SOL     OW19649   2.282   6.230   4.494 -0.0284 -0.1097  0.5489
 6322SOL    HW119650   2.341   6.189   4.431 -0.8348 -1.7403  0.8062
 6322SOL    HW219651   2.197   6.233   4.450 -0.1981  0.4486  0.8932
 6323SOL     OW19652   2.671   2.553   3.831  0.0522  0.0933  0.5603
 6323SOL    HW119653   2.663   2.479   3.772 -1.8191  0.7981 -0.1446
 6323SOL    HW219654   2.765   2.573   3.833  0.3849 -1.2513 -0.4934
 6324SOL     OW19655   1.927   5.879   5.400 -0.2061 -0.3606  0.6118
 6324SOL    HW119656   1.986   5.849   5.332 -0.0926 -0.7575  0.8786
 6324SOL    HW219657   1.970   5.855   5.482 -0.8716 -0.9466  0.8076
 6325SOL     OW19658   0.781   4.835   5.677  0.1085 -0.2004 -0.2524
 6325SOL    HW119659   0.744   4.865   5.594 -1.3304 -0.7292  0.1648
 6325SOL    HW219660   0.730   4.757   5.699  0.4360 -0.0459  1.1579
 6326SOL     OW19661   2.065   3.436   3.365  0.1942  0.1931 -0.3355
 6326SOL    HW119662   2.020   3.388   3.295  0.4925  2.9277 -2.5699
 6326SOL    HW219663   2.018   3.410   3.445 -2.4226 -0.5422 -1.9670
 6327SOL     OW19664   3.149   1.869   1.788 -0.8253  0.4206  0.1334
 6327SOL    HW119665   3.161   1.833   1.700 -2.0646  3.4350 -1.4196
 6327SOL    HW219666   3.234   1.904   1.812 -0.0425 -1.8453  0.9614
 6328SOL     OW19667   2.205   4.091   4.353  0.0174  0.3525 -0.1381
 6328SOL    HW119668   2.129   4.033   4.355  0.7512 -0.7149  3.4086
 6328SOL    HW219669   2.169   4.179   4.342 -1.5075 -0.3111 -0.6612
 6329SOL     OW19670   0.958   0.482   6.139 -0.6858 -0.0437 -0.4306
 6329SOL    HW119671   0.888   0.532   6.180 -0.1570  1.4028 -1.2242
 6329SOL    HW219672   0.986   0.420   6.206 -1.2618  0.8298  0.6425
 6330SOL     OW19673   0.719   5.840   4.594  0.0719  0.1407 -0.0542
 6330SOL    HW119674   0.677   5.906   4.649 -0.1983  0.5852 -0.7829
 6330SOL    HW219675   0.774   5.890   4.534  0.6971 -0.3656  0.0887
 6331SOL     OW19676   2.841   4.090   6.146 -0.2728  0.4509 -0.3260
 6331SOL    HW119677   2.774   4.036   6.188  0.5967 -1.9076 -1.7906
 6331SOL    HW219678   2.852   4.052   6.059  3.7515 -0.0728  0.2107
 6332SOL     OW19679   1.212   0.420   3.760  0.5915 -0.2050 -0.5493
 6332SOL    HW119680   1.172   0.356   3.702  0.7313 -0.1172 -0.7448
 6332SOL    HW219681   1.304   0.421   3.735  0.7576 -0.5506  0.0329
 6333SOL     OW19682   5.785   1.743   2.217  0.2312 -0.3757 -0.4737
 6333SOL    HW119683   5.716   1.685   2.250  1.8345 -1.9734  0.2065
 6333SOL    HW219684   5.747   1.831   2.224 -1.1969 -1.0664  1.2753
 6334SOL     OW19685   4.474   2.819   4.464 -0.3694 -0.3367 -0.4743
 6334SOL    HW119686   4.389   2.788   4.494  0.8796 -0.8803  3.0265
 6334SOL    HW219687   4.518   2.740   4.431  0.1714 -0.9675  1.5947
 6335SOL     OW19688   0.770   2.498   3.795 -0.0870 -0.5225 -0.4329
 6335SOL    HW119689   0.740   2.580   3.835  1.0621  0.2161 -1.0310
 6335SOL    HW219690   0.705   2.434   3.822  0.0504  0.1518  1.7540
 6336SOL     OW19691   0.653   4.072   4.568  0.3892  0.3923  0.5195
 6336SOL    HW119692   0.559   4.062   4.552  0.2958  1.6230  0.1828
 6336SOL    HW219693   0.658   4.138   4.637  1.0248  1.1459 -0.2233
 6337SOL     OW19694   0.966   1.067   5.453  0.0291  0.3964  0.1300
 6337SOL    HW119695   1.014   1.040   5.375 -0.5467 -1.4029  0.3500
 6337SOL    HW219696   0.874   1.068   5.427 -0.1269  0.2711  0.6482
 6338SOL     OW19697   0.952   4.420   0.877 -0.6703  0.7410 -0.0306
 6338SOL    HW119698   0.898   4.385   0.948  1.0165 -1.3153  0.3327
 6338SOL    HW219699   0.941   4.515   0.884 -1.0363  0.5851  2.6201
 6339SOL     OW19700   0.581   0.365   4.170 -0.0798 -0.0387  0.1286
 6339SOL    HW119701   0.537   0.299   4.223 -0.2516  1.6232  2.2323
 6339SOL    HW219702   0.513   0.399   4.112 -0.4013 -0.5906  0.1796
 6340SOL     OW19703   2.941   4.849   2.841 -1.0011 -0.3318  0.1881
 6340SOL    HW119704   2.996   4.921   2.871  0.6497 -1.6388  0.4936
 6340SOL    HW219705   2.987   4.815   2.764 -3.0401  0.4251 -1.4691
 6341SOL     OW19706   1.205   2.952   4.024 -0.3318  0.1006  0.1585
 6341SOL    HW119707   1.252   2.930   3.943  1.2886 -1.1261  1.3400
 6341SOL    HW219708   1.244   3.034   4.053 -0.9775  0.5892 -0.3162
 6342SOL     OW19709   2.671   4.823   5.578  0.6268  0.3829  0.6686
 6342SOL    HW119710   2.621   4.826   5.659 -0.8177  0.6047 -0.1968
 6342SOL    HW219711   2.717   4.907   5.574  2.8902 -0.6555  2.5254
 6343SOL     OW19712   4.884   6.442   2.681  0.3634  0.0758  0.4314
 6343SOL    HW119713   4.834   6.361   2.671  1.5737 -0.9544  2.1530
 6343SOL    HW219714   4.818   6.511   2.685 -0.6530 -0.5484 -2.6636
 6344SOL     OW19715   6.072   1.675   3.170 -0.2823 -0.0576 -0.4119
 6344SOL    HW119716   6.123   1.638   3.098 -0.0707 -0.7311  0.0766
 6344SOL    HW219717   6.032   1.753   3.133 -1.1609 -1.0452 -1.6231
 6345SOL     OW19718   5.861   1.436   2.984 -0.0603 -0.4934 -0.3322
 6345SOL    HW119719   5.875   1.355   2.935  2.7121  0.2056 -0.8438
 6345SOL    HW219720   5.798   1.486   2.931  0.6442 -0.9857 -1.6821
 6346SOL     OW19721   1.068   6.488   2.232 -0.2811 -0.3645 -0.3471
 6346SOL    HW119722   1.045   6.487   2.325  0.3476 -0.4334 -0.1890
 6346SOL    HW219723   1.122   6.410   2.221  2.4485  1.3584 -0.0457
 6347SOL     OW19724   6.423   5.568   5.518  0.2903 -0.1224 -0.2503
 6347SOL    HW119725   6.348   5.618   5.549  0.8713  0.5511  0.0891
 6347SOL    HW219726   6.469   5.541   5.598  0.4500 -0.4777 -0.4575
 6348SOL     OW19727   1.976   6.241   0.390 -0.5167 -0.2011  0.7290
 6348SOL    HW119728   2.005   6.293   0.315  2.7153 -2.5376  0.1355
 6348SOL    HW219729   1.921   6.172   0.353 -0.0889 -0.5187  0.6736
 6349SOL     OW19730   3.820   1.519   6.015  0.5690 -0.4032  0.5093
 6349SOL    HW119731   3.901   1.561   6.043  0.3674  0.6776 -0.4657
 6349SOL    HW219732   3.830   1.508   5.921 -0.0711 -1.0383  0.5079
 6350SOL     OW19733   3.948   1.504   1.475  0.3082 -0.0296  0.4943
 6350SOL    HW119734   4.023   1.453   1.506  0.5227 -0.0040  0.0277
 6350SOL    HW219735   3.962   1.511   1.381 -0.0442  0.3673  0.4724
 6351SOL     OW19736   5.881   4.788   4.764  0.3976  0.0475  0.3559
 6351SOL    HW119737   5.880   4.777   4.669 -1.0739  2.4760 -0.0004
 6351SOL    HW219738   5.796   4.755   4.792  1.3138 -1.8504  1.0673
 6352SOL     OW19739   6.263   3.182   0.820 -0.7275 -0.4355 -0.7844
 6352SOL    HW119740   6.235   3.168   0.730 -1.4717 -0.1868 -0.6036
 6352SOL    HW219741   6.344   3.233   0.813 -1.4055  0.5970 -1.2950
 6353SOL     OW19742   2.338   1.915   2.602  0.7878  0.0957  0.4318
 6353SOL    HW119743   2.420   1.888   2.560  0.8323  1.2671 -0.2660
 6353SOL    HW219744   2.307   1.989   2.550 -0.8302 -0.4408  0.5547
 6354SOL     OW19745   3.819   0.546   2.099 -0.0731 -0.8482  0.2655
 6354SOL    HW119746   3.853   0.458   2.081 -1.3620 -1.4049  0.4490
 6354SOL    HW219747   3.896   0.595   2.130  0.6258 -1.9671  0.3816
 6355SOL     OW19748   3.144   0.337   4.070 -0.2965  0.2349  0.1969
 6355SOL    HW119749   3.172   0.268   4.009  0.3500 -0.5979  1.3908
 6355SOL    HW219750   3.218   0.397   4.073  0.0812 -0.2507  0.8920
 6356SOL     OW19751   2.156   5.242   1.027  0.3556  0.2658  0.0187
 6356SOL    HW119752   2.224   5.283   1.080 -2.4243  3.4330  1.5795
 6356SOL    HW219753   2.117   5.176   1.084  0.8447 -0.1878 -0.1645
 6357SOL     OW19754   4.521   4.267   3.931  0.3370  0.6695  0.1837
 6357SOL    HW119755   4.457   4.334   3.909  0.0653  0.0910 -0.8397
 6357SOL    HW219756   4.597   4.287   3.877  0.7750  0.9362  0.8756
 6358SOL     OW19757   2.334   2.042   1.466 -0.2917 -0.2134 -0.1218
 6358SOL    HW119758   2.347   2.137   1.464 -0.1924 -0.1971  0.7283
 6358SOL    HW219759   2.423   2.005   1.461 -0.1874 -0.2072  1.3160
 6359SOL     OW19760   0.018   4.006   3.844  0.5904  0.7549  0.0936
 6359SOL    HW119761  -0.034   4.055   3.908 -0.9216  1.9961 -1.9620
 6359SOL    HW219762   0.052   4.073   3.784  0.0854 -0.4938 -1.6779
 6360SOL     OW19763   6.123   4.618   4.853  0.6784  0.1405  0.4814
 6360SOL    HW119764   6.122   4.710   4.878 -0.8215  0.1231  0.5351
 6360SOL    HW219765   6.085   4.572   4.928 -0.2988 -0.3226 -0.2760
 6361SOL     OW19766   5.912   1.316   0.171 -0.3106  0.2495  0.2680
 6361SOL    HW119767   5.821   1.303   0.196 -0.5005 -1.4038 -1.0154
 6361SOL    HW219768   5.918   1.408   0.146 -2.3318 -0.1391 -2.0480
 6362SOL     OW19769   1.881   5.847   4.706 -0.2853 -0.1552 -0.0171
 6362SOL    HW119770   1.886   5.770   4.648  2.7042 -0.8113  0.9334
 6362SOL    HW219771   1.961   5.842   4.759 -2.1532  1.1623  3.2488
 6363SOL     OW19772   3.366   2.498   5.268  0.2305  0.0667 -0.0298
 6363SOL    HW119773   3.388   2.591   5.275  0.8787  0.0056 -1.0619
 6363SOL    HW219774   3.448   2.452   5.289  0.1674 -0.2432 -0.4448
 6364SOL     OW19775   2.410   5.713   5.248  0.1784  0.1744  0.3185
 6364SOL    HW119776   2.452   5.743   5.168 -1.0675 -1.4668 -1.0132
 6364SOL    HW219777   2.460   5.635   5.274  1.0299  1.0903  1.6161
 6365SOL     OW19778   0.017   1.656   2.379  0.6176  0.0888 -0.4920
 6365SOL    HW119779  -0.036   1.705   2.442  1.3921  1.3032 -0.7438
 6365SOL    HW219780  -0.046   1.622   2.315 -0.0418 -0.1146  0.2546
 6366SOL     OW19781   2.273   5.638   0.208  0.5449  0.2476 -0.2576
 6366SOL    HW119782   2.222   5.567   0.246 -0.3802  0.9843 -0.1058
 6366SOL    HW219783   2.227   5.661   0.127  1.3776  0.0365 -0.8064
 6367SOL     OW19784   0.010   2.274   3.365 -0.6233  0.5768  0.3076
 6367SOL    HW119785  -0.079   2.261   3.398 -0.6108  0.3238  0.2426
 6367SOL    HW219786  -0.000   2.338   3.295 -1.0604 -0.9712 -1.0997
 6368SOL     OW19787   1.699   2.731   1.174  0.4535 -0.3792 -0.1179
 6368SOL    HW119788   1.785   2.690   1.174  0.2741 -0.7746 -0.6566
 6368SOL    HW219789   1.700   2.789   1.098 -0.0966 -1.1556 -0.7405
 6369SOL     OW19790   4.848   5.942   3.017  0.3758  0.1179 -0.2869
 6369SOL    HW119791   4.779   5.922   3.081  0.0484 -1.0749 -0.9762
 6369SOL    HW219792   4.840   6.036   3.001 -1.7121 -0.1511 -1.0560
 6370SOL     OW19793   4.345   3.249   3.155  0.0095 -0.0985  0.0020
 6370SOL    HW119794   4.335   3.162   3.193 -0.5820  0.2332  0.6088
 6370SOL    HW219795   4.306   3.241   3.068 -0.3317 -0.3528  0.1762
 6371SOL     OW19796   2.916   6.122   3.528  0.3255  0.4419  0.0833
 6371SOL    HW119797   2.827   6.150   3.507  0.1114  0.9624  1.5506
 6371SOL    HW219798   2.910   6.087   3.617  1.3645 -0.6402 -0.2455
 6372SOL     OW19799   4.411   5.402   0.775 -0.3661 -0.0235 -0.2322
 6372SOL    HW119800   4.368   5.329   0.821 -0.4206 -0.4140 -0.8901
 6372SOL    HW219801   4.366   5.480   0.807 -0.1439 -0.2474  0.6672
 6373SOL     OW19802   4.394   2.669   5.458  0.1226 -0.9537 -0.2067
 6373SOL    HW119803   4.382   2.608   5.385 -3.4492 -0.0238 -0.5725
 6373SOL    HW219804   4.378   2.755   5.420  3.7044  0.2626  0.5997
 6374SOL     OW19805   2.430   1.636   1.075 -0.3334 -0.3320 -0.0632
 6374SOL    HW119806   2.363   1.703   1.062 -0.2948 -0.5354 -1.4606
 6374SOL    HW219807   2.383   1.563   1.115 -0.7645 -0.1678 -0.2680
 6375SOL     OW19808   1.619   4.562   4.924 -0.2243 -0.3645  0.1239
 6375SOL    HW119809   1.637   4.524   5.010 -0.3362  0.2871  0.4396
 6375SOL    HW219810   1.647   4.653   4.932 -1.5137  0.0627 -0.0914
 6376SOL     OW19811   5.980   6.292   1.473  0.5098 -0.4562 -0.5711
 6376SOL    HW119812   6.037   6.253   1.538  2.7777  0.0339 -2.1380
 6376SOL    HW219813   5.980   6.230   1.400 -2.0218 -1.0298 -0.1720
 6377SOL     OW19814   0.077   0.749   5.965  0.3168 -0.4677 -0.5391
 6377SOL    HW119815   0.021   0.826   5.955  0.7465 -0.1356 -0.4396
 6377SOL    HW219816   0.155   0.783   6.009  0.1033 -1.1464  0.3884
 6378SOL     OW19817   3.683   0.700   3.166  0.2477  0.1134 -0.1067
 6378SOL    HW119818   3.685   0.616   3.212 -0.4679  0.8829  1.4259
 6378SOL    HW219819   3.751   0.752   3.209 -1.7976  1.5570  1.6570
 6379SOL     OW19820   1.812   6.411   5.681  0.8443 -0.1010 -0.3125
 6379SOL    HW119821   1.848   6.369   5.760  0.3992 -0.0442 -0.0759
 6379SOL    HW219822   1.750   6.346   5.646 -0.2446  0.5558  0.3499
 6380SOL     OW19823   4.057   2.235   1.570 -0.4027  0.6358  0.3900
 6380SOL    HW119824   4.149   2.256   1.555  0.4357 -2.2399  1.0091
 6380SOL    HW219825   4.035   2.172   1.501 -1.1075 -0.7008  1.7912
 6381SOL     OW19826   3.809   4.100   4.432  0.2573 -0.2304  0.0291
 6381SOL    HW119827   3.860   4.181   4.435 -0.7759  0.4345  0.1200
 6381SOL    HW219828   3.818   4.063   4.519  1.5170 -0.7305 -0.2875
 6382SOL     OW19829   0.864   2.997   0.481  0.2402 -0.0442  0.7286
 6382SOL    HW119830   0.778   3.035   0.497  0.9871  1.3642  1.6835
 6382SOL    HW219831   0.856   2.906   0.509 -1.8501 -0.9782 -2.4158
 6383SOL     OW19832   4.641   1.939   1.097  0.3424 -0.9048 -0.1587
 6383SOL    HW119833   4.734   1.922   1.079  0.7214 -1.1660  1.8558
 6383SOL    HW219834   4.618   1.878   1.166 -0.5286  1.0520  1.3813
 6384SOL     OW19835   2.118   5.651   2.596  0.0394 -0.2615 -0.5261
 6384SOL    HW119836   2.163   5.648   2.512 -0.4349 -1.0551 -0.7687
 6384SOL    HW219837   2.185   5.627   2.660  0.4426  0.5093 -0.6578
 6385SOL     OW19838   3.468   1.396   2.952 -0.1325  0.2793 -0.3121
 6385SOL    HW119839   3.489   1.329   3.017  1.9361  1.6101  0.4792
 6385SOL    HW219840   3.416   1.350   2.887  1.7935 -2.3018 -0.1765
 6386SOL     OW19841   4.105   4.757   4.445  0.2614 -0.6379  0.5017
 6386SOL    HW119842   4.145   4.775   4.530  0.3579  1.4842  0.0599
 6386SOL    HW219843   4.013   4.738   4.465  0.2915 -0.1848  1.0723
 6387SOL     OW19844   4.888   1.966   5.537  0.5664 -0.9696  0.3509
 6387SOL    HW119845   4.944   2.032   5.496 -0.8698 -0.7752 -1.4114
 6387SOL    HW219846   4.799   1.991   5.514  0.0106 -4.5415 -2.1861
 6388SOL     OW19847   5.919   3.038   3.995  0.1308  0.5590  0.1229
 6388SOL    HW119848   5.861   3.065   3.924 -0.9684  0.6371  1.0319
 6388SOL    HW219849   5.989   3.104   3.994 -0.4328  1.1721 -0.2171
 6389SOL     OW19850   1.007   1.200   4.391  0.4487 -0.1313  0.5868
 6389SOL    HW119851   0.924   1.164   4.361 -0.7920  0.3882  3.0760
 6389SOL    HW219852   1.062   1.123   4.406 -0.4640 -0.6876  1.2059
 6390SOL     OW19853   1.931   5.167   2.769  0.0414  0.2731  0.6999
 6390SOL    HW119854   2.005   5.110   2.749  0.6556  1.3491 -0.2623
 6390SOL    HW219855   1.927   5.169   2.864 -0.5358 -2.0023  0.7811
 6391SOL     OW19856   3.256   2.690   4.975 -0.3476 -0.5384 -0.3810
 6391SOL    HW119857   3.314   2.689   4.899  1.7901  0.6946  1.1337
 6391SOL    HW219858   3.237   2.598   4.992  0.5871 -0.9292 -1.3484
 6392SOL     OW19859   5.897   4.796   2.619 -0.0155 -0.9183 -0.4729
 6392SOL    HW119860   5.881   4.707   2.586 -1.4172 -0.5112 -0.9908
 6392SOL    HW219861   5.844   4.852   2.562  0.1616  0.1581  0.3929
 6393SOL     OW19862   3.873   6.489   6.444 -0.2960  0.0988 -0.1948
 6393SOL    HW119863   3.929   6.420   6.480 -0.8030 -0.3793 -0.3060
 6393SOL    HW219864   3.883   6.562   6.506  0.3432 -0.0210 -0.1462
 6394SOL     OW19865   5.082   4.389   1.372 -0.3697  0.7465 -0.1571
 6394SOL    HW119866   5.061   4.298   1.351 -0.4308  0.6346  0.3571
 6394SOL    HW219867   5.176   4.396   1.352 -0.2927  0.4776  0.0819
 6395SOL     OW19868   2.554   0.525   5.572 -0.2531 -0.3322  0.1557
 6395SOL    HW119869   2.514   0.441   5.549 -2.3490  0.7947 -0.5918
 6395SOL    HW219870   2.631   0.531   5.515 -0.9950 -1.0438 -0.9699
 6396SOL     OW19871   5.519   1.611   0.729  0.0195  0.4650  0.2857
 6396SOL    HW119872   5.483   1.680   0.675  0.1730  0.5514  0.2938
 6396SOL    HW219873   5.609   1.638   0.748  0.3343 -0.1035 -0.3495
 6397SOL     OW19874   5.102   4.491   2.380  0.8801  0.1004 -0.0269
 6397SOL    HW119875   5.085   4.458   2.468  0.1818  0.8337  0.1240
 6397SOL    HW219876   5.113   4.413   2.327 -1.8755 -0.4490  0.0787
 6398SOL     OW19877   5.262   2.595   5.405 -0.4530 -0.0107  0.0896
 6398SOL    HW119878   5.234   2.646   5.481 -1.7434 -1.6994  0.8316
 6398SOL    HW219879   5.315   2.524   5.442 -0.8967 -0.7195 -0.5982
 6399SOL     OW19880   6.495   0.689   4.603 -0.6232  0.2679 -0.4372
 6399SOL    HW119881   6.505   0.597   4.627  0.3744  0.0371 -1.5862
 6399SOL    HW219882   6.492   0.737   4.686  0.0897 -0.6932  0.1512
 6400SOL     OW19883   1.336   1.882   3.540  1.0515  0.0143 -0.6653
 6400SOL    HW119884   1.381   1.806   3.579 -0.4555  0.4739  2.2666
 6400SOL    HW219885   1.248   1.849   3.520 -0.0750  1.1961  1.9245
 6401SOL     OW19886   0.623   5.788   1.809  0.4010  0.2904 -0.3027
 6401SOL    HW119887   0.578   5.788   1.893 -0.9556 -1.1914 -0.9740
 6401SOL    HW219888   0.710   5.822   1.828 -0.5146  1.9364  1.3108
 6402SOL     OW19889   5.982   1.061   3.327 -0.0561  0.5434 -0.4284
 6402SOL    HW119890   6.000   0.968   3.312  0.7781  0.7662 -0.8472
 6402SOL    HW219891   5.969   1.068   3.422 -2.2996 -0.3535 -0.6235
 6403SOL     OW19892   4.386   0.092   2.207 -0.3881  0.1558 -0.3144
 6403SOL    HW119893   4.376   0.108   2.300  2.6511  0.0325  0.1340
 6403SOL    HW219894   4.457   0.150   2.180  0.4564 -1.5227 -1.9898
 6404SOL     OW19895   5.627   2.871   0.987 -0.1810  0.2768  0.2862
 6404SOL    HW119896   5.532   2.861   0.991 -0.3804  1.8530  0.1292
 6404SOL    HW219897   5.645   2.890   0.895  0.3544 -0.5350  0.2162
 6405SOL     OW19898   2.062   3.733   3.307 -0.2218  0.5174 -0.0524
 6405SOL    HW119899   2.053   3.644   3.341  0.3004  1.1938  1.9338
 6405SOL    HW219900   2.047   3.723   3.213 -2.1630 -1.3658  0.3586
 6406SOL     OW19901   6.329   0.297   4.452  0.0222 -0.0126  0.2627
 6406SOL    HW119902   6.312   0.302   4.358 -1.1104 -0.7964  0.4042
 6406SOL    HW219903   6.257   0.243   4.486  1.5637 -1.5488  1.2636
 6407SOL     OW19904   6.417   1.750   2.594  0.1440  0.5676 -0.3611
 6407SOL    HW119905   6.427   1.767   2.688 -0.2022 -0.4078 -0.1393
 6407SOL    HW219906   6.391   1.835   2.557 -0.4991  0.7794  0.5459
 6408SOL     OW19907   6.185   0.723   6.296 -0.4053  0.0672 -0.2237
 6408SOL    HW119908   6.116   0.755   6.354 -0.2039 -0.9907  0.6334
 6408SOL    HW219909   6.262   0.773   6.322 -0.5938  0.4629 -0.4204
 6409SOL     OW19910   5.692   5.312   3.168 -0.0228  0.1268  0.2137
 6409SOL    HW119911   5.637   5.297   3.092 -0.6701  0.1666  0.6675
 6409SOL    HW219912   5.706   5.225   3.206  2.5888 -0.3079 -1.4686
 6410SOL     OW19913   6.283   6.470   4.985  0.2446 -0.3703 -0.1913
 6410SOL    HW119914   6.277   6.374   4.981  0.7508 -0.6697  3.2049
 6410SOL    HW219915   6.364   6.487   5.034 -1.6658  1.5564  2.6364
 6411SOL     OW19916   4.758   4.987   5.364  0.0742 -0.2522 -0.3417
 6411SOL    HW119917   4.701   4.945   5.300 -1.1578  0.4325  0.2744
 6411SOL    HW219918   4.765   5.078   5.335 -0.9352  0.1994  0.7515
 6412SOL     OW19919   4.110   4.180   4.448  0.1653  0.0827 -0.0809
 6412SOL    HW119920   4.143   4.157   4.362  1.5898  0.9995  0.1905
 6412SOL    HW219921   4.172   4.244   4.482 -0.4830 -0.0852  1.5425
 6413SOL     OW19922   4.105   0.932   0.302  0.1850  0.0726  0.5355
 6413SOL    HW119923   4.049   0.859   0.328  1.9398 -1.1405  1.1151
 6413SOL    HW219924   4.119   0.982   0.383  1.4019 -0.6981  0.8249
 6414SOL     OW19925   3.399   2.457   0.636  0.1237  0.0946  0.2563
 6414SOL    HW119926   3.479   2.470   0.586 -0.6946 -0.4445 -1.2508
 6414SOL    HW219927   3.361   2.544   0.646  1.2833  0.4692  1.7091
 6415SOL     OW19928   4.412   1.141   3.212 -0.4868 -0.0237 -0.6522
 6415SOL    HW119929   4.349   1.152   3.141 -1.3066 -0.7979 -0.0707
 6415SOL    HW219930   4.401   1.218   3.267 -1.0859 -0.2563 -0.4426
 6416SOL     OW19931   3.861   1.130   1.795  0.3567  0.4138  0.5764
 6416SOL    HW119932   3.822   1.218   1.795  0.0097  0.2591  0.6124
 6416SOL    HW219933   3.853   1.100   1.704 -0.2406  0.1030  0.7267
 6417SOL     OW19934   6.435   5.048   5.810  0.3700 -0.1570 -0.2324
 6417SOL    HW119935   6.368   5.059   5.743 -0.0967  0.2688  0.2912
 6417SOL    HW219936   6.518   5.047   5.762 -0.1074 -3.2555 -1.1690
 6418SOL     OW19937   3.144   1.730   2.019  0.2353 -0.0790 -0.3011
 6418SOL    HW119938   3.224   1.755   2.065 -0.0346  2.5099 -1.1123
 6418SOL    HW219939   3.141   1.786   1.942 -1.9281 -0.7236 -0.7736
 6419SOL     OW19940   5.119   0.469   0.762 -0.2775  0.1106  0.2555
 6419SOL    HW119941   5.103   0.551   0.808  1.7114  0.5524  0.2450
 6419SOL    HW219942   5.052   0.466   0.694  0.3572  2.3691 -0.5511
 6420SOL     OW19943   2.641   6.455   2.541 -0.2415 -0.1101 -0.1184
 6420SOL    HW119944   2.654   6.465   2.635 -0.3583  0.8826 -0.1985
 6420SOL    HW219945   2.628   6.544   2.509  2.3784 -0.1202 -1.4587
 6421SOL     OW19946   5.718   3.529   1.154  0.1971  0.3657  0.4909
 6421SOL    HW119947   5.661   3.579   1.214 -1.4193 -1.5300  0.6239
 6421SOL    HW219948   5.795   3.508   1.207 -0.1866  0.6478  1.1798
 6422SOL     OW19949   5.517   5.548   5.751  0.2485 -0.0246  0.3494
 6422SOL    HW119950   5.516   5.589   5.837 -0.6447 -1.6062  1.1386
 6422SOL    HW219951   5.598   5.497   5.749 -0.3928 -1.1120  0.8557
 6423SOL     OW19952   0.244   3.186   1.379 -0.0246 -0.0433  0.2884
 6423SOL    HW119953   0.299   3.117   1.341  0.2320  0.0705  0.4528
 6423SOL    HW219954   0.199   3.224   1.304 -1.0194 -1.1242  0.3008
 6424SOL     OW19955   4.255   2.301   0.747 -0.2304  0.2864 -0.3305
 6424SOL    HW119956   4.230   2.355   0.672 -0.8542  0.4093 -0.0327
 6424SOL    HW219957   4.193   2.324   0.815  0.2809  0.1063  0.2012
 6425SOL     OW19958   5.272   4.512   0.712 -0.0218 -0.4384 -0.5231
 6425SOL    HW119959   5.207   4.451   0.746  0.6062 -0.8011  0.0543
 6425SOL    HW219960   5.297   4.565   0.787 -0.9198  0.8847 -1.1276
 6426SOL     OW19961   5.535   5.937   4.122 -0.2607 -0.3838  0.3034
 6426SOL    HW119962   5.611   5.931   4.064 -1.4208  2.1894 -1.6990
 6426SOL    HW219963   5.556   5.880   4.195  3.7070  0.3713 -0.0283
 6427SOL     OW19964   6.269   2.992   1.977  0.1817 -0.7154 -0.2083
 6427SOL    HW119965   6.225   2.989   1.892 -1.2859  2.7244  0.2840
 6427SOL    HW219966   6.202   2.963   2.039 -0.3008  1.1438  0.1809
 6428SOL     OW19967   1.072   4.433   3.148  0.0637 -0.3349  0.4069
 6428SOL    HW119968   1.022   4.456   3.071 -0.0351 -1.7185  0.0257
 6428SOL    HW219969   1.034   4.486   3.219 -0.3971  0.3170 -0.3177
 6429SOL     OW19970   1.637   0.739   3.721  0.1760  1.0335  0.0703
 6429SOL    HW119971   1.688   0.792   3.659 -0.4447  2.5037  0.7693
 6429SOL    HW219972   1.603   0.802   3.784 -1.6028 -0.0450  0.2596
 6430SOL     OW19973   3.829   4.351   1.380  0.5596  0.3608 -0.0522
 6430SOL    HW119974   3.768   4.295   1.332  1.1741 -2.1800  1.9111
 6430SOL    HW219975   3.914   4.335   1.339  0.8620 -0.8150  0.9631
 6431SOL     OW19976   0.977   1.708   1.507  0.1738  0.1106 -0.7321
 6431SOL    HW119977   1.034   1.649   1.458  0.2055  0.4353 -1.0954
 6431SOL    HW219978   1.013   1.707   1.596  0.1547 -0.4339 -0.7294
 6432SOL     OW19979   1.449   0.860   0.042  0.1554  0.0397 -0.0930
 6432SOL    HW119980   1.473   0.828  -0.046  1.9380 -0.5686  0.5676
 6432SOL    HW219981   1.383   0.798   0.072  0.9133 -0.8919 -0.2842
 6433SOL     OW19982   6.140   2.307   2.339 -0.5404 -0.6738 -0.0113
 6433SOL    HW119983   6.188   2.310   2.256  1.0396 -1.9944  0.8218
 6433SOL    HW219984   6.057   2.265   2.316 -0.9947  0.8085 -1.2853
 6434SOL     OW19985   0.385   1.134   5.177 -0.4879  0.0643  0.0017
 6434SOL    HW119986   0.361   1.165   5.090 -0.9499 -1.5982 -0.4954
 6434SOL    HW219987   0.387   1.039   5.169 -0.9758 -0.1468  1.9102
 6435SOL     OW19988   1.127   3.309   5.871 -0.5208 -0.5906 -0.3305
 6435SOL    HW119989   1.214   3.317   5.832 -0.3835  1.2063  0.2678
 6435SOL    HW219990   1.076   3.379   5.829 -0.9329  0.0604  1.1941
 6436SOL     OW19991   1.309   0.673   3.450  0.0780 -0.5509 -0.1933
 6436SOL    HW119992   1.262   0.687   3.532 -1.8752 -0.1829 -1.3105
 6436SOL    HW219993   1.268   0.595   3.412 -0.4652  0.4417 -1.7396
 6437SOL     OW19994   3.947   0.311   2.888  0.3519  0.0387 -0.2869
 6437SOL    HW119995   3.952   0.365   2.809 -0.5469  0.3954 -0.1049
 6437SOL    HW219996   3.855   0.287   2.895  0.3752  0.2285  0.8038
 6438SOL     OW19997   5.645   0.172   5.028 -0.6563  0.1988  0.2869
 6438SOL    HW119998   5.640   0.221   5.111  0.2848  0.5618  0.1367
 6438SOL    HW219999   5.702   0.225   4.973  0.7617 -1.2860  0.2701
 6439SOL     OW20000   3.709   5.728   1.346 -0.2166  0.3777 -0.2401
 6439SOL    HW120001   3.669   5.790   1.284 -0.3492  0.2372 -0.2947
 6439SOL    HW220002   3.776   5.779   1.391 -0.5484  0.6534 -0.0522
 6440SOL     OW20003   3.604   0.369   0.778 -0.0351  0.2225  0.7620
 6440SOL    HW120004   3.659   0.412   0.712  0.1454 -1.2922 -0.0978
 6440SOL    HW220005   3.596   0.279   0.748 -2.1146  0.1389  1.4585
 6441SOL     OW20006   3.131   0.749   4.802 -0.2962  0.1714  0.1402
 6441SOL    HW120007   3.221   0.720   4.816 -0.9076 -2.4552 -0.7926
 6441SOL    HW220008   3.093   0.753   4.889  0.2412 -0.5298  0.4165
 6442SOL     OW20009   6.103   3.348   5.496  0.2744  0.9163 -0.1532
 6442SOL    HW120010   6.086   3.441   5.487 -1.0775  0.9391  1.8668
 6442SOL    HW220011   6.139   3.339   5.585  0.8886 -0.4206 -0.5131
 6443SOL     OW20012   1.413   6.348   4.893 -0.2458  0.2433 -0.1761
 6443SOL    HW120013   1.399   6.299   4.974  0.7571 -1.1626 -0.8109
 6443SOL    HW220014   1.483   6.410   4.914 -0.5807  0.4804  0.2557
 6444SOL     OW20015   2.446   5.078   1.135 -0.0775  0.4602  0.4373
 6444SOL    HW120016   2.539   5.065   1.115 -0.6729 -0.7917 -1.8760
 6444SOL    HW220017   2.446   5.129   1.216  2.6019 -1.3309  1.7405
 6445SOL     OW20018   0.451   3.919   4.248  0.3816 -0.1549 -0.1031
 6445SOL    HW120019   0.410   3.997   4.284 -0.4652 -0.0807 -1.1836
 6445SOL    HW220020   0.450   3.856   4.320 -1.9976 -0.2844 -0.1927
 6446SOL     OW20021   6.464   0.765   2.152 -0.5295 -0.3593  0.4212
 6446SOL    HW120022   6.493   0.785   2.241 -0.7259  0.3043  0.3441
 6446SOL    HW220023   6.423   0.846   2.122  1.4101  0.1527 -1.0289
 6447SOL     OW20024   4.481   3.914   1.048 -0.0364 -0.4022  0.2728
 6447SOL    HW120025   4.505   4.006   1.038  1.7593 -1.0279 -1.8325
 6447SOL    HW220026   4.524   3.888   1.130  1.3504  0.1114 -0.2481
 6448SOL     OW20027   3.294   0.621   2.255 -0.0450  0.1489 -0.1014
 6448SOL    HW120028   3.282   0.697   2.311  1.1148  1.1565 -1.1596
 6448SOL    HW220029   3.247   0.551   2.300  2.2328  0.4162  3.0423
 6449SOL     OW20030   6.148   4.302   2.595  0.6252  0.3103  0.0191
 6449SOL    HW120031   6.158   4.267   2.683  0.9688  0.0805 -0.1099
 6449SOL    HW220032   6.191   4.238   2.538 -1.1139 -0.4626 -0.5073
 6450SOL     OW20033   5.991   2.259   0.995  0.4375  0.4326  0.3007
 6450SOL    HW120034   5.928   2.321   1.032  2.0620  1.1402  2.0412
 6450SOL    HW220035   5.944   2.176   0.990 -1.3861  1.4610 -0.8655
 6451SOL     OW20036   4.587   2.696   6.296 -0.5541  0.0839 -0.5627
 6451SOL    HW120037   4.498   2.730   6.307 -0.6295  0.1033 -1.2308
 6451SOL    HW220038   4.576   2.603   6.281 -0.5561  0.2903 -1.9612
 6452SOL     OW20039   6.495   0.359   2.563 -0.2820  0.2520 -0.9147
 6452SOL    HW120040   6.460   0.435   2.516  1.5750  1.2345 -0.7993
 6452SOL    HW220041   6.589   0.377   2.571  0.0491 -1.6355 -0.0624
 6453SOL     OW20042   3.877   5.761   2.050  0.0947  0.2404  0.6918
 6453SOL    HW120043   3.916   5.688   2.001 -0.8635 -0.3298  0.7575
 6453SOL    HW220044   3.883   5.733   2.142 -0.2905  0.2259  0.7150
 6454SOL     OW20045   0.233   4.212   6.246  0.2715  0.2471  0.6357
 6454SOL    HW120046   0.295   4.171   6.307  0.2218  0.0594  0.5606
 6454SOL    HW220047   0.153   4.161   6.256  0.0291  0.6868  0.9642
 6455SOL     OW20048   2.163   4.157   6.155  0.3592  0.4942 -0.2209
 6455SOL    HW120049   2.115   4.152   6.237  1.1952 -2.2308  0.2290
 6455SOL    HW220050   2.241   4.209   6.176  0.2952  0.2783  0.5941
 6456SOL     OW20051   1.886   5.110   0.053 -0.0440 -0.3790 -0.4649
 6456SOL    HW120052   1.908   5.019   0.032  2.0176 -0.3005  1.0471
 6456SOL    HW220053   1.945   5.162  -0.001 -0.9326  0.0917 -1.0154
 6457SOL     OW20054   3.781   6.067   5.062  0.2521  0.1720  0.0549
 6457SOL    HW120055   3.734   6.019   5.130  1.2558 -1.7839 -0.5477
 6457SOL    HW220056   3.860   6.015   5.047  1.2677  1.9002 -0.8697
 6458SOL     OW20057   6.220   5.442   3.519  0.4789 -0.2149  0.1793
 6458SOL    HW120058   6.257   5.354   3.506 -0.3020 -0.5253 -0.0095
 6458SOL    HW220059   6.273   5.480   3.589  1.1728 -0.6308 -0.1060
 6459SOL     OW20060   2.713   6.248   1.988 -0.1989 -0.1839 -0.3836
 6459SOL    HW120061   2.693   6.320   2.048 -0.6268 -1.8270  1.5639
 6459SOL    HW220062   2.660   6.175   2.019  0.2751 -1.3915 -2.2394
 6460SOL     OW20063   4.568   2.640   0.956  0.4134 -0.1169  0.2101
 6460SOL    HW120064   4.529   2.560   0.923  0.5693  0.0195 -0.3185
 6460SOL    HW220065   4.563   2.632   1.051  1.4948 -1.2803  0.1963
 6461SOL     OW20066   1.773   5.103   5.361  0.7664 -0.2465  0.5943
 6461SOL    HW120067   1.736   5.132   5.444  0.7554  0.3915  0.3732
 6461SOL    HW220068   1.786   5.009   5.372  0.7318 -0.1741  1.3040
 6462SOL     OW20069   5.236   1.963   5.990 -0.0426  0.1182  0.4428
 6462SOL    HW120070   5.258   1.989   6.079 -1.4307  1.8544  0.3405
 6462SOL    HW220071   5.196   1.876   6.000  0.7613 -0.1695  1.3567
 6463SOL     OW20072   0.615   2.054   0.197 -0.4412  0.2730 -0.1352
 6463SOL    HW120073   0.549   2.023   0.135 -1.0259 -2.0099  1.5298
 6463SOL    HW220074   0.699   2.030   0.156 -0.7897 -0.5148 -0.4046
 6464SOL     OW20075   4.604   1.877   2.852  0.1326  0.3018 -0.5424
 6464SOL    HW120076   4.627   1.912   2.938  0.0306  0.1754 -0.4641
 6464SOL    HW220077   4.541   1.940   2.817 -2.2929 -1.2316  0.7799
 6465SOL     OW20078   6.250   3.521   0.580 -0.0073  0.1243  0.7479
 6465SOL    HW120079   6.313   3.456   0.609  0.4063  0.7673  1.3218
 6465SOL    HW220080   6.225   3.568   0.660 -2.0450 -0.8034  0.7268
 6466SOL     OW20081   3.069   0.374   5.485 -0.2594 -0.0932 -0.3068
 6466SOL    HW120082   3.006   0.314   5.444 -0.0712 -0.8119  0.4182
 6466SOL    HW220083   3.151   0.357   5.439 -0.4298  0.3260 -0.7694
 6467SOL     OW20084   4.840   1.376   1.673  0.4552  0.0292  0.2249
 6467SOL    HW120085   4.831   1.283   1.693 -0.8696  0.3173  1.0979
 6467SOL    HW220086   4.926   1.401   1.707  2.1346 -1.4591 -2.5643
 6468SOL     OW20087   4.641   0.709   1.234 -0.3216  0.0391 -0.5723
 6468SOL    HW120088   4.617   0.779   1.294 -0.2814 -0.1122 -0.3777
 6468SOL    HW220089   4.654   0.633   1.290 -0.8811 -0.2590 -0.8291
 6469SOL     OW20090   2.965   0.637   2.266 -0.0264 -0.3367 -0.2721
 6469SOL    HW120091   2.998   0.717   2.225 -0.4564 -1.8092 -3.7933
 6469SOL    HW220092   2.874   0.657   2.287  0.1747  0.4194 -0.0496
 6470SOL     OW20093   6.420   5.169   5.086 -0.2548  0.0443  0.2631
 6470SOL    HW120094   6.387   5.079   5.094 -1.2189  0.4528  1.1239
 6470SOL    HW220095   6.447   5.177   4.995  0.2210 -1.2448  0.2703
 6471SOL     OW20096   3.644   2.278   4.719  0.0488 -0.9002 -0.0100
 6471SOL    HW120097   3.551   2.292   4.737  0.8065  3.8305  1.6000
 6471SOL    HW220098   3.667   2.201   4.772 -2.5078 -0.9478  1.1986
 6472SOL     OW20099   4.332   2.728   1.401  0.6228  0.3985 -0.6956
 6472SOL    HW120100   4.299   2.650   1.356  0.1329  0.9189 -1.2443
 6472SOL    HW220101   4.274   2.737   1.477 -0.0954  0.9198 -1.2906
 6473SOL     OW20102   2.701   1.427   5.369  1.1854  0.0283  0.0735
 6473SOL    HW120103   2.738   1.444   5.456  0.8230  2.6760 -0.1986
 6473SOL    HW220104   2.707   1.511   5.324 -0.4358 -0.7717 -1.7776
 6474SOL     OW20105   0.921   5.379   2.797 -0.1438  0.3070  0.0959
 6474SOL    HW120106   0.965   5.393   2.713 -1.1999 -1.9723 -0.9293
 6474SOL    HW220107   0.869   5.458   2.811  0.0138  0.7012 -1.4221
 6475SOL     OW20108   5.429   2.633   3.931  0.2417 -0.2914 -0.3533
 6475SOL    HW120109   5.444   2.728   3.924 -1.1099  0.0576  0.9054
 6475SOL    HW220110   5.506   2.600   3.976  0.2758  0.3932  0.1075
 6476SOL     OW20111   3.674   0.415   3.957 -0.1477 -0.2825  0.3602
 6476SOL    HW120112   3.644   0.341   4.010 -1.5177 -1.6419 -2.1148
 6476SOL    HW220113   3.768   0.402   3.950 -0.0519 -0.5141  1.7630
 6477SOL     OW20114   4.032   5.686   1.250  0.1545  0.0183  0.7176
 6477SOL    HW120115   4.114   5.665   1.205 -0.2245 -0.0466  0.0365
 6477SOL    HW220116   3.988   5.748   1.191 -0.1479  0.2845  1.2207
 6478SOL     OW20117   2.407   4.277   6.150 -0.7846  0.1334  0.7767
 6478SOL    HW120118   2.418   4.230   6.233  0.1235 -0.6139  0.2483
 6478SOL    HW220119   2.496   4.295   6.121 -1.0640 -0.4948 -0.5275
 6479SOL     OW20120   6.310   5.634   2.323 -0.3762  0.0847 -0.2681
 6479SOL    HW120121   6.302   5.610   2.231 -0.1595 -0.2719 -0.1955
 6479SOL    HW220122   6.241   5.699   2.337 -0.9733 -0.4954 -0.4736
 6480SOL     OW20123   2.247   2.553   0.539 -0.0339 -0.4580  0.5586
 6480SOL    HW120124   2.285   2.548   0.626 -0.2007 -1.9214  0.5697
 6480SOL    HW220125   2.307   2.611   0.490  0.4298 -0.1793  1.4403
 6481SOL     OW20126   3.307   3.386   5.691 -0.7803  0.2175 -0.7302
 6481SOL    HW120127   3.288   3.321   5.624  0.0818 -1.2609  0.3894
 6481SOL    HW220128   3.351   3.457   5.644 -0.1511 -0.8034 -1.7343
 6482SOL     OW20129   2.226   2.478   6.017 -0.6443  0.7938  0.1008
 6482SOL    HW120130   2.277   2.486   6.097  0.3041 -1.9337 -0.1397
 6482SOL    HW220131   2.233   2.386   5.992  0.4217  1.7396 -3.9407
 6483SOL     OW20132   3.653   5.705   3.771  0.1072  0.4211  0.3350
 6483SOL    HW120133   3.718   5.651   3.816  0.9952  0.9001 -0.3184
 6483SOL    HW220134   3.698   5.789   3.758 -0.7127  0.8204  0.0237
 6484SOL     OW20135   3.518   3.089   4.971  0.5017  0.1478 -0.0637
 6484SOL    HW120136   3.513   3.045   4.886  0.2664  0.7176 -0.3487
 6484SOL    HW220137   3.611   3.107   4.984  0.8294 -1.9244  0.8350
 6485SOL     OW20138   0.770   0.249   3.487 -0.9208  0.6516  0.3866
 6485SOL    HW120139   0.808   0.305   3.555  0.6789  0.2928 -0.1655
 6485SOL    HW220140   0.744   0.170   3.534  2.0865 -0.4845  0.3824
 6486SOL     OW20141   0.498   3.800   3.086 -0.5753  0.0852 -0.3360
 6486SOL    HW120142   0.561   3.872   3.076  1.0513 -0.6731  2.9264
 6486SOL    HW220143   0.522   3.759   3.169 -2.3396 -3.3798 -1.3455
 6487SOL     OW20144   2.252   5.996   2.259 -0.0408  0.0046  0.2728
 6487SOL    HW120145   2.176   5.987   2.317 -0.1420 -1.8984 -0.0871
 6487SOL    HW220146   2.239   6.080   2.214 -3.0743 -1.2015 -1.3362
 6488SOL     OW20147   5.054   5.456   1.451 -0.3401  0.0922 -0.3385
 6488SOL    HW120148   5.096   5.541   1.467  1.0269 -0.5421 -0.4106
 6488SOL    HW220149   5.015   5.465   1.364  0.1200  0.5113 -0.5065
 6489SOL     OW20150   3.668   2.061   2.611  0.0675  0.3859 -0.1952
 6489SOL    HW120151   3.580   2.059   2.575  0.0931  0.2260 -0.2484
 6489SOL    HW220152   3.719   2.004   2.555  0.1581  0.3128 -0.0396
 6490SOL     OW20153   3.404   4.690   2.631 -0.6125  0.0606 -0.2340
 6490SOL    HW120154   3.388   4.703   2.724  0.3171  1.8200 -0.2809
 6490SOL    HW220155   3.460   4.613   2.626 -1.4887 -0.6491  0.5642
 6491SOL     OW20156   2.160   0.992   1.658 -0.8143  0.2758 -0.1273
 6491SOL    HW120157   2.218   0.999   1.582 -1.3306  3.3541 -0.3742
 6491SOL    HW220158   2.193   1.058   1.719 -0.6562 -1.8474  2.2231
 6492SOL     OW20159   0.289   5.198   2.235  0.3382 -0.4066 -0.5220
 6492SOL    HW120160   0.309   5.278   2.284 -0.7993 -0.2026 -0.3631
 6492SOL    HW220161   0.195   5.205   2.215  0.5404 -1.0036 -1.7755
 6493SOL     OW20162   4.803   5.099   4.085 -0.6987  0.2377 -0.6017
 6493SOL    HW120163   4.803   5.107   4.180  0.3430  1.0844 -0.6451
 6493SOL    HW220164   4.712   5.080   4.061 -1.7613  3.5308  0.2975
 6494SOL     OW20165   2.462   2.590   0.239 -0.7575  0.4049  0.3294
 6494SOL    HW120166   2.549   2.555   0.257 -0.5266  0.3973 -0.7236
 6494SOL    HW220167   2.445   2.651   0.311 -0.1824 -0.1117  0.9197
 6495SOL     OW20168   0.404   5.344   2.814  0.4531 -0.5581 -0.1487
 6495SOL    HW120169   0.403   5.431   2.853  0.2139 -0.8160  0.4353
 6495SOL    HW220170   0.335   5.296   2.861  0.7533 -1.1346 -0.2863
 6496SOL     OW20171   1.917   5.871   1.042  0.0441 -0.9847 -0.3100
 6496SOL    HW120172   1.887   5.838   1.127  2.4707  0.1976  1.1060
 6496SOL    HW220173   2.011   5.853   1.041  0.8091  2.3795 -1.0664
 6497SOL     OW20174   4.483   0.040   0.789  0.3617  0.3790  0.3268
 6497SOL    HW120175   4.497   0.128   0.825 -2.0913  1.4185 -0.9912
 6497SOL    HW220176   4.552   0.029   0.723  2.0683  0.3243  2.0394
 6498SOL     OW20177   6.082   4.612   3.247 -0.5481 -0.1158  0.1810
 6498SOL    HW120178   5.991   4.601   3.275 -1.2450  1.2650 -1.4067
 6498SOL    HW220179   6.094   4.545   3.179 -0.2486 -0.5362  0.6411
 6499SOL     OW20180   5.865   1.608   5.127 -0.0600  0.1943  0.2902
 6499SOL    HW120181   5.783   1.625   5.081 -0.2142  1.8868  1.1106
 6499SOL    HW220182   5.850   1.526   5.175 -1.8625  1.2628  1.6804
 6500SOL     OW20183   1.358   0.414   6.303 -0.0064  0.3158  0.1538
 6500SOL    HW120184   1.422   0.365   6.252 -0.4048 -0.4837  0.4000
 6500SOL    HW220185   1.404   0.438   6.383 -0.2312 -0.9288  0.6733
 6501SOL     OW20186   1.055   0.482   2.226 -0.1102 -0.1733 -0.3184
 6501SOL    HW120187   1.031   0.432   2.147  2.0630 -1.0051 -0.5323
 6501SOL    HW220188   1.113   0.551   2.194  2.5792 -1.8130  0.6695
 6502SOL     OW20189   0.924   6.182   1.327 -0.1134 -0.0292  0.1500
 6502SOL    HW120190   0.988   6.176   1.256 -0.3666  0.7362 -0.1547
 6502SOL    HW220191   0.889   6.271   1.320 -1.2362 -0.4453  0.2928
 6503SOL     OW20192   0.171   0.565   4.025 -0.2451  0.6212 -0.2630
 6503SOL    HW120193   0.079   0.572   4.053 -0.2773  0.8221 -0.4190
 6503SOL    HW220194   0.167   0.523   3.939 -0.1009 -0.6954  0.3350
 6504SOL     OW20195   4.488   4.552   4.736 -0.1124  0.2486  0.4656
 6504SOL    HW120196   4.560   4.599   4.693 -0.1436 -1.7147 -2.0301
 6504SOL    HW220197   4.531   4.479   4.781 -0.2263  1.5082  2.7556
 6505SOL     OW20198   4.728   5.029   4.850 -0.0519  0.1278  0.1304
 6505SOL    HW120199   4.761   4.957   4.904  0.2449  0.4445  0.3792
 6505SOL    HW220200   4.758   5.108   4.895  0.5372  0.3908 -0.7012
 6506SOL     OW20201   4.533   6.199   4.921  0.2597  0.2254 -0.4012
 6506SOL    HW120202   4.540   6.166   5.011 -1.6887  1.2037  0.1673
 6506SOL    HW220203   4.486   6.130   4.874  0.4829  0.1081 -0.4557
 6507SOL     OW20204   5.916   3.062   0.708  0.0107 -0.4283  0.2224
 6507SOL    HW120205   5.827   3.083   0.736 -0.3776 -1.0770 -0.5024
 6507SOL    HW220206   5.970   3.079   0.786 -0.9323 -1.4593  1.1327
 6508SOL     OW20207   2.830   1.051   4.635 -0.0645  0.0528  0.4052
 6508SOL    HW120208   2.753   1.104   4.656 -1.0786 -1.0568 -0.3749
 6508SOL    HW220209   2.872   1.098   4.563  0.8887  1.4637  1.7975
 6509SOL     OW20210   3.174   6.307   5.514  0.4563 -0.7426  1.5463
 6509SOL    HW120211   3.118   6.233   5.536  0.5887 -0.8588  1.4956
 6509SOL    HW220212   3.255   6.291   5.564  0.8730 -1.1614  0.7452
 6510SOL     OW20213   2.235   4.117   5.769  0.4013  0.2041 -0.1464
 6510SOL    HW120214   2.221   4.054   5.698 -2.2073  0.1649  0.2997
 6510SOL    HW220215   2.293   4.071   5.830 -0.6265 -1.4098 -0.3152
 6511SOL     OW20216   3.634   4.898   6.087  0.0302 -0.6919 -0.0136
 6511SOL    HW120217   3.677   4.919   6.004 -0.2792  1.9522  0.4025
 6511SOL    HW220218   3.705   4.895   6.151 -0.0859  1.2299  0.2539
 6512SOL     OW20219   0.170   6.039   0.738  0.1488  0.1471 -0.3590
 6512SOL    HW120220   0.261   6.039   0.767 -0.2908  0.2122  1.0970
 6512SOL    HW220221   0.164   5.963   0.680  1.1058  0.0962 -0.4075
 6513SOL     OW20222   3.683   2.528   4.071 -0.2674 -0.1790  0.4711
 6513SOL    HW120223   3.776   2.508   4.082 -0.3653 -0.6369  0.4721
 6513SOL    HW220224   3.680   2.586   3.994  0.1309  0.7854  1.1545
 6514SOL     OW20225   4.847   6.347   0.398 -0.2052 -0.2136  0.1887
 6514SOL    HW120226   4.927   6.298   0.416 -0.1444  0.1303  0.8947
 6514SOL    HW220227   4.875   6.438   0.392 -0.3639 -0.2255 -0.8018
 6515SOL     OW20228   1.059   2.718   4.254 -0.2281  0.0537 -0.0276
 6515SOL    HW120229   0.975   2.761   4.266 -0.3176  0.3300 -1.5076
 6515SOL    HW220230   1.049   2.633   4.297 -1.1635  0.1853  0.0306
 6516SOL     OW20231   1.529   3.602   1.605 -0.3638  0.0854 -0.2575
 6516SOL    HW120232   1.519   3.520   1.653 -0.0902  0.4565  0.4510
 6516SOL    HW220233   1.592   3.653   1.656  1.0614 -0.0722 -1.7684
 6517SOL     OW20234   5.980   1.423   3.525  0.1896  0.3618  0.3690
 6517SOL    HW120235   5.904   1.365   3.520 -0.7873  1.6148  0.1533
 6517SOL    HW220236   5.944   1.508   3.550  1.4663  1.0760 -0.1093
 6518SOL     OW20237   1.948   3.420   0.387 -0.1101  0.0739  0.3017
 6518SOL    HW120238   1.976   3.496   0.438 -1.2889  0.2054  0.7994
 6518SOL    HW220239   1.855   3.410   0.410 -0.2390 -0.8554 -0.5901
 6519SOL     OW20240   2.174   6.332   0.002  0.0238  0.0326  0.9426
 6519SOL    HW120241   2.228   6.405  -0.029 -1.2607  2.3459  3.6396
 6519SOL    HW220242   2.228   6.288   0.067 -0.0778  0.1744  1.1253
 6520SOL     OW20243   4.467   5.175   2.346  0.0418 -0.0786  0.3032
 6520SOL    HW120244   4.450   5.122   2.268  0.5800 -1.5800  1.1657
 6520SOL    HW220245   4.443   5.118   2.419  0.3708  0.9842  1.2729
 6521SOL     OW20246   3.623   1.567   1.934  0.4659 -0.2397 -0.1598
 6521SOL    HW120247   3.637   1.649   1.982 -2.9451  0.1651  0.3420
 6521SOL    HW220248   3.592   1.595   1.848 -2.6204 -0.8826  0.6524
 6522SOL     OW20249   2.914   4.271   1.494  0.4219  0.0256  0.3490
 6522SOL    HW120250   2.992   4.311   1.455  2.0782 -0.0917  3.2432
 6522SOL    HW220251   2.859   4.248   1.420  2.0521  2.2998 -1.7152
 6523SOL     OW20252   4.327   0.210   1.916  0.0554  0.2023  0.2637
 6523SOL    HW120253   4.398   0.258   1.874 -0.9390  1.1330 -0.3847
 6523SOL    HW220254   4.338   0.228   2.009 -0.8739  2.5518 -0.0244
 6524SOL     OW20255   2.975   3.771   5.595  0.6385  0.4179 -0.5759
 6524SOL    HW120256   2.886   3.791   5.626  0.2932  0.9012 -1.8242
 6524SOL    HW220257   3.007   3.854   5.560  1.0699 -0.0700 -1.3601
 6525SOL     OW20258   5.419   4.863   0.765  0.2133  0.4591 -0.1883
 6525SOL    HW120259   5.326   4.881   0.752 -0.0208 -0.8076 -0.3684
 6525SOL    HW220260   5.460   4.950   0.764 -0.5312  0.9151 -3.3360
 6526SOL     OW20261   0.279   4.280   0.737  0.1294 -0.3281 -0.7289
 6526SOL    HW120262   0.271   4.366   0.695  0.4556  0.3888  0.6234
 6526SOL    HW220263   0.263   4.218   0.666  0.7812  0.8235 -1.9418
 6527SOL     OW20264   4.887   0.154   0.705  0.0421  0.0980 -0.6448
 6527SOL    HW120265   4.970   0.116   0.679 -1.2780 -2.3021 -1.7078
 6527SOL    HW220266   4.868   0.115   0.790  0.1063  0.8051 -0.3043
 6528SOL     OW20267   4.682   1.118   0.719  0.3053 -0.0096 -0.1515
 6528SOL    HW120268   4.601   1.159   0.751  1.0200  3.0199 -1.8942
 6528SOL    HW220269   4.749   1.147   0.780  0.9292  2.1537 -1.7582
 6529SOL     OW20270   1.997   2.011   5.312  0.0912  0.3624 -0.1421
 6529SOL    HW120271   2.089   2.034   5.323  0.6750 -0.3834 -2.8404
 6529SOL    HW220272   1.985   1.934   5.368  0.4237  1.8450  2.0778
 6530SOL     OW20273   1.648   6.139   1.064  0.2643 -0.2920 -0.0019
 6530SOL    HW120274   1.693   6.157   1.146 -0.4297 -2.0087  0.8015
 6530SOL    HW220275   1.570   6.196   1.066  0.5940  0.1527  0.2074
 6531SOL     OW20276   5.584   3.025   4.432 -0.2207 -0.3159 -0.5781
 6531SOL    HW120277   5.618   3.093   4.491 -2.2540  1.0209 -0.8312
 6531SOL    HW220278   5.647   3.023   4.359  0.0317  1.1022 -0.4267
 6532SOL     OW20279   1.822   3.824   3.421 -0.3969 -0.2637  0.5776
 6532SOL    HW120280   1.906   3.798   3.383 -0.3656 -2.1128  1.7857
 6532SOL    HW220281   1.762   3.828   3.347  0.5608  0.3229 -0.1917
 6533SOL     OW20282   5.843   2.084   2.702 -0.2831 -0.0909 -0.3740
 6533SOL    HW120283   5.834   2.180   2.697 -0.4541 -0.1466 -1.3191
 6533SOL    HW220284   5.785   2.051   2.634  0.7314 -0.8203 -0.8994
 6534SOL     OW20285   4.395   6.372   4.770  0.1266 -0.2000 -1.0057
 6534SOL    HW120286   4.402   6.317   4.692 -1.3218 -1.9170  0.0105
 6534SOL    HW220287   4.456   6.333   4.833 -0.2563 -0.0940 -0.5655
 6535SOL     OW20288   5.324   4.211   1.734 -0.0741  0.5890 -0.1514
 6535SOL    HW120289   5.390   4.154   1.773  0.9573  0.6538 -1.7214
 6535SOL    HW220290   5.251   4.152   1.714 -0.6609  0.5570  1.7914
 6536SOL     OW20291   3.111   5.905   6.255 -0.3758 -0.2480 -0.1170
 6536SOL    HW120292   3.156   5.943   6.180 -0.4439  1.7614  0.8123
 6536SOL    HW220293   3.170   5.921   6.329  0.3075 -3.3305  0.1596
 6537SOL     OW20294   2.016   4.258   5.929 -0.0367  0.9435  0.3269
 6537SOL    HW120295   2.089   4.242   5.870  0.1903  0.6251  0.6863
 6537SOL    HW220296   2.049   4.232   6.015 -1.3834 -1.6998  0.1431
 6538SOL     OW20297   0.035   1.539   6.462  0.1912  0.0416 -0.2382
 6538SOL    HW120298  -0.002   1.501   6.382  0.0805  0.2310 -0.2786
 6538SOL    HW220299   0.049   1.464   6.520 -1.5540  0.0981  0.3086
 6539SOL     OW20300   0.156   2.696   0.598  0.5135 -0.0510  0.1918
 6539SOL    HW120301   0.063   2.714   0.579  0.2354 -0.1284  1.3891
 6539SOL    HW220302   0.203   2.767   0.555 -0.2160  0.7644  0.6832
 6540SOL     OW20303   4.361   6.387   4.083  0.4473 -0.5524  0.1143
 6540SOL    HW120304   4.317   6.437   4.152 -0.6801 -0.1502 -0.8669
 6540SOL    HW220305   4.364   6.447   4.008 -0.1955 -1.6663 -0.8293
 6541SOL     OW20306   4.666   3.893   1.758  0.1247  0.0288  0.7702
 6541SOL    HW120307   4.700   3.817   1.711 -0.4890  0.4487 -0.4056
 6541SOL    HW220308   4.687   3.967   1.701 -3.3715  0.2545 -0.4624
 6542SOL     OW20309   3.233   2.278   2.560 -0.4323 -0.6809  0.6883
 6542SOL    HW120310   3.168   2.287   2.629 -2.5565 -2.4965 -0.9644
 6542SOL    HW220311   3.202   2.336   2.490  0.6000 -0.3803  0.4594
 6543SOL     OW20312   0.303   1.334   3.298 -0.5008  0.5606  0.3146
 6543SOL    HW120313   0.218   1.334   3.253 -0.2328  1.2902 -0.2141
 6543SOL    HW220314   0.282   1.316   3.390 -1.1842  0.3433  0.1208
 6544SOL     OW20315   4.293   5.430   6.371 -0.5391  0.4090 -0.1899
 6544SOL    HW120316   4.308   5.354   6.316 -0.1651 -0.7026  1.3706
 6544SOL    HW220317   4.311   5.400   6.460 -2.3799  1.7482  0.7299
 6545SOL     OW20318   5.140   6.266   5.353  0.0242  0.3876  0.2476
 6545SOL    HW120319   5.124   6.326   5.280 -1.0723  0.1589  0.2819
 6545SOL    HW220320   5.212   6.211   5.324 -2.2210 -1.6709 -1.9293
 6546SOL     OW20321   1.254   1.688   3.055 -0.6215 -0.7384  0.0432
 6546SOL    HW120322   1.293   1.654   3.136  1.6143  1.7721  0.1606
 6546SOL    HW220323   1.247   1.612   2.998  2.9307 -1.7473  0.7052
 6547SOL     OW20324   4.072   5.545   2.708  0.4403 -0.5077 -0.0516
 6547SOL    HW120325   4.064   5.453   2.734 -0.3031 -0.2005  0.8618
 6547SOL    HW220326   4.135   5.583   2.769 -1.3161  0.2148  1.4317
 6548SOL     OW20327   2.872   0.380   3.078 -0.1749  0.8776 -0.2999
 6548SOL    HW120328   2.789   0.383   3.127  0.9137  0.8417  1.6395
 6548SOL    HW220329   2.897   0.288   3.080  0.4923  1.0637  0.1826
 6549SOL     OW20330   0.378   1.247   1.139  0.1388  0.6835 -0.5363
 6549SOL    HW120331   0.470   1.235   1.158 -0.0239  1.0925  0.5823
 6549SOL    HW220332   0.336   1.167   1.170  0.0824  0.6349 -0.7399
 6550SOL     OW20333   5.328   3.270   4.897 -0.2687 -0.1738  0.1600
 6550SOL    HW120334   5.414   3.309   4.911  0.0388 -0.2778 -1.2931
 6550SOL    HW220335   5.345   3.190   4.847 -1.3150  0.9258 -2.1108
 6551SOL     OW20336   0.417   1.641   1.220  0.3697 -0.1562  0.3344
 6551SOL    HW120337   0.355   1.645   1.293 -1.8802 -0.1383 -1.4549
 6551SOL    HW220338   0.405   1.724   1.175  1.7418 -0.1568 -0.0581
 6552SOL     OW20339   3.465   5.657   0.991  0.4804  0.1479  0.0912
 6552SOL    HW120340   3.502   5.645   0.903  2.3252  0.9880  0.7115
 6552SOL    HW220341   3.427   5.745   0.989 -1.6132 -0.6900 -0.5272
 6553SOL     OW20342   1.562   2.963   3.472 -0.6665  0.3619  0.1822
 6553SOL    HW120343   1.629   2.948   3.539  0.3182  0.5212 -0.7330
 6553SOL    HW220344   1.603   2.932   3.391 -0.6014  3.0112 -0.8895
 6554SOL     OW20345   1.899   6.460   1.430  0.2755  0.2696 -0.5300
 6554SOL    HW120346   1.965   6.475   1.362 -0.5541  0.0436 -1.3978
 6554SOL    HW220347   1.912   6.369   1.456  3.0735  1.2756  2.3474
 6555SOL     OW20348   6.003   5.252   1.870  0.0321 -0.2357 -0.2273
 6555SOL    HW120349   6.077   5.313   1.866  0.5574 -0.6376  1.9943
 6555SOL    HW220350   5.930   5.304   1.903 -0.2036 -0.2482 -0.7193
 6556SOL     OW20351   2.519   3.310   2.502 -0.7551 -0.0854 -0.1512
 6556SOL    HW120352   2.482   3.351   2.580  1.0069 -0.2401  0.8312
 6556SOL    HW220353   2.570   3.380   2.460  0.2001 -0.5667  0.1570
 6557SOL     OW20354   5.175   3.493   0.072  0.3534 -0.0815 -0.0362
 6557SOL    HW120355   5.228   3.456   0.001  0.7592 -0.4583  0.4631
 6557SOL    HW220356   5.086   3.465   0.051  0.2307  1.0413 -1.1969
 6558SOL     OW20357   5.837   5.038   1.990  0.4061 -0.5564 -0.4665
 6558SOL    HW120358   5.869   5.123   1.959 -4.8335  1.4690 -1.2851
 6558SOL    HW220359   5.866   5.034   2.082  1.2845  1.8787 -0.5533
 6559SOL     OW20360   0.901   6.356   0.063  0.7072 -0.0198  0.2486
 6559SOL    HW120361   0.860   6.282   0.107 -1.0945  0.9855  0.4084
 6559SOL    HW220362   0.993   6.332   0.052 -0.2174 -3.1837 -1.7165
 6560SOL     OW20363   6.150   0.888   3.021 -0.1412 -0.0752  0.3788
 6560SOL    HW120364   6.180   0.799   3.037 -0.0018  0.1766  1.6385
 6560SOL    HW220365   6.058   0.879   2.998 -0.0897 -0.5612  0.3536
 6561SOL     OW20366   5.949   3.748   6.332 -0.1301  0.6910  0.2557
 6561SOL    HW120367   5.976   3.717   6.246  0.2326  0.1280  0.5665
 6561SOL    HW220368   5.856   3.766   6.324 -0.2810 -0.1883 -0.0134
 6562SOL     OW20369   5.692   5.786   2.600 -0.1818  0.7046 -0.4455
 6562SOL    HW120370   5.647   5.803   2.683 -0.9426 -2.3273 -0.1187
 6562SOL    HW220371   5.719   5.873   2.569  0.4820  1.9419  3.1203
 6563SOL     OW20372   5.992   0.016   5.533  0.0921  0.7177 -0.1351
 6563SOL    HW120373   5.988   0.108   5.556 -0.6163  0.1739  2.1313
 6563SOL    HW220374   5.955  -0.030   5.608  2.0686 -1.5397 -0.4084
 6564SOL     OW20375   1.496   4.113   2.444 -0.1740  1.0073  0.6759
 6564SOL    HW120376   1.479   4.148   2.356  0.2151 -1.5502 -0.4917
 6564SOL    HW220377   1.587   4.136   2.461  0.7599 -1.0909 -1.0011
 6565SOL     OW20378   2.210   6.251   3.845 -0.0995 -0.2221  0.3713
 6565SOL    HW120379   2.278   6.261   3.912  0.8426 -0.1630 -0.5729
 6565SOL    HW220380   2.130   6.278   3.890  0.8422  2.1515  0.8238
 6566SOL     OW20381   4.550   0.489   4.055 -0.1072 -0.3085  0.0372
 6566SOL    HW120382   4.512   0.541   3.984  0.7066 -0.2332 -0.3479
 6566SOL    HW220383   4.582   0.554   4.118 -0.2501 -0.3639  0.1669
 6567SOL     OW20384   5.024   0.222   4.174 -0.6495 -0.1591 -0.4863
 6567SOL    HW120385   4.948   0.170   4.147 -1.6799  0.9345  0.2291
 6567SOL    HW220386   5.088   0.208   4.104 -0.9960 -2.1388 -0.4581
 6568SOL     OW20387   2.768   0.234   2.733 -0.3701 -0.0165  0.4210
 6568SOL    HW120388   2.707   0.215   2.660 -0.5998 -0.8663  0.8133
 6568SOL    HW220389   2.743   0.321   2.763  0.0051  0.5321 -0.7869
 6569SOL     OW20390   2.540   0.413   0.674 -0.4288  0.2414 -0.0882
 6569SOL    HW120391   2.517   0.456   0.592  0.4459  0.5199 -0.1947
 6569SOL    HW220392   2.570   0.326   0.648 -0.7330  0.1055 -0.0001
 6570SOL     OW20393   4.589   3.775   3.491 -0.0235  0.0207  0.0575
 6570SOL    HW120394   4.500   3.739   3.492  0.3768 -0.9991  1.1461
 6570SOL    HW220395   4.580   3.864   3.525 -0.3270 -0.9444  2.7312
 6571SOL     OW20396   2.653   5.996   5.292  0.1180  0.2698  0.6674
 6571SOL    HW120397   2.697   6.051   5.226 -1.8047  1.2892  0.1397
 6571SOL    HW220398   2.562   5.992   5.262 -0.4969 -0.4691  2.5022
 6572SOL     OW20399   4.247   1.286   3.018  0.0597 -0.4888  0.4095
 6572SOL    HW120400   4.169   1.281   3.074 -1.6005  0.2015 -1.6733
 6572SOL    HW220401   4.295   1.362   3.051 -1.5322  0.6688  0.2162
 6573SOL     OW20402   5.321   0.128   1.262 -0.6315 -0.0155 -0.4711
 6573SOL    HW120403   5.376   0.071   1.209  2.4648  3.2808 -1.1880
 6573SOL    HW220404   5.348   0.111   1.353  1.8041  1.4905 -0.8004
 6574SOL     OW20405   0.446   4.358   3.835  0.1041  0.5476 -0.4504
 6574SOL    HW120406   0.536   4.362   3.868  1.1636 -0.4845 -3.0078
 6574SOL    HW220407   0.414   4.273   3.863  0.8496 -0.1489 -1.6488
 6575SOL     OW20408   3.024   5.441   5.151 -0.4380  0.4396 -0.2341
 6575SOL    HW120409   2.960   5.483   5.208 -0.0729  1.4726 -0.5515
 6575SOL    HW220410   2.996   5.350   5.146 -0.3878  0.2720  1.7172
 6576SOL     OW20411   2.586   4.361   2.737 -0.2498  0.2162 -0.2730
 6576SOL    HW120412   2.647   4.435   2.744 -0.4431  0.3585 -0.1061
 6576SOL    HW220413   2.572   4.352   2.642 -2.3644  2.1635 -0.2357
 6577SOL     OW20414   3.891   3.469   5.595  0.4037  0.5365 -0.5265
 6577SOL    HW120415   3.847   3.501   5.674  1.4516  1.8507 -0.4362
 6577SOL    HW220416   3.837   3.501   5.523  1.8693  3.4065 -0.4734
 6578SOL     OW20417   1.925   5.452   0.462 -0.0694  0.8790  0.2325
 6578SOL    HW120418   1.881   5.461   0.547 -1.4336 -0.0451 -0.3289
 6578SOL    HW220419   2.004   5.402   0.481  0.0455  1.3598  1.0686
 6579SOL     OW20420   1.893   0.696   3.813  0.4885 -0.3037  0.3537
 6579SOL    HW120421   1.926   0.712   3.725  2.0313 -0.8921  0.8018
 6579SOL    HW220422   1.799   0.714   3.807  0.8546  1.3602 -0.9683
 6580SOL     OW20423   1.669   4.414   3.490  0.8406  0.0048  0.1925
 6580SOL    HW120424   1.629   4.500   3.495  1.5712  0.3063  1.0917
 6580SOL    HW220425   1.695   4.405   3.398  0.4934  0.6106  0.0306
 6581SOL     OW20426   0.051   2.918   5.413  0.4284  0.2676  0.2162
 6581SOL    HW120427   0.000   2.929   5.493 -0.7655 -0.8334 -0.3497
 6581SOL    HW220428   0.119   2.856   5.436 -0.3785 -0.6440  0.2036
 6582SOL     OW20429   3.833   6.291   5.228  0.1840  0.3384 -0.1338
 6582SOL    HW120430   3.897   6.239   5.275 -0.1909  1.8253  2.2409
 6582SOL    HW220431   3.780   6.228   5.180  0.9429 -1.2672  1.0566
 6583SOL     OW20432   3.675   5.490   2.547  0.5221  0.5575 -0.2723
 6583SOL    HW120433   3.604   5.429   2.526  1.8919 -1.5031  0.8142
 6583SOL    HW220434   3.697   5.531   2.463  1.5129 -2.6323 -1.7097
 6584SOL     OW20435   2.830   1.273   5.630  0.3911 -0.0235 -0.0418
 6584SOL    HW120436   2.827   1.348   5.690  1.5802  1.1101 -1.3139
 6584SOL    HW220437   2.769   1.209   5.668 -0.4276  1.4496  1.2579
 6585SOL     OW20438   1.029   2.435   3.860  0.0655  0.1473  0.0138
 6585SOL    HW120439   1.061   2.511   3.907  0.0518  1.7153 -2.3148
 6585SOL    HW220440   0.940   2.460   3.833  0.2299 -0.4643 -1.1658
 6586SOL     OW20441   3.424   4.995   4.655 -0.4921 -0.7600 -0.3819
 6586SOL    HW120442   3.389   5.032   4.574 -1.9949  1.0738  0.9988
 6586SOL    HW220443   3.361   4.927   4.679 -1.6563  0.5920  0.6110
 6587SOL     OW20444   1.392   0.365   1.199  0.1891 -0.5322  0.1256
 6587SOL    HW120445   1.437   0.290   1.239  0.8296 -0.1285  0.1711
 6587SOL    HW220446   1.320   0.326   1.149  0.7968 -1.2151 -0.2317
 6588SOL     OW20447   5.476   4.875   5.669  0.3124  0.1743 -0.1264
 6588SOL    HW120448   5.429   4.958   5.673 -0.2470 -0.0271 -1.8363
 6588SOL    HW220449   5.569   4.900   5.669  0.2215  0.6559  1.4355
 6589SOL     OW20450   5.618   5.328   4.964  0.1412  0.2505  0.0567
 6589SOL    HW120451   5.558   5.258   4.937  0.5064 -0.2744  0.5743
 6589SOL    HW220452   5.699   5.310   4.917  0.5984 -0.3419  1.0271
 6590SOL     OW20453   3.313   5.426   3.447 -0.6146 -0.1180  0.1113
 6590SOL    HW120454   3.232   5.429   3.498 -1.1310  0.5421 -0.7148
 6590SOL    HW220455   3.288   5.382   3.365  0.4329 -2.0945  0.7997
 6591SOL     OW20456   3.598   4.192   2.808 -0.2493 -0.0192 -0.8977
 6591SOL    HW120457   3.655   4.197   2.731 -0.4336  1.1707 -0.9740
 6591SOL    HW220458   3.591   4.282   2.839 -0.9949 -0.3405 -0.0793
 6592SOL     OW20459   4.626   4.064   2.288 -0.1286  0.1943  0.0552
 6592SOL    HW120460   4.666   4.040   2.204  0.6557  1.9462 -0.1143
 6592SOL    HW220461   4.532   4.051   2.274 -0.1400  1.5640 -1.5194
 6593SOL     OW20462   2.203   5.881   5.265  0.0127 -0.1377 -0.1888
 6593SOL    HW120463   2.211   5.954   5.204 -1.7212  0.6490  0.4632
 6593SOL    HW220464   2.280   5.827   5.249  0.0121  0.4715 -2.4960
 6594SOL     OW20465   0.436   3.327   2.826 -0.1082 -0.8238  0.0502
 6594SOL    HW120466   0.370   3.302   2.762  0.7308  0.2824 -1.3105
 6594SOL    HW220467   0.441   3.422   2.820 -1.1249 -0.4935  2.9501
 6595SOL     OW20468   2.042   2.865   1.029 -0.1523 -0.1339  0.3748
 6595SOL    HW120469   2.088   2.828   0.953  0.0015  0.3488  0.2319
 6595SOL    HW220470   1.955   2.889   0.995  0.8365  2.7178 -0.3994
 6596SOL     OW20471   2.949   5.305   6.153  0.3155 -0.2184 -0.2132
 6596SOL    HW120472   2.991   5.355   6.223 -1.3763 -1.2821  1.6690
 6596SOL    HW220473   2.928   5.371   6.086  1.5109  0.9249  0.4824
 6597SOL     OW20474   1.355   2.216   0.552 -0.1893 -0.1881 -0.2178
 6597SOL    HW120475   1.421   2.278   0.522  0.4925 -0.9561 -0.3343
 6597SOL    HW220476   1.280   2.271   0.576  0.3249  0.6595 -0.5006
 6598SOL     OW20477   3.846   1.820   3.246 -0.5240  0.1890 -0.4519
 6598SOL    HW120478   3.894   1.806   3.164  1.3885 -0.3891  0.6926
 6598SOL    HW220479   3.754   1.818   3.221 -0.0029 -0.6321 -2.4891
 6599SOL     OW20480   5.882   6.222   0.117 -0.0083  0.5324  0.3958
 6599SOL    HW120481   5.848   6.202   0.029 -0.2786  3.5641 -0.2827
 6599SOL    HW220482   5.893   6.317   0.118  1.7128  0.4114  3.0748
 6600SOL     OW20483   1.713   2.935   4.038 -0.1445 -0.0378  0.0069
 6600SOL    HW120484   1.776   2.933   4.110  0.6129  0.2320 -0.6395
 6600SOL    HW220485   1.674   2.847   4.038 -1.0227  0.3177  1.4867
 6601SOL     OW20486   1.481   3.981   1.002 -0.4206  0.3354 -0.1874
 6601SOL    HW120487   1.410   4.045   1.004 -1.3862 -0.6897  2.0463
 6601SOL    HW220488   1.449   3.912   0.944 -1.0717  0.1037  0.4324
 6602SOL     OW20489   6.440   1.772   6.422 -0.2570  0.1532 -0.6545
 6602SOL    HW120490   6.486   1.690   6.442  1.2876  1.3171  0.8375
 6602SOL    HW220491   6.383   1.750   6.348  1.4481 -1.8044 -1.4820
 6603SOL     OW20492   1.123   6.255   3.572 -0.2664  0.0119 -0.1233
 6603SOL    HW120493   1.128   6.340   3.529  0.4705 -1.4681 -3.3122
 6603SOL    HW220494   1.033   6.226   3.559  0.0285 -0.5591 -1.0620
 6604SOL     OW20495   5.932   5.203   0.040  0.6738 -0.0614  0.2902
 6604SOL    HW120496   5.898   5.130   0.091  1.6549  0.8108  2.3075
 6604SOL    HW220497   5.987   5.252   0.101 -1.2528  3.3632 -0.4507
 6605SOL     OW20498   0.441   0.909   1.072  0.5687 -0.1455  0.0217
 6605SOL    HW120499   0.469   0.842   1.009  0.0988 -0.1708 -0.1658
 6605SOL    HW220500   0.346   0.910   1.065  0.3633 -1.2037  1.7921
 6606SOL     OW20501   0.250   3.129   0.167 -0.5360 -0.3720  0.1032
 6606SOL    HW120502   0.258   3.191   0.094  0.6113  0.4496  0.8824
 6606SOL    HW220503   0.190   3.172   0.228  0.2487  0.0094  0.6375
 6607SOL     OW20504   5.216   2.069   3.616  0.0816  0.2463  0.0278
 6607SOL    HW120505   5.272   2.122   3.559 -0.7536 -1.1739 -2.2713
 6607SOL    HW220506   5.181   2.131   3.679  0.8901  1.9882 -1.1418
 6608SOL     OW20507   0.340   3.830   0.243  0.2102 -0.2614  0.0840
 6608SOL    HW120508   0.297   3.812   0.326  0.3036  0.1410  0.2251
 6608SOL    HW220509   0.424   3.784   0.248  0.9471  1.0816  0.9088
 6609SOL     OW20510   2.065   1.465   1.549  0.3245 -0.1671  0.0586
 6609SOL    HW120511   2.126   1.429   1.613  1.1106  0.4070 -0.3557
 6609SOL    HW220512   2.119   1.518   1.491 -0.6718  0.9029  0.0813
 6610SOL     OW20513   2.226   3.808   5.326 -0.0383 -0.1811  0.2718
 6610SOL    HW120514   2.173   3.832   5.250  0.1243 -0.0941  0.1843
 6610SOL    HW220515   2.201   3.718   5.345  0.2814 -0.3700 -0.1924
 6611SOL     OW20516   1.061   0.535   0.660  0.4945  0.0138  0.0987
 6611SOL    HW120517   1.115   0.607   0.627 -0.9051  0.7732 -0.6307
 6611SOL    HW220518   1.058   0.472   0.588  0.0636  0.1619 -0.0097
 6612SOL     OW20519   2.201   4.966   5.826 -0.1734 -0.5234 -0.2031
 6612SOL    HW120520   2.200   4.871   5.816  1.2199 -0.5554 -0.2915
 6612SOL    HW220521   2.156   4.999   5.748  1.0185 -1.0700 -1.1612
 6613SOL     OW20522   2.728   5.763   3.037  0.1451  0.0334 -0.1458
 6613SOL    HW120523   2.815   5.771   3.075  0.6276 -1.5079 -0.8292
 6613SOL    HW220524   2.691   5.683   3.076 -0.6080  0.1821 -0.5197
 6614SOL     OW20525   6.015   4.703   0.606 -0.1834 -0.0809  0.5878
 6614SOL    HW120526   6.022   4.608   0.618  1.2719  0.0511  0.9011
 6614SOL    HW220527   5.925   4.716   0.575 -0.3411 -1.5801  0.3231
 6615SOL     OW20528   1.429   0.158   5.660 -0.1234 -0.0927 -0.3674
 6615SOL    HW120529   1.447   0.070   5.692  0.4983  0.4810  0.9529
 6615SOL    HW220530   1.363   0.192   5.721  0.5048  0.7551 -0.1476
 6616SOL     OW20531   0.142   5.125   1.252  0.3340 -0.3127  0.0123
 6616SOL    HW120532   0.119   5.052   1.309 -2.7659 -0.2460 -0.9742
 6616SOL    HW220533   0.101   5.201   1.293  1.7323  0.5368 -0.0958
 6617SOL     OW20534   6.266   5.121   0.041  0.6320  0.2080  0.5785
 6617SOL    HW120535   6.258   5.053  -0.026  1.6590  0.3510  0.3043
 6617SOL    HW220536   6.183   5.169   0.035  0.0793 -0.7235  0.4667
 6618SOL     OW20537   1.331   3.784   1.408  0.1284 -0.4555 -0.3602
 6618SOL    HW120538   1.396   3.829   1.353  0.0066 -0.0191 -0.1515
 6618SOL    HW220539   1.247   3.816   1.376  0.0664  2.7045  2.4018
 6619SOL     OW20540   2.235   1.181   1.861  0.3533 -0.3436 -0.1626
 6619SOL    HW120541   2.146   1.215   1.859  0.1035 -1.0180 -0.9626
 6619SOL    HW220542   2.284   1.245   1.913 -0.2757  0.8089 -0.9561
 6620SOL     OW20543   4.126   0.654   4.234 -0.5185  0.0524  0.3406
 6620SOL    HW120544   4.069   0.603   4.177  0.2359 -0.1633 -0.2370
 6620SOL    HW220545   4.146   0.733   4.184 -0.9088  0.4755  0.8444
 6621SOL     OW20546   5.883   4.267   0.274 -0.1642  0.3247  0.0617
 6621SOL    HW120547   5.855   4.353   0.307 -0.6144 -0.1130  0.8482
 6621SOL    HW220548   5.971   4.282   0.240 -0.0421  0.9886  0.6426
 6622SOL     OW20549   5.286   1.058   3.369 -0.3936 -0.4427  0.5628
 6622SOL    HW120550   5.209   1.019   3.327 -1.2372  0.1925  1.4830
 6622SOL    HW220551   5.290   1.147   3.334  2.3540 -1.6120 -2.6321
 6623SOL     OW20552   2.208   2.857   0.792  0.0208  0.1846 -0.4276
 6623SOL    HW120553   2.128   2.847   0.740 -1.1642  0.6220  1.2431
 6623SOL    HW220554   2.266   2.910   0.737 -0.5907 -0.6181 -1.8993
 6624SOL     OW20555   4.605   4.162   6.489 -0.0103  0.0661 -0.2326
 6624SOL    HW120556   4.692   4.147   6.526  0.0372 -1.0162 -0.7186
 6624SOL    HW220557   4.615   4.242   6.437  0.6900 -0.0342 -0.2680
 6625SOL     OW20558   5.423   5.735   3.960  0.4886  0.2048 -0.3384
 6625SOL    HW120559   5.351   5.797   3.950 -1.6673 -2.0788  0.0586
 6625SOL    HW220560   5.495   5.787   3.994 -1.7954  2.1416  1.9287
 6626SOL     OW20561   2.800   4.923   3.616  0.0501  0.0876 -0.1056
 6626SOL    HW120562   2.874   4.872   3.651 -0.3972 -0.2217  0.3990
 6626SOL    HW220563   2.729   4.909   3.679 -0.2210  0.9749 -0.2065
 6627SOL     OW20564   2.490   5.230   4.522 -0.2296 -0.6223  0.4042
 6627SOL    HW120565   2.463   5.153   4.572  1.6063 -2.0676 -0.7221
 6627SOL    HW220566   2.456   5.215   4.434 -1.2209  0.6728  0.5238
 6628SOL     OW20567   6.426   1.076   2.482  0.6666 -0.0053 -0.2986
 6628SOL    HW120568   6.350   1.098   2.536 -0.6297 -0.2915 -1.9315
 6628SOL    HW220569   6.499   1.121   2.524 -0.3742  0.2043  1.3797
 6629SOL     OW20570   1.359   2.657   2.010 -0.5737 -0.3563  0.6132
 6629SOL    HW120571   1.391   2.570   1.984  0.1861  0.5356 -1.6914
 6629SOL    HW220572   1.266   2.644   2.029 -0.9965 -1.3692 -1.7478
 6630SOL     OW20573   5.743   6.346   6.052  0.1383  0.1127  0.7324
 6630SOL    HW120574   5.684   6.379   5.984 -1.4426 -4.1995 -0.3121
 6630SOL    HW220575   5.691   6.347   6.132  0.6297  1.3572  1.0747
 6631SOL     OW20576   4.036   0.272   5.643  0.3981 -0.0425 -0.2812
 6631SOL    HW120577   4.026   0.251   5.736 -0.4680 -0.2732 -0.4073
 6631SOL    HW220578   4.124   0.243   5.621  0.7694  0.4099  0.5643
 6632SOL     OW20579   1.678   5.778   4.136  0.2757  0.4594  0.0541
 6632SOL    HW120580   1.639   5.704   4.184 -0.6762  1.7830  1.4381
 6632SOL    HW220581   1.747   5.810   4.194  1.2964  0.1172 -0.9504
 6633SOL     OW20582   0.054   5.952   1.041  0.3912  0.2359  0.3240
 6633SOL    HW120583   0.048   6.035   0.994 -1.4581  0.5413  1.0159
 6633SOL    HW220584   0.086   5.889   0.975  1.7355  1.4374 -0.2280
 6634SOL     OW20585   1.240   5.119   0.265  0.0165  0.4173  0.0188
 6634SOL    HW120586   1.305   5.049   0.258 -0.0631  0.2277  1.0441
 6634SOL    HW220587   1.224   5.146   0.175  1.8994  0.8098 -0.2504
 6635SOL     OW20588   4.020   0.337   0.950 -0.0720  0.4966  0.5325
 6635SOL    HW120589   4.063   0.254   0.930 -2.0148 -0.2555 -0.8772
 6635SOL    HW220590   3.935   0.312   0.986 -1.2766  1.8040 -1.2191
 6636SOL     OW20591   0.740   1.955   3.755  0.0336  0.6731  0.1380
 6636SOL    HW120592   0.820   1.976   3.802  0.2135  0.1637  0.0671
 6636SOL    HW220593   0.740   1.859   3.750  0.1658  0.7310 -1.1613
 6637SOL     OW20594   3.534   5.596   0.741 -0.7192  0.0434 -0.4018
 6637SOL    HW120595   3.503   5.574   0.653  0.3842  0.5122 -0.9237
 6637SOL    HW220596   3.610   5.539   0.754 -2.5694 -2.2155  1.4683
 6638SOL     OW20597   3.042   0.299   3.681 -0.0610  0.9931 -0.1267
 6638SOL    HW120598   3.122   0.274   3.634 -0.8997 -1.4402 -0.4135
 6638SOL    HW220599   3.038   0.238   3.754 -1.8868  0.7488 -0.3884
 6639SOL     OW20600   0.006   3.598   0.867  0.0495 -0.0027  0.0251
 6639SOL    HW120601  -0.072   3.648   0.844 -0.2751  0.5029  2.0993
 6639SOL    HW220602   0.005   3.592   0.962  2.8235  0.4689  0.1877
 6640SOL     OW20603   4.709   4.757   0.300  0.5077 -0.2552 -0.6430
 6640SOL    HW120604   4.715   4.814   0.377  2.3260  0.2263 -1.0776
 6640SOL    HW220605   4.777   4.790   0.241 -0.7968 -0.6335 -2.4544
 6641SOL     OW20606   6.267   3.134   4.495 -0.3650  0.1894 -0.1949
 6641SOL    HW120607   6.248   3.055   4.545  2.2948  0.8300  2.1268
 6641SOL    HW220608   6.198   3.196   4.521 -0.0902 -0.0978  1.3199
 6642SOL     OW20609   1.422   3.416   1.792  0.0543 -0.4143 -0.8059
 6642SOL    HW120610   1.384   3.349   1.849 -1.1803 -0.4698 -1.6604
 6642SOL    HW220611   1.471   3.473   1.852 -0.6274 -0.8736  0.2244
 6643SOL     OW20612   0.777   6.451   2.644 -0.5633 -0.6878  0.5713
 6643SOL    HW120613   0.796   6.378   2.585 -0.0744 -0.8833  0.9633
 6643SOL    HW220614   0.732   6.515   2.589  0.1613 -0.7318 -0.0990
 6644SOL     OW20615   2.154   0.977   0.595  0.0099  0.1873 -0.2057
 6644SOL    HW120616   2.075   0.934   0.562  0.1560  0.2063 -0.5853
 6644SOL    HW220617   2.149   0.968   0.690 -0.1741 -0.2943 -0.2610
 6645SOL     OW20618   0.236   6.353   0.962  0.0153 -0.7551 -0.2178
 6645SOL    HW120619   0.266   6.443   0.969 -0.2669 -0.6104 -0.7505
 6645SOL    HW220620   0.296   6.302   1.017  0.6496 -0.3466 -0.5268
 6646SOL     OW20621   0.783   0.397   1.517 -0.7376 -0.1073  0.0562
 6646SOL    HW120622   0.750   0.461   1.453 -1.8022 -0.7544 -0.0511
 6646SOL    HW220623   0.878   0.400   1.505 -0.8460  0.5979 -0.7721
 6647SOL     OW20624   3.425   5.528   1.512  0.0046  0.2647  0.3484
 6647SOL    HW120625   3.516   5.551   1.531  0.6097 -0.3819 -1.4776
 6647SOL    HW220626   3.411   5.445   1.557  0.3422  0.3471  0.6076
 6648SOL     OW20627   5.487   3.491   1.513  0.2478  0.5396 -0.5598
 6648SOL    HW120628   5.453   3.569   1.470  0.0739  1.4135  1.0707
 6648SOL    HW220629   5.428   3.420   1.486  0.3656  0.9730 -1.9944
 6649SOL     OW20630   5.187   0.157   6.316  0.5545 -0.4536 -0.5352
 6649SOL    HW120631   5.103   0.110   6.315  1.6287 -2.6351  1.2092
 6649SOL    HW220632   5.180   0.216   6.390 -0.0646  0.7425 -1.5130
 6650SOL     OW20633   5.838   5.332   4.741  0.0848  0.8423  0.1569
 6650SOL    HW120634   5.818   5.254   4.689  1.6659  0.0459  0.6785
 6650SOL    HW220635   5.924   5.360   4.709 -0.2223  2.0610  0.3614
 6651SOL     OW20636   0.636   5.146   4.499 -0.2823 -0.4307 -0.1410
 6651SOL    HW120637   0.576   5.079   4.532 -0.7967  0.1017 -0.0052
 6651SOL    HW220638   0.642   5.127   4.405 -2.1126  0.6294 -0.5123
 6652SOL     OW20639   4.732   0.786   0.032 -0.1579 -0.1738 -0.2704
 6652SOL    HW120640   4.748   0.718   0.097 -1.5506  0.0962  0.3950
 6652SOL    HW220641   4.645   0.767  -0.002 -1.0457  1.8251  0.6984
 6653SOL     OW20642   0.137   5.863   3.228  0.1514  0.0259 -0.0885
 6653SOL    HW120643   0.047   5.845   3.199 -0.2894  0.1834  1.1275
 6653SOL    HW220644   0.181   5.896   3.150 -0.6749 -0.6238 -0.8570
 6654SOL     OW20645   5.379   0.755   1.049 -0.4051 -1.1392  0.4515
 6654SOL    HW120646   5.370   0.715   1.136 -1.8088 -0.3628  0.6934
 6654SOL    HW220647   5.464   0.725   1.017  0.9173 -0.1130  2.7789
 6655SOL     OW20648   1.248   2.137   5.448 -0.2903  0.0865 -0.3195
 6655SOL    HW120649   1.194   2.116   5.372  0.3577  0.5172 -0.9214
 6655SOL    HW220650   1.306   2.061   5.458  0.3583  0.4777 -0.9472
 6656SOL     OW20651   1.217   3.617   3.482  0.7634  0.1261 -0.3304
 6656SOL    HW120652   1.259   3.674   3.417  0.3877  1.8807  0.9015
 6656SOL    HW220653   1.137   3.664   3.506  0.2968 -1.0770  0.5313
 6657SOL     OW20654   2.227   1.138   4.331 -0.3498  0.2706  0.0478
 6657SOL    HW120655   2.137   1.106   4.342 -0.5628  0.9166  0.2674
 6657SOL    HW220656   2.281   1.059   4.327 -0.5172 -0.1465  3.3084
 6658SOL     OW20657   5.667   3.925   2.672 -0.2700 -0.4074 -0.0155
 6658SOL    HW120658   5.714   3.898   2.752  0.6544  0.4605 -0.2366
 6658SOL    HW220659   5.734   3.970   2.620 -1.3148  0.7224 -0.4259
 6659SOL     OW20660   6.120   5.401   0.144  0.2059 -0.0448  0.1103
 6659SOL    HW120661   6.183   5.443   0.086  0.1050  0.3490  0.2785
 6659SOL    HW220662   6.041   5.455   0.136  0.8780  1.3940  2.3193
 6660SOL     OW20663   4.253   1.138   4.783  0.0779  0.0673 -0.5164
 6660SOL    HW120664   4.296   1.131   4.698  2.6897  0.0558  0.7080
 6660SOL    HW220665   4.186   1.069   4.782 -0.8118  0.8826 -2.9730
 6661SOL     OW20666   1.146   0.044   2.580  0.5305 -0.5430 -0.2379
 6661SOL    HW120667   1.214   0.112   2.579 -0.3236  0.3397 -0.7877
 6661SOL    HW220668   1.193  -0.037   2.562  1.2337  0.2776 -2.5403
 6662SOL     OW20669   3.542   3.172   2.384  0.3649 -0.0800 -0.3543
 6662SOL    HW120670   3.616   3.111   2.384  1.0620  0.7443  0.0457
 6662SOL    HW220671   3.473   3.126   2.432  0.3693 -1.1336 -1.3224
 6663SOL     OW20672   3.824   4.956   3.054 -0.1039  0.7016 -0.4831
 6663SOL    HW120673   3.859   4.868   3.042 -1.9550 -0.3218  0.9640
 6663SOL    HW220674   3.833   4.998   2.969  0.6236 -0.9574 -1.2656
 6664SOL     OW20675   3.548   1.425   4.417  0.4638 -0.7131  0.2812
 6664SOL    HW120676   3.622   1.417   4.477  0.4892  1.4865  0.6317
 6664SOL    HW220677   3.579   1.484   4.348  0.1221 -2.4440 -1.4665
 6665SOL     OW20678   0.372   6.403   2.347 -0.0119 -0.8547 -0.5736
 6665SOL    HW120679   0.460   6.380   2.377  0.3367  1.3379  0.2538
 6665SOL    HW220680   0.318   6.402   2.427 -0.2436 -0.0552 -0.7122
 6666SOL     OW20681   4.264   3.417   6.118  0.4686  0.2953 -0.2034
 6666SOL    HW120682   4.204   3.360   6.070 -0.0697  0.3762  0.3700
 6666SOL    HW220683   4.212   3.453   6.190  0.6161  1.9630 -0.8751
 6667SOL     OW20684   2.466   1.986   2.063  0.0405  0.3761  0.0922
 6667SOL    HW120685   2.535   1.944   2.012  0.3090  0.4318  0.4073
 6667SOL    HW220686   2.399   2.010   1.998  1.0170  1.7424 -0.4595
 6668SOL     OW20687   6.016   6.079   3.925  0.3192 -0.2319 -0.2396
 6668SOL    HW120688   6.016   6.028   3.844 -0.0237 -1.2955  0.4115
 6668SOL    HW220689   6.107   6.107   3.936  0.5940 -1.0453 -0.4048
 6669SOL     OW20690   2.829   6.001   6.186 -0.1114  0.1888  0.2431
 6669SOL    HW120691   2.904   5.957   6.227  2.0836  1.7014 -1.9180
 6669SOL    HW220692   2.794   5.936   6.125 -0.1440 -0.2705  0.7350
 6670SOL     OW20693   5.378   3.873   1.715 -0.0690 -0.4740  0.0553
 6670SOL    HW120694   5.446   3.903   1.776 -0.6291 -0.0120  0.4624
 6670SOL    HW220695   5.379   3.778   1.723  1.4038 -0.5768 -0.8942
 6671SOL     OW20696   5.299   1.912   5.463  0.3232  0.2093  0.1864
 6671SOL    HW120697   5.304   1.849   5.391  1.7510  0.5180 -0.0140
 6671SOL    HW220698   5.324   1.861   5.541  1.5256  0.5277  0.0168
 6672SOL     OW20699   0.263   0.883   1.549 -0.1703  0.0167  0.0616
 6672SOL    HW120700   0.352   0.864   1.522 -0.2919  0.3473 -0.5878
 6672SOL    HW220701   0.269   0.895   1.644  0.8225  1.8440 -0.1856
 6673SOL     OW20702   2.516   5.021   4.718  0.1840 -0.4572  0.4815
 6673SOL    HW120703   2.511   4.935   4.760 -0.0959 -0.2563  0.8722
 6673SOL    HW220704   2.553   5.078   4.785  0.4391 -0.2897  0.1985
 6674SOL     OW20705   5.158   1.796   3.580  0.3401 -0.4702 -0.2818
 6674SOL    HW120706   5.220   1.729   3.549  1.1926 -0.0042  0.3756
 6674SOL    HW220707   5.202   1.879   3.562 -1.1052  0.0051 -1.9748
 6675SOL     OW20708   1.400   2.972   0.795 -0.2036  0.2538 -0.0015
 6675SOL    HW120709   1.378   3.047   0.739  0.3172  0.8435  0.5680
 6675SOL    HW220710   1.318   2.951   0.840 -0.5198  0.0468 -0.6656
 6676SOL     OW20711   3.530   1.239   5.478  0.1404  0.1588 -0.2650
 6676SOL    HW120712   3.581   1.286   5.412  1.0135 -0.0498  0.2458
 6676SOL    HW220713   3.496   1.309   5.535  0.0764  0.2813 -0.4518
 6677SOL     OW20714   1.100   1.781   3.470  0.0283 -0.1355 -0.4584
 6677SOL    HW120715   1.063   1.849   3.413  0.7071  1.8282  1.2947
 6677SOL    HW220716   1.025   1.725   3.492 -0.9441  1.0579 -0.6269
 6678SOL     OW20717   1.071   5.196   2.359  0.6426 -0.0709  0.4243
 6678SOL    HW120718   1.064   5.195   2.264  0.3374  1.2856  0.4032
 6678SOL    HW220719   1.164   5.211   2.376  0.3821  2.0288  0.2587
 6679SOL     OW20720   0.947   3.892   5.280 -0.4044  0.1761  0.1571
 6679SOL    HW120721   0.938   3.850   5.366 -0.2595 -1.5983 -0.6496
 6679SOL    HW220722   0.857   3.904   5.250 -0.4696 -1.8773 -0.6328
 6680SOL     OW20723   4.175   3.214   2.941  0.2718  0.3687 -0.1286
 6680SOL    HW120724   4.117   3.165   2.883  0.7809  1.9370 -2.0873
 6680SOL    HW220725   4.118   3.248   3.010 -0.7981  0.3458 -0.9840
 6681SOL     OW20726   2.921   0.109   3.137  0.3057  0.0692  0.0700
 6681SOL    HW120727   2.910   0.118   3.232  1.6953  1.2236  0.1500
 6681SOL    HW220728   2.975   0.031   3.126  0.6502  0.2808  0.2600
 6682SOL     OW20729   3.750   3.691   6.237  0.2603  0.5810 -0.3167
 6682SOL    HW120730   3.669   3.718   6.280  1.3905  0.1415  2.3442
 6682SOL    HW220731   3.747   3.596   6.238  0.9036  0.5544  0.0885
 6683SOL     OW20732   1.855   0.144   3.997 -0.2798  0.1588  0.1970
 6683SOL    HW120733   1.772   0.162   3.953  0.2936  3.0530  0.0619
 6683SOL    HW220734   1.841   0.172   4.088  0.3260  0.0670  0.3238
 6684SOL     OW20735   2.125   5.539   6.272 -0.3973 -0.3894  0.1231
 6684SOL    HW120736   2.125   5.635   6.280 -3.4333 -0.1079 -1.7998
 6684SOL    HW220737   2.194   5.520   6.209 -0.3217  0.6093 -0.1127
 6685SOL     OW20738   4.791   1.362   3.220 -0.7104 -0.5720 -0.3924
 6685SOL    HW120739   4.833   1.284   3.183  1.2062  0.4471 -0.4623
 6685SOL    HW220740   4.772   1.337   3.311 -1.5522 -1.6276 -0.8332
 6686SOL     OW20741   2.325   6.071   0.359 -0.2133  0.3756  0.1645
 6686SOL    HW120742   2.362   6.152   0.322 -0.8251  0.4627 -0.2625
 6686SOL    HW220743   2.369   6.001   0.311 -0.4322  0.4757 -0.1895
 6687SOL     OW20744   3.333   2.250   3.851  0.3101  0.3742 -0.3009
 6687SOL    HW120745   3.342   2.319   3.917  2.0812  0.3122 -0.4326
 6687SOL    HW220746   3.345   2.295   3.767  0.1936  0.1104 -0.4603
 6688SOL     OW20747   1.044   0.353   4.966  0.0508  0.2936  0.2172
 6688SOL    HW120748   1.049   0.296   4.890  1.1758  0.7621 -0.0778
 6688SOL    HW220749   0.985   0.307   5.026 -1.6506  0.3684 -1.2872
 6689SOL     OW20750   5.116   4.648   5.857  0.1201  0.2270 -0.2026
 6689SOL    HW120751   5.125   4.556   5.831  3.0034  0.2549  0.2941
 6689SOL    HW220752   5.141   4.698   5.780  0.7994  0.5028  0.1813
 6690SOL     OW20753   0.059   4.920   1.401 -0.1009  0.0201 -0.0826
 6690SOL    HW120754   0.036   4.828   1.394 -0.3593  0.0149  0.8367
 6690SOL    HW220755  -0.006   4.958   1.460  0.8259  0.4901  0.6641
 6691SOL     OW20756   2.058   0.291   0.594  0.4106  0.4230  0.0407
 6691SOL    HW120757   1.992   0.223   0.610  0.2258  0.1968 -1.5577
 6691SOL    HW220758   2.034   0.362   0.654 -0.1200 -0.4187  0.8581
 6692SOL     OW20759   1.820   4.362   0.457 -0.8423 -0.1110 -0.2766
 6692SOL    HW120760   1.759   4.433   0.435  1.5223  2.8013  1.7631
 6692SOL    HW220761   1.826   4.365   0.553  2.1362 -0.5375 -0.3636
 6693SOL     OW20762   2.307   4.525   2.075  0.2134  0.1219 -0.4652
 6693SOL    HW120763   2.225   4.512   2.122  0.7321  1.3573  0.9038
 6693SOL    HW220764   2.312   4.620   2.063  1.6469  0.1235 -0.0549
 6694SOL     OW20765   4.637   4.142   5.079 -0.6648  0.1259  0.3555
 6694SOL    HW120766   4.558   4.184   5.113  0.3689  1.7858  0.8500
 6694SOL    HW220767   4.614   4.113   4.991 -1.6148  1.1748  0.2451
 6695SOL     OW20768   4.256   2.308   0.286  0.1650  0.0271 -0.2386
 6695SOL    HW120769   4.331   2.367   0.278  0.0144  0.6781  2.2429
 6695SOL    HW220770   4.228   2.293   0.196  2.9355  0.1529 -1.2377
 6696SOL     OW20771   6.132   5.866   2.301 -0.3677  0.5444 -0.2985
 6696SOL    HW120772   6.179   5.922   2.363  1.8617 -1.7533  0.2920
 6696SOL    HW220773   6.063   5.825   2.353 -0.6237  1.0957 -0.1969
 6697SOL     OW20774   2.797   2.685   5.602 -0.2085 -0.1483 -0.0898
 6697SOL    HW120775   2.826   2.594   5.600  0.9247  0.1906 -0.1977
 6697SOL    HW220776   2.829   2.722   5.519 -1.7222  0.0485 -0.6135
 6698SOL     OW20777   0.205   2.734   0.881  0.5670  0.5271  0.4033
 6698SOL    HW120778   0.181   2.709   0.792 -1.7140  1.2428  0.7321
 6698SOL    HW220779   0.300   2.734   0.882  0.6797 -1.6894 -1.3954
 6699SOL     OW20780   1.671   2.417   4.291  0.4445 -0.3135 -0.0120
 6699SOL    HW120781   1.614   2.441   4.219 -0.3471 -0.2999  0.6051
 6699SOL    HW220782   1.612   2.389   4.361  1.2274 -1.4035  0.2496
 6700SOL     OW20783   0.001   0.016   6.245 -0.0282 -0.3706  0.1483
 6700SOL    HW120784   0.039  -0.066   6.212  1.6034  0.9768 -1.4969
 6700SOL    HW220785  -0.056   0.046   6.175  0.1796  0.4118  0.3061
 6701SOL     OW20786   5.488   0.237   5.660  0.3260 -0.0067 -0.0690
 6701SOL    HW120787   5.441   0.153   5.654 -1.6784  1.0358  0.1986
 6701SOL    HW220788   5.427   0.301   5.624  2.0159  1.2924 -0.7193
 6702SOL     OW20789   3.724   2.638   3.460 -0.4114 -0.1188 -0.2393
 6702SOL    HW120790   3.770   2.629   3.543  0.2249  1.4514 -0.3871
 6702SOL    HW220791   3.699   2.731   3.456 -1.0249 -0.3135 -1.4976
 6703SOL     OW20792   0.759   3.119   0.049 -0.1842  0.0299  0.1051
 6703SOL    HW120793   0.710   3.149   0.126 -0.1711  1.6725 -0.4909
 6703SOL    HW220794   0.708   3.046   0.015 -1.5255  0.8489  0.2797
 6704SOL     OW20795   2.017   2.014   0.127  0.3085  0.0824  0.3801
 6704SOL    HW120796   1.967   2.057   0.057  0.2073  1.6483  1.3521
 6704SOL    HW220797   2.031   2.083   0.192  2.9745 -0.5176  0.5757
 6705SOL     OW20798   1.957   0.481   2.144  0.1653  0.2615  0.5270
 6705SOL    HW120799   2.000   0.431   2.075  0.3215 -0.0965  0.8794
 6705SOL    HW220800   1.997   0.568   2.139 -0.7078  0.6057 -0.6341
 6706SOL     OW20801   4.434   5.989   6.488 -0.4087 -0.5760  0.9146
 6706SOL    HW120802   4.525   6.000   6.460 -0.6086 -0.5038  0.2918
 6706SOL    HW220803   4.420   5.894   6.487 -0.3913 -0.5780  0.8501
 6707SOL     OW20804   2.109   1.696   1.089 -0.4804  0.2183 -0.0141
 6707SOL    HW120805   2.169   1.749   1.143 -1.2112  0.0719  0.9696
 6707SOL    HW220806   2.064   1.760   1.034 -1.2550  0.6208  1.0647
 6708SOL     OW20807   3.466   1.486   0.642 -0.1987  0.3633 -0.0813
 6708SOL    HW120808   3.406   1.550   0.603 -1.1343 -1.6506 -2.2079
 6708SOL    HW220809   3.513   1.449   0.568  1.1376 -0.6166  1.1970
 6709SOL     OW20810   2.865   5.401   3.500  0.1666  0.1196  0.1067
 6709SOL    HW120811   2.835   5.316   3.534 -0.1358  0.3551  0.4326
 6709SOL    HW220812   2.821   5.465   3.555  1.2049  0.4755  0.5308
 6710SOL     OW20813   2.553   0.045   3.870 -0.1897 -0.3006  0.1676
 6710SOL    HW120814   2.594  -0.030   3.827  0.2395  1.2773 -2.3934
 6710SOL    HW220815   2.624   0.109   3.878 -0.6024 -0.0339  2.0612
 6711SOL     OW20816   4.557   2.566   2.789  0.0980 -0.2172  0.2750
 6711SOL    HW120817   4.516   2.490   2.829 -0.9724  0.9566  1.4828
 6711SOL    HW220818   4.508   2.641   2.822  1.1075  1.0202 -0.8853
 6712SOL     OW20819   2.107   5.972   3.031  0.2421  0.4418  0.5454
 6712SOL    HW120820   2.018   5.970   3.066 -0.2322 -1.3276 -0.6050
 6712SOL    HW220821   2.097   6.004   2.941  0.2858 -2.5182 -0.6102
 6713SOL     OW20822   1.706   5.973   4.869  0.2159  0.1821 -0.5808
 6713SOL    HW120823   1.766   5.988   4.943 -0.7648 -0.2598  0.3406
 6713SOL    HW220824   1.759   5.926   4.805  1.6324  2.2526 -1.0020
 6714SOL     OW20825   5.911   2.896   1.014 -0.1102  0.2368  0.3072
 6714SOL    HW120826   5.819   2.918   1.030  0.4481  1.9258  1.5206
 6714SOL    HW220827   5.956   2.981   1.013  1.7208 -0.6459  1.7015
 6715SOL     OW20828   0.792   1.090   1.666 -0.3256 -0.3434  0.2150
 6715SOL    HW120829   0.845   1.160   1.705 -2.0934  1.3275 -0.2318
 6715SOL    HW220830   0.747   1.051   1.741 -0.0088 -0.4153  0.3710
 6716SOL     OW20831   1.762   3.163   0.238  0.0173  0.4824  0.1643
 6716SOL    HW120832   1.802   3.233   0.187 -1.4545  0.9131 -0.4412
 6716SOL    HW220833   1.760   3.088   0.178  0.3344  0.3204  0.3529
 6717SOL     OW20834   3.015   2.928   0.864 -0.3679 -0.0503  0.0182
 6717SOL    HW120835   2.960   2.867   0.912  0.4095 -0.8338 -0.0531
 6717SOL    HW220836   3.104   2.907   0.892  0.0579 -0.1309 -1.3109
 6718SOL     OW20837   4.132   0.648   0.595  0.1308 -0.5778 -0.0958
 6718SOL    HW120838   4.207   0.676   0.542 -1.4652  0.7237 -1.8019
 6718SOL    HW220839   4.129   0.712   0.666 -0.3680  0.4570 -1.0189
 6719SOL     OW20840   2.953   1.955   3.951  0.1537 -0.5625 -0.6686
 6719SOL    HW120841   2.919   1.900   3.879  1.0047 -1.6253 -0.2912
 6719SOL    HW220842   3.007   2.021   3.907 -1.2059  0.2639 -1.1613
 6720SOL     OW20843   4.425   2.922   2.120  0.0257  0.3846  0.1530
 6720SOL    HW120844   4.397   2.945   2.208 -0.9739 -0.2364  0.0239
 6720SOL    HW220845   4.508   2.967   2.108 -0.4102  1.4487  0.9666
 6721SOL     OW20846   1.378   4.880   2.943 -0.3486  0.1422 -0.5039
 6721SOL    HW120847   1.351   4.972   2.932  0.3478  0.4019 -0.0881
 6721SOL    HW220848   1.412   4.876   3.032 -0.0646 -0.4463 -0.6377
 6722SOL     OW20849   4.310   2.258   5.246 -0.0260 -0.2806  0.3450
 6722SOL    HW120850   4.253   2.193   5.205  0.6863  0.5875 -2.2348
 6722SOL    HW220851   4.337   2.219   5.329 -1.1933 -2.3892 -0.2222
 6723SOL     OW20852   5.370   5.540   4.883  0.3726  0.8342  0.1374
 6723SOL    HW120853   5.462   5.563   4.874  0.0152  2.6957  0.6555
 6723SOL    HW220854   5.327   5.624   4.903 -1.3952 -0.0212  0.0972
 6724SOL     OW20855   2.755   0.296   2.284 -0.0534  0.1027 -0.4723
 6724SOL    HW120856   2.831   0.238   2.282  0.1891  0.4268 -0.6870
 6724SOL    HW220857   2.772   0.356   2.356 -0.1303  0.1454 -0.4895
 6725SOL     OW20858   0.846   3.399   5.735  0.2127  0.2758 -0.1953
 6725SOL    HW120859   0.777   3.462   5.713 -0.5589 -0.1851  0.7904
 6725SOL    HW220860   0.833   3.382   5.829 -0.6640 -2.5871 -0.7538
 6726SOL     OW20861   4.263   4.253   4.921 -0.0749 -0.0168 -0.3023
 6726SOL    HW120862   4.275   4.176   4.866 -0.5485 -1.5091  1.5754
 6726SOL    HW220863   4.318   4.236   4.998  0.3696  1.8640 -0.1473
 6727SOL     OW20864   4.367   1.562   5.299 -0.0715 -0.2588  0.0056
 6727SOL    HW120865   4.344   1.541   5.209  1.3791 -2.5582  0.0942
 6727SOL    HW220866   4.296   1.526   5.351 -0.0361 -0.5145 -0.1233
 6728SOL     OW20867   5.639   4.707   4.884 -0.2784 -0.6432  0.6064
 6728SOL    HW120868   5.677   4.619   4.886 -1.5478 -1.2153  0.7712
 6728SOL    HW220869   5.575   4.704   4.813  1.3959  0.9404 -1.0704
 6729SOL     OW20870   2.618   5.650   5.442  0.0367  0.1422  0.7703
 6729SOL    HW120871   2.585   5.603   5.519 -1.0684  1.3585  1.0778
 6729SOL    HW220872   2.652   5.732   5.478  0.3957  0.3048  0.0650
 6730SOL     OW20873   0.948   4.693   0.855 -0.2806  0.0732  0.4105
 6730SOL    HW120874   0.913   4.751   0.788  3.2181  1.7807 -0.1884
 6730SOL    HW220875   0.884   4.696   0.926 -3.4934 -0.7985 -2.2001
 6731SOL     OW20876   5.925   5.232   4.337 -0.0164 -0.7351  0.1051
 6731SOL    HW120877   5.901   5.196   4.422 -0.2329 -0.9491 -0.0445
 6731SOL    HW220878   6.013   5.200   4.320  0.6165  0.5139  0.9167
 6732SOL     OW20879   4.736   6.139   0.214 -0.1876 -0.7198 -0.6612
 6732SOL    HW120880   4.800   6.202   0.247 -0.9779  0.3974 -1.1978
 6732SOL    HW220881   4.761   6.124   0.123  0.0452 -1.2669 -0.5142
 6733SOL     OW20882   1.506   6.398   2.047 -0.3786  0.1888  0.8795
 6733SOL    HW120883   1.543   6.441   2.124  1.9002 -2.0343  1.1449
 6733SOL    HW220884   1.538   6.308   2.051 -1.4357 -0.4215 -1.8700
 6734SOL     OW20885   5.138   3.487   1.950  0.1456  0.3657  0.4440
 6734SOL    HW120886   5.142   3.425   2.023  0.2831  0.3693  0.4413
 6734SOL    HW220887   5.140   3.432   1.872 -2.1479  0.2387  0.4243
 6735SOL     OW20888   1.199   2.931   3.182 -0.8731 -0.2753  0.7621
 6735SOL    HW120889   1.157   2.924   3.268  0.8506 -0.9080  1.5904
 6735SOL    HW220890   1.292   2.935   3.201 -0.4840  0.0851 -1.0740
 6736SOL     OW20891   4.231   3.649   2.710 -0.0369 -0.4538  0.0847
 6736SOL    HW120892   4.189   3.563   2.723 -0.3340  0.0774  3.4021
 6736SOL    HW220893   4.215   3.696   2.792  0.4092  2.6984 -1.4970
 6737SOL     OW20894   0.334   5.331   4.228  0.3365  0.3678 -0.0076
 6737SOL    HW120895   0.332   5.304   4.319  0.9207  1.2509  0.2825
 6737SOL    HW220896   0.266   5.279   4.186  1.5600 -1.6927  0.4515
 6738SOL     OW20897   1.279   6.360   5.899 -0.1119  0.1210 -0.1507
 6738SOL    HW120898   1.219   6.429   5.870 -0.5744 -0.6472 -1.0742
 6738SOL    HW220899   1.226   6.280   5.896  0.6468 -0.4022  0.1180
 6739SOL     OW20900   1.846   1.632   1.493  0.1552 -0.6754  0.0024
 6739SOL    HW120901   1.803   1.646   1.577  1.1459  0.3570  0.3626
 6739SOL    HW220902   1.927   1.587   1.514  1.1745  0.9899 -0.1879
 6740SOL     OW20903   0.003   1.323   6.062 -0.4557 -0.5216  0.5622
 6740SOL    HW120904  -0.041   1.366   5.989  0.1941 -0.4606  0.1970
 6740SOL    HW220905  -0.053   1.340   6.138 -0.9437 -0.2664  0.1495
 6741SOL     OW20906   5.142   2.297   0.792  0.3353 -0.2059  0.0546
 6741SOL    HW120907   5.124   2.322   0.701 -0.4332 -1.8646 -0.2890
 6741SOL    HW220908   5.229   2.331   0.810  1.4429 -1.6919 -2.0494
 6742SOL     OW20909   4.651   0.881   0.336 -0.6117  0.2559 -0.3092
 6742SOL    HW120910   4.724   0.820   0.339 -1.9732 -1.4381 -0.4138
 6742SOL    HW220911   4.606   0.862   0.253 -0.5371  2.0815 -0.8216
 6743SOL     OW20912   0.491   3.048   6.451 -0.3237  0.3277 -0.0953
 6743SOL    HW120913   0.478   3.067   6.358  0.6993  0.0717 -0.3010
 6743SOL    HW220914   0.451   3.121   6.496 -1.5015  0.0869 -0.7122
 6744SOL     OW20915   1.190   5.931   1.900 -0.2637 -0.5197  0.2855
 6744SOL    HW120916   1.182   5.961   1.990 -1.0386  3.2594 -0.8655
 6744SOL    HW220917   1.284   5.931   1.883 -0.1623 -0.3729  0.8286
 6745SOL     OW20918   2.120   5.600   4.914 -0.0118 -0.4051 -0.5376
 6745SOL    HW120919   2.052   5.545   4.952  0.3982 -0.6101 -0.0808
 6745SOL    HW220920   2.200   5.547   4.920  0.5357  0.4982  0.5782
 6746SOL     OW20921   1.191   1.614   1.041 -0.6529 -0.5236  0.1583
 6746SOL    HW120922   1.225   1.658   0.964 -0.1866 -0.2618  0.5073
 6746SOL    HW220923   1.250   1.540   1.055 -0.6740 -0.5109  0.3209
 6747SOL     OW20924   3.917   2.446   6.483 -0.5415 -0.5067  0.2265
 6747SOL    HW120925   3.970   2.504   6.428  0.4622 -1.5404  0.0622
 6747SOL    HW220926   3.860   2.399   6.422  0.1524 -1.2206  0.1101
 6748SOL     OW20927   5.567   4.114   5.532  0.2119 -1.0603 -0.3488
 6748SOL    HW120928   5.631   4.185   5.527 -0.9814 -0.0335 -2.0275
 6748SOL    HW220929   5.500   4.148   5.592 -1.2183  0.0393 -2.4611
 6749SOL     OW20930   1.153   6.031   2.608 -0.1627 -0.3023 -0.3818
 6749SOL    HW120931   1.135   5.938   2.592 -1.7957 -0.1308  0.2014
 6749SOL    HW220932   1.165   6.037   2.703 -1.1803  0.2253 -0.2746
 6750SOL     OW20933   5.099   6.273   4.707 -0.2242 -0.3020 -0.5368
 6750SOL    HW120934   5.047   6.197   4.732 -1.3612  0.3557 -0.8221
 6750SOL    HW220935   5.090   6.279   4.612  1.4393 -0.9066 -0.7766
 6751SOL     OW20936   4.950   1.122   3.114 -0.1104  0.4248 -0.3135
 6751SOL    HW120937   4.888   1.076   3.057 -0.3778  0.7071 -0.2556
 6751SOL    HW220938   4.996   1.052   3.161 -1.4065  0.2265  0.7177
 6752SOL     OW20939   3.551   0.578   5.174  0.7900  0.4005  0.2342
 6752SOL    HW120940   3.579   0.635   5.103 -1.1734  2.6792  1.1512
 6752SOL    HW220941   3.580   0.622   5.254  1.8247 -1.4578  0.9604
 6753SOL     OW20942   1.621   0.269   0.512 -0.0311  0.0411  0.8106
 6753SOL    HW120943   1.549   0.246   0.453  1.0071  0.1026 -0.5128
 6753SOL    HW220944   1.593   0.351   0.552 -0.8955 -0.1757  0.6825
 6754SOL     OW20945   3.227   4.819   0.547 -0.5342 -0.4057  0.4235
 6754SOL    HW120946   3.315   4.851   0.566 -0.5353  0.4642 -0.9009
 6754SOL    HW220947   3.169   4.877   0.596 -0.4047 -0.7598  1.0135
 6755SOL     OW20948   3.696   3.016   0.746 -0.4513 -0.7813 -0.4896
 6755SOL    HW120949   3.740   3.097   0.720 -1.3774 -0.8595 -2.4732
 6755SOL    HW220950   3.611   3.044   0.779 -0.9905 -0.9221 -1.6819
 6756SOL     OW20951   0.718   3.783   3.351  0.3669  0.3587  0.0418
 6756SOL    HW120952   0.754   3.779   3.262  0.4477 -1.3206  0.1088
 6756SOL    HW220953   0.787   3.824   3.403 -0.0170  2.1433 -0.8035
 6757SOL     OW20954   0.671   1.142   6.004 -0.5691 -0.0097 -0.4216
 6757SOL    HW120955   0.658   1.204   5.933 -0.0638  1.5223  0.7733
 6757SOL    HW220956   0.712   1.066   5.962 -2.8954 -0.3841 -2.2430
 6758SOL     OW20957   3.032   1.766   4.629  0.3455  0.0620  0.3734
 6758SOL    HW120958   2.977   1.748   4.552 -1.7178  0.9640  1.5563
 6758SOL    HW220959   3.095   1.831   4.598 -2.9024  3.4769  0.2280
 6759SOL     OW20960   2.722   2.556   0.284 -0.3251 -0.4290 -0.4084
 6759SOL    HW120961   2.793   2.556   0.220  0.8021 -2.0661  0.7444
 6759SOL    HW220962   2.765   2.534   0.367 -1.8969  0.5604  0.7251
 6760SOL     OW20963   5.809   4.647   3.961  0.2534  0.5143 -0.0005
 6760SOL    HW120964   5.865   4.713   4.003  0.3415  0.8913 -0.6919
 6760SOL    HW220965   5.727   4.650   4.010 -0.7743  3.1146 -1.6401
 6761SOL     OW20966   3.145   1.199   3.026 -0.7860 -0.5632  0.1574
 6761SOL    HW120967   3.126   1.284   3.066 -1.2054 -0.8245  0.5211
 6761SOL    HW220968   3.228   1.173   3.066  0.3561  0.5370 -1.3669
 6762SOL     OW20969   3.489   4.346   2.381  0.1888 -0.2899 -0.3866
 6762SOL    HW120970   3.433   4.417   2.350 -0.0597 -1.1348 -1.9912
 6762SOL    HW220971   3.498   4.362   2.475 -0.8245  1.1737 -0.4993
 6763SOL     OW20972   3.876   6.085   3.319  0.0635  0.1673 -0.3035
 6763SOL    HW120973   3.854   5.998   3.285  1.1531 -0.3329  0.2039
 6763SOL    HW220974   3.965   6.075   3.353  0.9792  1.9745 -1.9539
 6764SOL     OW20975   0.884   5.697   0.775 -0.4214 -0.3057  0.1383
 6764SOL    HW120976   0.935   5.618   0.792  1.1362  0.5287 -0.4440
 6764SOL    HW220977   0.909   5.758   0.845  1.4548  1.0114 -1.5345
 6765SOL     OW20978   2.744   0.009   2.099 -0.0638 -0.5809 -0.1574
 6765SOL    HW120979   2.829  -0.027   2.071  0.6051  0.7184  0.1504
 6765SOL    HW220980   2.766   0.088   2.147 -1.4715 -0.2054 -0.0981
 6766SOL     OW20981   5.309   1.846   3.893  0.0155  0.3517 -0.0469
 6766SOL    HW120982   5.404   1.857   3.900 -0.0813  0.8633  0.6466
 6766SOL    HW220983   5.284   1.899   3.817  0.3636 -0.3785 -0.6869
 6767SOL     OW20984   3.241   4.974   1.512 -0.2153 -0.1434 -0.5175
 6767SOL    HW120985   3.321   4.967   1.563  0.7001  0.5001 -1.8113
 6767SOL    HW220986   3.239   4.896   1.458  1.0637  1.1245 -2.5258
 6768SOL     OW20987   5.081   1.252   1.506 -0.6980 -0.8583  0.0581
 6768SOL    HW120988   5.087   1.302   1.587  0.3850 -0.9102  0.0234
 6768SOL    HW220989   5.016   1.298   1.453  0.4743  0.7079 -0.1007
 6769SOL     OW20990   3.823   0.330   1.628  0.1741 -0.2959 -0.1365
 6769SOL    HW120991   3.733   0.356   1.607 -0.1434 -0.3774  1.0581
 6769SOL    HW220992   3.824   0.322   1.723  1.1815 -1.3087 -0.2169
 6770SOL     OW20993   4.160   2.643   2.782 -0.1597 -0.9667 -0.1665
 6770SOL    HW120994   4.068   2.655   2.806  0.0777  0.1142  0.2636
 6770SOL    HW220995   4.169   2.549   2.768 -1.3583 -1.0773 -0.3330
 6771SOL     OW20996   5.973   0.552   1.091 -0.5745 -0.5060  0.1016
 6771SOL    HW120997   5.892   0.565   1.141 -0.9268  1.5344 -0.9035
 6771SOL    HW220998   6.042   0.550   1.157 -1.1904  0.5228  0.8062
 6772SOL     OW20999   0.105   2.187   2.673 -0.1110  0.7788 -0.3945
 6772SOL    HW121000   0.097   2.092   2.664 -1.0218  0.6496  1.3303
 6772SOL    HW221001   0.045   2.223   2.608 -0.2180  0.1605 -0.6435
 6773SOL     OW21002   1.241   6.070   4.582 -0.2275 -0.1237 -0.5891
 6773SOL    HW121003   1.208   5.980   4.583 -2.9822  0.7808  0.9054
 6773SOL    HW221004   1.318   6.067   4.639 -2.2500 -1.0261  2.4089
 6774SOL     OW21005   3.868   0.488   6.320  0.3794  0.1944 -0.0312
 6774SOL    HW121006   3.819   0.440   6.388  0.2219  0.7202  0.2332
 6774SOL    HW221007   3.816   0.475   6.240  0.2351  0.0882  0.0787
 6775SOL     OW21008   6.032   3.139   0.939  0.1688  0.1127  0.1709
 6775SOL    HW121009   6.121   3.128   0.905  0.4768 -0.0157  0.9850
 6775SOL    HW221010   6.026   3.233   0.958  0.1163  0.1290  0.0716
 6776SOL     OW21011   2.975   2.927   5.918 -0.0953  0.0569 -0.4556
 6776SOL    HW121012   2.892   2.890   5.887 -0.3318  0.4045 -0.2533
 6776SOL    HW221013   3.035   2.853   5.921 -0.5849 -0.3294  0.0313
 6777SOL     OW21014   3.985   6.357   0.727  0.1196 -0.6548 -0.3677
 6777SOL    HW121015   4.073   6.367   0.764  0.5757 -2.0892 -1.0092
 6777SOL    HW221016   3.996   6.376   0.634 -0.2201 -0.9705 -0.4719
 6778SOL     OW21017   0.565   4.006   2.451  0.1413  0.5344  0.5347
 6778SOL    HW121018   0.566   4.100   2.433 -3.4383  1.2508  2.9959
 6778SOL    HW221019   0.473   3.981   2.446  0.8439 -2.6537  1.0352
 6779SOL     OW21020   2.648   0.961   0.883  0.0272 -0.0895 -0.1665
 6779SOL    HW121021   2.632   1.052   0.856  1.5131  0.4314  0.6468
 6779SOL    HW221022   2.737   0.942   0.853  0.4504 -0.6212  1.3546
 6780SOL     OW21023   2.483   5.639   0.431 -0.4256  0.1465 -0.6438
 6780SOL    HW121024   2.473   5.550   0.463  0.5854 -0.2085 -1.2601
 6780SOL    HW221025   2.440   5.639   0.345 -2.1173  0.7891  0.1583
 6781SOL     OW21026   6.490   5.632   4.754 -0.1130 -0.1190 -0.3131
 6781SOL    HW121027   6.574   5.601   4.788  1.8620  2.9418 -1.9174
 6781SOL    HW221028   6.478   5.582   4.673  0.6976  0.0791 -0.5700
 6782SOL     OW21029   6.110   4.082   0.466 -0.0507  0.8355  0.2694
 6782SOL    HW121030   6.086   3.997   0.504  1.1653  0.2901 -0.1208
 6782SOL    HW221031   6.079   4.076   0.375 -0.6675  1.1214  0.4613
 6783SOL     OW21032   3.069   1.699   5.247  0.2559  0.0486  0.4255
 6783SOL    HW121033   3.134   1.699   5.317  0.0979 -1.4977  0.6014
 6783SOL    HW221034   3.017   1.620   5.262 -0.8742  0.6038 -0.4386
 6784SOL     OW21035   6.360   1.798   1.049 -0.0021 -0.3519 -0.0012
 6784SOL    HW121036   6.434   1.741   1.068  0.2380  0.1558  0.6272
 6784SOL    HW221037   6.398   1.884   1.034 -0.4552 -0.0836  0.3302
 6785SOL     OW21038   4.859   4.842   2.627  0.6799  0.2769 -0.2069
 6785SOL    HW121039   4.862   4.910   2.695  0.8972 -0.6311  0.7161
 6785SOL    HW221040   4.841   4.890   2.546 -0.1248  1.3268  0.5677
 6786SOL     OW21041   4.597   0.277   1.744 -0.2154  0.0555  0.5923
 6786SOL    HW121042   4.690   0.264   1.723 -0.1688  1.7121 -0.4105
 6786SOL    HW221043   4.588   0.371   1.755 -1.7520 -0.1006  0.9015
 6787SOL     OW21044   1.644   4.979   1.394 -0.2409  0.3420 -0.3434
 6787SOL    HW121045   1.710   4.937   1.448 -0.1965  0.1292 -0.5613
 6787SOL    HW221046   1.640   4.926   1.314 -0.7337  0.3043 -0.2977
 6788SOL     OW21047   1.360   2.965   1.572  0.2653 -0.1689  0.0658
 6788SOL    HW121048   1.408   2.924   1.643  0.1184 -1.4896 -0.5602
 6788SOL    HW221049   1.428   3.006   1.518  0.4590  0.0521  0.4728
 6789SOL     OW21050   4.117   4.287   2.560 -0.3092  0.0342 -0.4849
 6789SOL    HW121051   4.175   4.227   2.607 -0.5884  0.1568  0.0138
 6789SOL    HW221052   4.167   4.310   2.481 -1.2277 -2.9751 -2.1236
 6790SOL     OW21053   5.774   5.607   6.085  0.3299 -0.1403 -0.3449
 6790SOL    HW121054   5.762   5.554   6.164  0.6495  1.0244  0.5162
 6790SOL    HW221055   5.868   5.603   6.068  0.6256  1.4189  0.6885
 6791SOL     OW21056   4.682   3.917   2.839 -0.0525  0.0253 -0.0814
 6791SOL    HW121057   4.750   3.852   2.822 -0.8109 -1.4962  2.2352
 6791SOL    HW221058   4.724   3.984   2.893  0.2476  0.5364 -0.9208
 6792SOL     OW21059   0.857   3.625   1.011  0.6811 -0.2899  0.3014
 6792SOL    HW121060   0.782   3.682   0.995  0.7596  0.0536  1.0903
 6792SOL    HW221061   0.923   3.683   1.049  1.6867 -0.3934 -1.1793
 6793SOL     OW21062   1.588   3.260   1.593 -0.2510 -0.5053  0.7141
 6793SOL    HW121063   1.516   3.308   1.634  0.8867  3.2315 -1.2000
 6793SOL    HW221064   1.659   3.264   1.658 -1.0490 -2.4949  1.8061
 6794SOL     OW21065   1.797   4.624   3.624 -0.1962  0.3461 -0.0976
 6794SOL    HW121066   1.810   4.596   3.534  1.0958  0.6538 -0.0235
 6794SOL    HW221067   1.885   4.626   3.662 -0.4113  2.6425  0.4300
 6795SOL     OW21068   5.898   0.855   0.326  0.4795  0.3948  0.1320
 6795SOL    HW121069   5.933   0.940   0.301  0.2079  0.3019 -0.5806
 6795SOL    HW221070   5.963   0.819   0.387 -0.2617  1.8647  1.8875
 6796SOL     OW21071   0.384   6.141   5.843 -0.9879  0.0994  0.2015
 6796SOL    HW121072   0.332   6.109   5.770  0.0023  1.7195 -1.2874
 6796SOL    HW221073   0.379   6.071   5.908  0.9031 -3.1184 -2.7410
 6797SOL     OW21074   2.722   5.728   6.185  0.2510  0.1585  0.4920
 6797SOL    HW121075   2.794   5.749   6.244  0.8478  0.3087 -0.2672
 6797SOL    HW221076   2.698   5.638   6.207  0.6653  0.1105  0.7540
 6798SOL     OW21077   5.942   0.530   4.057 -0.4116 -0.0034  0.4214
 6798SOL    HW121078   6.002   0.603   4.071  0.6929 -0.6592 -0.6893
 6798SOL    HW221079   5.910   0.542   3.968  0.5712 -1.3936 -0.1620
 6799SOL     OW21080   0.690   0.066   1.114  0.4383  0.0021 -0.1672
 6799SOL    HW121081   0.683   0.160   1.097 -1.3942 -0.1830 -0.7635
 6799SOL    HW221082   0.606   0.043   1.155  0.5660 -1.4751 -0.6674
 6800SOL     OW21083   6.081   5.328   5.350 -0.0612  0.1790  0.7049
 6800SOL    HW121084   6.044   5.403   5.303 -2.7725 -1.4969 -0.0925
 6800SOL    HW221085   6.175   5.345   5.353 -0.3465  2.6600 -1.1426
 6801SOL     OW21086   0.527   1.893   3.454 -0.0690 -0.3110  0.0176
 6801SOL    HW121087   0.488   1.936   3.378  0.4334  0.2944  0.0858
 6801SOL    HW221088   0.564   1.965   3.505 -1.1894 -0.6256  1.3006
 6802SOL     OW21089   0.354   3.614   2.000 -0.3324 -0.0813 -0.1026
 6802SOL    HW121090   0.280   3.674   1.990 -1.5664 -1.5594 -0.2151
 6802SOL    HW221091   0.384   3.597   1.911 -2.1454 -2.1635 -0.3949
 6803SOL     OW21092   3.719   1.096   5.687 -0.2350 -0.4523 -0.0349
 6803SOL    HW121093   3.640   1.131   5.644  0.5646  1.2745 -0.1766
 6803SOL    HW221094   3.722   1.140   5.771  1.0102  0.1162 -0.3626
 6804SOL     OW21095   4.332   1.878   4.636  0.0887 -0.3806 -0.0113
 6804SOL    HW121096   4.270   1.880   4.563  1.3208  1.4010 -1.1057
 6804SOL    HW221097   4.344   1.786   4.656  0.5273 -0.9984 -2.8188
 6805SOL     OW21098   1.939   0.415   1.281  0.5765 -0.0744 -0.0899
 6805SOL    HW121099   1.892   0.451   1.356  1.8064  0.2509  0.5533
 6805SOL    HW221100   1.959   0.490   1.226  3.0079  0.3298  1.1776
 6806SOL     OW21101   1.334   5.401   3.411  0.0269 -0.1168 -0.2286
 6806SOL    HW121102   1.382   5.324   3.440  0.3436  0.2813  0.3048
 6806SOL    HW221103   1.323   5.455   3.489  2.0636  1.6066 -1.0353
 6807SOL     OW21104   2.916   3.296   4.586  0.3968  0.0740 -0.6032
 6807SOL    HW121105   2.836   3.275   4.537  1.4422 -0.7590 -2.0420
 6807SOL    HW221106   2.934   3.216   4.636 -0.1933  0.6200  0.5190
 6808SOL     OW21107   6.513   4.799   3.420  0.2585 -0.6632 -0.3497
 6808SOL    HW121108   6.497   4.885   3.381 -0.7114 -0.8408 -0.3647
 6808SOL    HW221109   6.557   4.750   3.351  1.0799 -0.0955 -0.2430
 6809SOL     OW21110   3.400   1.421   6.141  0.6741  0.2170 -0.2794
 6809SOL    HW121111   3.346   1.496   6.164  0.3748 -0.5642  1.7778
 6809SOL    HW221112   3.354   1.379   6.068 -0.2827  0.8498 -0.0578
 6810SOL     OW21113   4.820   0.032   4.075  0.1786 -0.4833 -0.4446
 6810SOL    HW121114   4.758   0.097   4.108  0.8288  0.0144 -0.1908
 6810SOL    HW221115   4.764  -0.038   4.039 -0.5444  0.4977 -1.3128
 6811SOL     OW21116   2.153   5.656   0.864 -0.4692 -0.0114  0.3415
 6811SOL    HW121117   2.157   5.572   0.818 -0.8902  0.4707 -0.6053
 6811SOL    HW221118   2.127   5.719   0.796 -0.4387  0.8335  1.1008
 6812SOL     OW21119   3.673   2.913   2.394  0.2977 -0.7519 -0.2873
 6812SOL    HW121120   3.627   2.864   2.462  0.3220 -2.1624 -1.2404
 6812SOL    HW221121   3.762   2.878   2.395 -0.1735 -2.1820 -2.2594
 6813SOL     OW21122   1.569   3.102   6.405 -0.9558 -0.3933  0.0806
 6813SOL    HW121123   1.591   3.195   6.400  0.5513 -0.7479 -0.3876
 6813SOL    HW221124   1.653   3.056   6.401 -1.6941 -1.8012 -0.2743
 6814SOL     OW21125   0.393   2.982   2.207 -0.3011  0.1992  0.2052
 6814SOL    HW121126   0.358   3.070   2.216  0.2585  0.5291 -0.7473
 6814SOL    HW221127   0.316   2.927   2.193 -0.5009  1.1613 -3.8976
 6815SOL     OW21128   1.312   1.308   6.156  0.1103  0.3266 -0.2033
 6815SOL    HW121129   1.356   1.223   6.164  0.0624  0.1784 -1.3053
 6815SOL    HW221130   1.343   1.359   6.231 -0.6949 -1.0268  1.0997
 6816SOL     OW21131   2.796   4.894   0.202  0.4955 -0.6471  0.3348
 6816SOL    HW121132   2.862   4.961   0.189 -0.8723  0.3096 -2.2064
 6816SOL    HW221133   2.818   4.825   0.139 -1.0962 -0.1222 -0.8574
 6817SOL     OW21134   3.307   3.878   0.696 -0.5826 -0.2928 -0.0164
 6817SOL    HW121135   3.245   3.867   0.625 -1.3229  2.6491  0.0175
 6817SOL    HW221136   3.391   3.890   0.653 -0.8946  0.6357 -0.4053
 6818SOL     OW21137   4.693   6.389   0.636  0.5116 -0.3047  0.1971
 6818SOL    HW121138   4.690   6.485   0.635 -2.9631 -0.2311 -2.1692
 6818SOL    HW221139   4.738   6.366   0.555 -1.2565 -0.5168 -0.7837
 6819SOL     OW21140   2.346   2.101   4.052 -0.3515 -0.2142  0.1740
 6819SOL    HW121141   2.264   2.150   4.058 -1.0500 -1.4414  1.3970
 6819SOL    HW221142   2.370   2.083   4.143  0.5443 -1.0533 -0.2000
 6820SOL     OW21143   4.705   3.480   3.521  0.1094 -0.1934  0.6561
 6820SOL    HW121144   4.699   3.568   3.559 -1.2627 -1.4368  3.5691
 6820SOL    HW221145   4.789   3.446   3.553 -0.7619 -1.0074  2.2206
 6821SOL     OW21146   4.469   5.515   2.464  0.2175  0.3455  0.1095
 6821SOL    HW121147   4.442   5.518   2.372 -0.7313  2.1589  0.3976
 6821SOL    HW221148   4.437   5.431   2.496  0.1002 -0.0841 -1.0693
 6822SOL     OW21149   1.614   4.829   0.894 -0.6170 -0.2018 -0.0525
 6822SOL    HW121150   1.535   4.806   0.845  0.4467 -2.3311 -0.8966
 6822SOL    HW221151   1.626   4.923   0.878 -3.1509  0.2883  0.4529
 6823SOL     OW21152   0.741   3.964   1.377  0.7687  0.0896 -0.1184
 6823SOL    HW121153   0.835   3.972   1.387  0.4110  1.3193  4.8460
 6823SOL    HW221154   0.711   4.053   1.357  0.5674 -0.0216 -0.3241
 6824SOL     OW21155   3.184   5.847   5.429  0.2514 -0.0434  0.1950
 6824SOL    HW121156   3.131   5.823   5.352  1.0860  0.7957 -0.6631
 6824SOL    HW221157   3.120   5.880   5.492 -0.4075 -0.3609 -0.2950
 6825SOL     OW21158   1.472   1.455   0.218  0.1979 -0.3483  0.2038
 6825SOL    HW121159   1.533   1.381   0.222 -0.0365 -0.5799 -0.4771
 6825SOL    HW221160   1.386   1.416   0.233  0.1248 -0.1424  0.3214
 6826SOL     OW21161   2.451   1.681   0.517 -0.4155  0.0408 -0.2171
 6826SOL    HW121162   2.462   1.714   0.428 -1.9572 -0.9880 -0.8426
 6826SOL    HW221163   2.356   1.669   0.527 -0.3307  0.5472  1.7365
 6827SOL     OW21164   1.394   4.146   6.477 -0.6549  0.5706  0.0947
 6827SOL    HW121165   1.400   4.128   6.383  0.2392  0.7831  0.0958
 6827SOL    HW221166   1.314   4.103   6.505 -1.1979  0.9303 -0.8660
 6828SOL     OW21167   3.687   3.554   5.448  0.0341  0.5248 -0.5847
 6828SOL    HW121168   3.728   3.641   5.455 -0.0153  0.4689  0.4817
 6828SOL    HW221169   3.612   3.558   5.507  1.4787 -1.0550  1.5432
 6829SOL     OW21170   3.819   5.106   1.313  0.4450  0.2168 -0.0281
 6829SOL    HW121171   3.891   5.162   1.285  0.3281  0.7066  0.6358
 6829SOL    HW221172   3.766   5.161   1.370  1.2971 -1.0456  2.1117
 6830SOL     OW21173   3.253   4.741   1.384  0.2051 -0.2144 -0.6718
 6830SOL    HW121174   3.191   4.706   1.448  1.3854  0.3464  0.8489
 6830SOL    HW221175   3.321   4.674   1.377  0.5750  0.1455 -0.5758
 6831SOL     OW21176   1.878   5.549   2.819  0.4862  0.3278  0.0067
 6831SOL    HW121177   1.832   5.469   2.795  1.0315  0.1454 -0.4520
 6831SOL    HW221178   1.860   5.611   2.748 -1.0884  1.1104  1.0257
 6832SOL     OW21179   1.046   1.378   1.098 -0.5356 -0.5112 -0.2109
 6832SOL    HW121180   0.959   1.374   1.057 -2.2038 -1.8096  3.0608
 6832SOL    HW221181   1.048   1.465   1.139  0.5595  0.2403 -1.7440
 6833SOL     OW21182   4.040   2.801   4.998 -0.0520 -0.0812 -0.3708
 6833SOL    HW121183   4.039   2.883   4.948 -0.3450  1.2428  1.6954
 6833SOL    HW221184   4.133   2.787   5.019 -0.1450  0.5418  0.5072
 6834SOL     OW21185   1.105   1.379   4.591  0.5649 -0.0356 -0.2112
 6834SOL    HW121186   1.175   1.330   4.634 -1.6188 -1.3226  2.1984
 6834SOL    HW221187   1.063   1.316   4.533  1.9036  1.0004 -2.4225
 6835SOL     OW21188   2.882   2.960   1.536 -0.7353  0.0359 -0.1742
 6835SOL    HW121189   2.903   2.955   1.442 -0.9906 -1.0851 -0.1851
 6835SOL    HW221190   2.806   3.018   1.541 -0.4107  0.5054 -0.6058
 6836SOL     OW21191   1.738   2.412   1.706 -0.3279  0.2354  0.1225
 6836SOL    HW121192   1.659   2.457   1.736 -0.2270  0.4648  0.0460
 6836SOL    HW221193   1.802   2.482   1.692 -0.1836  0.0720 -0.0418
 6837SOL     OW21194   3.599   3.685   4.637  0.0870 -0.5699 -0.2159
 6837SOL    HW121195   3.681   3.640   4.621 -0.1368 -1.1681  0.2930
 6837SOL    HW221196   3.619   3.747   4.707  0.1615 -0.5377 -0.2653
 6838SOL     OW21197   4.097   3.601   5.861 -0.5633 -0.0439  0.5312
 6838SOL    HW121198   4.171   3.642   5.906  1.2313 -1.7415 -0.7227
 6838SOL    HW221199   4.116   3.507   5.864 -2.0228 -0.4385 -0.9688
 6839SOL     OW21200   3.080   2.644   4.334  0.1376  0.0827  0.2674
 6839SOL    HW121201   3.096   2.726   4.382 -0.7189  0.0136  0.6982
 6839SOL    HW221202   3.052   2.582   4.401 -1.1328 -0.0059 -0.3064
 6840SOL     OW21203   3.963   5.901   0.115 -0.1618 -0.3801  0.2056
 6840SOL    HW121204   3.940   5.892   0.023  2.5177  2.8730 -0.9970
 6840SOL    HW221205   3.884   5.936   0.157 -0.9330 -0.3796 -1.1964
 6841SOL     OW21206   4.699   4.736   1.906  0.5951 -0.1807 -0.3436
 6841SOL    HW121207   4.666   4.745   1.817  3.3064  1.0996 -1.3238
 6841SOL    HW221208   4.751   4.655   1.904  0.6916 -0.1293  0.0695
 6842SOL     OW21209   0.635   4.850   3.428  0.1251  0.7334  0.2662
 6842SOL    HW121210   0.717   4.803   3.441 -0.3189  0.3849  2.2181
 6842SOL    HW221211   0.654   4.940   3.454  0.7545  1.5747 -2.6837
 6843SOL     OW21212   4.701   0.166   0.304 -0.2422 -0.1504 -0.1577
 6843SOL    HW121213   4.689   0.104   0.232 -1.7660 -0.6818  0.5297
 6843SOL    HW221214   4.674   0.251   0.267  0.4126 -0.1488 -0.6480
 6844SOL     OW21215   4.718   0.565   2.888 -0.1774  0.4871  0.4203
 6844SOL    HW121216   4.674   0.480   2.894  0.6071  0.0201 -0.1798
 6844SOL    HW221217   4.713   0.601   2.976 -1.6005  0.3786  0.3968
 6845SOL     OW21218   4.690   3.958   4.178 -0.5666  0.6103  0.2360
 6845SOL    HW121219   4.639   4.037   4.159 -1.2473  0.0580 -0.2567
 6845SOL    HW221220   4.778   3.978   4.146 -0.9413  0.8515 -0.6671
 6846SOL     OW21221   3.211   2.420   5.051  0.0284  0.4728 -0.3188
 6846SOL    HW121222   3.252   2.457   5.129 -1.0239  0.8477  0.0811
 6846SOL    HW221223   3.274   2.355   5.019  1.1261  1.3567 -0.0178
 6847SOL     OW21224   2.578   1.302   4.722 -0.5864 -0.3536 -0.6901
 6847SOL    HW121225   2.487   1.279   4.700 -0.9729 -0.1406  0.5775
 6847SOL    HW221226   2.608   1.231   4.779 -0.0240 -0.3127 -0.9294
 6848SOL     OW21227   5.458   1.728   1.901 -0.2153  0.2191 -0.2349
 6848SOL    HW121228   5.495   1.691   1.981  2.7214  2.8478 -0.1827
 6848SOL    HW221229   5.371   1.760   1.926 -0.0371 -0.5215  1.4145
 6849SOL     OW21230   1.073   6.380   3.204  0.2576 -0.5006  0.0475
 6849SOL    HW121231   1.048   6.426   3.124  0.4604 -0.3256  0.0847
 6849SOL    HW221232   1.003   6.400   3.267 -1.0949 -2.4131 -0.7290
 6850SOL     OW21233   0.830   0.035   4.681 -0.3739 -0.3200 -0.2684
 6850SOL    HW121234   0.773   0.017   4.606 -0.5045 -0.8961 -0.0338
 6850SOL    HW221235   0.918   0.042   4.644 -0.4564 -0.4599 -0.4941
 6851SOL     OW21236   2.272   0.382   1.306 -0.5946  0.0826 -0.2837
 6851SOL    HW121237   2.226   0.357   1.386 -1.4108  1.6212 -0.2227
 6851SOL    HW221238   2.344   0.320   1.299 -2.0237 -1.7246  0.2256
 6852SOL     OW21239   1.485   3.278   2.721  0.0929 -0.3327 -0.4546
 6852SOL    HW121240   1.527   3.211   2.666 -1.1253 -2.1877  0.7566
 6852SOL    HW221241   1.554   3.305   2.782  0.6792 -0.2639 -1.1332
 6853SOL     OW21242   2.726   0.260   0.059 -0.0959 -0.3967 -0.5388
 6853SOL    HW121243   2.740   0.213   0.141  1.6079  0.7351 -0.1276
 6853SOL    HW221244   2.810   0.302   0.041 -0.9130  0.6786 -2.0403
 6854SOL     OW21245   2.813   0.829   6.146 -0.2175  0.4643 -0.2138
 6854SOL    HW121246   2.878   0.898   6.158 -1.7359  1.9979 -0.5871
 6854SOL    HW221247   2.816   0.810   6.052 -0.4065  0.6255 -0.2516
 6855SOL     OW21248   2.738   0.831   5.213  0.1997  0.0226 -0.0658
 6855SOL    HW121249   2.712   0.779   5.137  2.5196 -0.4517 -0.6294
 6855SOL    HW221250   2.742   0.920   5.180 -0.1840  0.0223 -0.1146
 6856SOL     OW21251   4.064   0.677   2.949  0.0357 -0.7866  0.1061
 6856SOL    HW121252   4.112   0.687   2.867 -0.9353  0.4859 -0.3298
 6856SOL    HW221253   4.026   0.589   2.943 -1.8808  0.0820 -1.8730
 6857SOL     OW21254   2.913   5.297   0.199 -0.4707  0.0553  0.1970
 6857SOL    HW121255   2.859   5.375   0.193 -1.6527 -0.7327  0.3058
 6857SOL    HW221256   2.970   5.301   0.122 -0.4604  1.0435  0.2465
 6858SOL     OW21257   0.734   3.959   5.931  0.3942  0.0483  0.1910
 6858SOL    HW121258   0.668   4.004   5.984  0.0311  1.4289 -1.3463
 6858SOL    HW221259   0.760   3.884   5.984 -1.1787  0.4087  1.5690
 6859SOL     OW21260   1.780   1.946   0.332  0.5118 -0.4861  0.4029
 6859SOL    HW121261   1.710   2.003   0.301  0.6178  0.6903  2.2177
 6859SOL    HW221262   1.805   1.895   0.254 -1.6696 -0.2636 -0.5105
 6860SOL     OW21263   1.865   4.414   4.467  0.4535  0.8811  0.1446
 6860SOL    HW121264   1.903   4.487   4.516  0.9673 -0.0436  1.1405
 6860SOL    HW221265   1.823   4.456   4.391  1.4115  2.1341  0.2756
 6861SOL     OW21266   3.606   2.962   1.954 -0.5164  0.0533 -0.2241
 6861SOL    HW121267   3.550   3.009   2.016 -1.0970 -0.5684 -0.2600
 6861SOL    HW221268   3.603   3.015   1.875  1.2205  1.5115  0.6157
 6862SOL     OW21269   2.656   0.554   1.478 -0.3315 -0.0259  0.0952
 6862SOL    HW121270   2.650   0.536   1.384 -0.8746 -0.2608  0.1727
 6862SOL    HW221271   2.750   0.562   1.494 -0.2799  1.9223 -0.8182
 6863SOL     OW21272   0.918   4.388   5.828 -0.3305 -0.2127  0.3230
 6863SOL    HW121273   0.940   4.461   5.769  0.0310 -0.1635  0.5196
 6863SOL    HW221274   0.840   4.349   5.789 -0.0287 -0.2491 -0.2581
 6864SOL     OW21275   6.475   2.812   0.999 -0.1238  0.0631 -0.3600
 6864SOL    HW121276   6.448   2.765   1.078  0.8758  0.5585  0.2888
 6864SOL    HW221277   6.556   2.768   0.972 -0.0423  0.3994 -0.6665
 6865SOL     OW21278   1.000   5.895   2.841  0.3527 -0.3539  0.6129
 6865SOL    HW121279   1.081   5.935   2.873  1.1701 -2.1747  0.9800
 6865SOL    HW221280   0.946   5.968   2.814  0.8475  1.1268  3.3199
 6866SOL     OW21281   0.842   3.128   5.612  0.1066 -0.3405  0.2906
 6866SOL    HW121282   0.888   3.044   5.612 -1.0794 -1.0151  0.9266
 6866SOL    HW221283   0.805   3.135   5.700 -3.5996 -1.3365 -1.0028
 6867SOL     OW21284   4.222   0.464   1.570  0.0255  0.1407 -0.4524
 6867SOL    HW121285   4.138   0.506   1.551  0.2798  0.9174  0.0766
 6867SOL    HW221286   4.203   0.407   1.645  0.0963  0.7651  0.0449
 6868SOL     OW21287   5.082   2.441   3.194 -0.2929  0.5139  0.0546
 6868SOL    HW121288   5.067   2.353   3.228 -1.2675  0.8298  0.4809
 6868SOL    HW221289   5.168   2.436   3.152  0.3098 -0.2642  1.3161
 6869SOL     OW21290   1.124   4.760   5.279  0.1386 -0.5529  0.1045
 6869SOL    HW121291   1.159   4.796   5.361  0.0582  0.3004 -0.2233
 6869SOL    HW221292   1.152   4.669   5.279 -0.1604 -0.6678  1.2609
 6870SOL     OW21293   2.811   3.410   1.233 -0.0833 -0.1375 -0.1264
 6870SOL    HW121294   2.719   3.432   1.247  0.0892  2.8434 -2.4869
 6870SOL    HW221295   2.826   3.427   1.140  3.1034  0.6062  0.3878
 6871SOL     OW21296   1.526   3.742   4.791 -0.3151  0.1201 -0.2095
 6871SOL    HW121297   1.476   3.702   4.863 -2.9766 -0.2620 -2.1287
 6871SOL    HW221298   1.524   3.677   4.721  1.1871  0.9564 -1.0901
 6872SOL     OW21299   4.417   2.323   2.371 -0.3618 -0.2399 -0.0265
 6872SOL    HW121300   4.325   2.327   2.347  0.0018  0.4953 -1.4497
 6872SOL    HW221301   4.460   2.287   2.293  0.9436  2.6352 -0.7831
 6873SOL     OW21302   1.824   3.455   5.838 -0.4924 -0.0023 -0.3060
 6873SOL    HW121303   1.784   3.528   5.791  1.2254  1.3762  0.2710
 6873SOL    HW221304   1.827   3.483   5.929 -1.9519 -1.8170  0.3688
 6874SOL     OW21305   0.627   4.093   6.376 -0.2991 -0.2837 -0.3301
 6874SOL    HW121306   0.704   4.046   6.409  1.3722  0.7790 -2.4334
 6874SOL    HW221307   0.643   4.185   6.398 -1.6144 -0.1764  0.2876
 6875SOL     OW21308   1.050   3.759   4.884 -0.0202  0.2762  0.4025
 6875SOL    HW121309   1.113   3.771   4.955 -0.3474  0.9748  0.5861
 6875SOL    HW221310   0.995   3.838   4.887 -1.0839 -0.4421  0.4339
 6876SOL     OW21311   2.132   0.926   4.876  0.5556 -0.1555  0.1341
 6876SOL    HW121312   2.127   0.884   4.961 -0.3601 -0.9950 -0.3143
 6876SOL    HW221313   2.219   0.966   4.873  0.0915  1.1024  2.0156
 6877SOL     OW21314   2.355   5.665   2.372 -0.1006  0.1364 -0.2362
 6877SOL    HW121315   2.402   5.603   2.429  0.4055  1.3108  0.6775
 6877SOL    HW221316   2.375   5.636   2.283 -0.2631 -1.2761  0.1692
 6878SOL     OW21317   3.058   6.318   1.259  0.6002 -0.0371  0.1096
 6878SOL    HW121318   3.046   6.233   1.217 -1.9430  1.0179 -1.5909
 6878SOL    HW221319   2.975   6.336   1.302  1.7665  0.7680  2.1572
 6879SOL     OW21320   3.641   2.527   5.121  0.0051  0.0167  0.0794
 6879SOL    HW121321   3.561   2.549   5.073 -1.6900 -0.9034  2.3420
 6879SOL    HW221322   3.682   2.612   5.139 -0.3121  0.4814 -1.2782
 6880SOL     OW21323   4.259   2.381   6.196 -0.3799 -0.0544  0.8042
 6880SOL    HW121324   4.303   2.297   6.179 -0.3635 -0.0278  0.7177
 6880SOL    HW221325   4.320   2.447   6.162 -0.9772 -0.0642 -0.3379
 6881SOL     OW21326   4.391   5.039   1.376  0.4131 -0.0156 -0.6844
 6881SOL    HW121327   4.354   4.965   1.328 -0.2196 -0.9728  1.1695
 6881SOL    HW221328   4.320   5.068   1.433  1.6775 -0.1696  1.0418
 6882SOL     OW21329   4.662   0.270   2.587  0.1321 -0.0849 -0.4900
 6882SOL    HW121330   4.626   0.327   2.519 -0.3264 -1.6240 -1.5713
 6882SOL    HW221331   4.648   0.181   2.555  0.3338 -0.8487  1.4084
 6883SOL     OW21332   2.624   0.334   5.322  0.5183  0.2793 -0.2582
 6883SOL    HW121333   2.531   0.347   5.342  0.4651 -0.7474  0.2308
 6883SOL    HW221334   2.654   0.419   5.289 -0.1431  1.1682  1.3462
 6884SOL     OW21335   1.718   0.522   6.446  0.5689  0.4888 -0.3391
 6884SOL    HW121336   1.703   0.554   6.357 -2.4748  0.9674  0.2522
 6884SOL    HW221337   1.754   0.434   6.433 -0.8112  0.1284 -2.0704
 6885SOL     OW21338   5.876   5.197   3.553  0.1582  0.3210  0.3522
 6885SOL    HW121339   5.837   5.254   3.487  0.6246 -1.2847 -1.3957
 6885SOL    HW221340   5.886   5.253   3.630 -1.1492  2.0491 -0.6609
 6886SOL     OW21341   6.172   1.321   5.537 -0.0671 -0.0216  0.0841
 6886SOL    HW121342   6.127   1.270   5.470  0.1313  2.1193 -1.7942
 6886SOL    HW221343   6.118   1.400   5.548  1.1214  0.7388  0.7107
 6887SOL     OW21344   6.012   5.900   4.516  0.0094  0.5827 -0.1584
 6887SOL    HW121345   6.097   5.939   4.496 -0.0390  0.2575 -1.0795
 6887SOL    HW221346   5.949   5.964   4.482 -0.1087  0.7046  0.2909
 6888SOL     OW21347   5.185   3.166   0.685 -0.3854  0.2274 -0.4146
 6888SOL    HW121348   5.150   3.124   0.606 -1.1033  0.9738 -0.4997
 6888SOL    HW221349   5.110   3.210   0.725 -0.2881 -1.0296  1.2879
 6889SOL     OW21350   3.987   0.973   2.162  0.1918  0.7784 -0.0964
 6889SOL    HW121351   4.026   0.913   2.099  0.7823  1.4915 -0.4221
 6889SOL    HW221352   4.042   0.965   2.240  0.4187  1.0731 -0.2245
 6890SOL     OW21353   2.750   5.613   3.618 -0.0488  0.0992  0.3309
 6890SOL    HW121354   2.746   5.624   3.713 -0.1327  0.9343  0.2385
 6890SOL    HW221355   2.780   5.698   3.585  1.6940 -0.6998 -0.2732
 6891SOL     OW21356   2.488   1.083   3.205  0.2703 -0.9020 -0.2609
 6891SOL    HW121357   2.406   1.116   3.169  0.5257 -0.0033 -0.0557
 6891SOL    HW221358   2.529   1.036   3.132 -0.0806 -0.7048 -0.5897
 6892SOL     OW21359   3.699   1.712   2.195  0.0611  0.1956 -0.2279
 6892SOL    HW121360   3.791   1.687   2.200 -0.4159 -1.4974  0.6029
 6892SOL    HW221361   3.655   1.660   2.262 -1.3173  1.9905  0.3726
 6893SOL     OW21362   1.209   2.546   3.371 -0.6983 -0.4715  0.0446
 6893SOL    HW121363   1.266   2.619   3.396  0.7196 -0.9163 -1.6600
 6893SOL    HW221364   1.123   2.585   3.359  0.2025  1.1830 -1.7095
 6894SOL     OW21365   4.013   1.061   3.517  0.2404 -0.1101  0.2769
 6894SOL    HW121366   4.104   1.043   3.496 -0.0408 -1.1811 -0.1140
 6894SOL    HW221367   4.007   1.048   3.611 -0.0651 -2.8898 -0.0417
 6895SOL     OW21368   5.361   4.860   2.005  0.0527 -0.3796 -0.2764
 6895SOL    HW121369   5.272   4.875   2.035  0.0944  1.1770 -0.8153
 6895SOL    HW221370   5.410   4.937   2.034  0.5243  0.2651 -2.5420
 6896SOL     OW21371   5.385   6.209   4.611  0.7368 -0.1738  0.1095
 6896SOL    HW121372   5.373   6.290   4.660 -0.3464 -0.1217 -0.2073
 6896SOL    HW221373   5.468   6.220   4.565  1.2930  0.1665  1.1710
 6897SOL     OW21374   2.035   2.382   0.600 -0.4242 -0.4507 -0.4245
 6897SOL    HW121375   2.109   2.430   0.563 -0.1696  1.5613  2.3245
 6897SOL    HW221376   2.075   2.313   0.653 -0.6837 -1.6153 -1.7071
 6898SOL     OW21377   4.899   0.754   0.405  0.1144  0.2766 -0.5707
 6898SOL    HW121378   4.905   0.749   0.501 -0.6388  1.1116 -0.4682
 6898SOL    HW221379   4.925   0.844   0.384 -0.2704  0.2687 -1.1042
 6899SOL     OW21380   1.210   0.222   3.007  0.4006 -0.0608  0.3564
 6899SOL    HW121381   1.284   0.181   3.052 -0.2554 -1.5510  0.1375
 6899SOL    HW221382   1.143   0.153   3.004  0.0003  0.3527 -1.8862
 6900SOL     OW21383   4.144   3.795   2.949  0.4365  0.5814 -0.1568
 6900SOL    HW121384   4.082   3.743   3.000  0.3512  0.5208 -0.3188
 6900SOL    HW221385   4.104   3.881   2.941 -0.1969  0.1987 -1.2800
 6901SOL     OW21386   3.812   2.392   0.213  0.1081  0.0594 -0.5696
 6901SOL    HW121387   3.847   2.448   0.282 -0.1613 -0.0584 -0.3341
 6901SOL    HW221388   3.853   2.424   0.132 -0.6885  1.1598 -0.5639
 6902SOL     OW21389   4.020   3.366   2.370  0.0157  0.5047  0.5295
 6902SOL    HW121390   3.976   3.351   2.454  1.0211 -0.1337  0.9535
 6902SOL    HW221391   4.113   3.359   2.390  0.2533 -0.2560 -0.7575
 6903SOL     OW21392   0.941   1.677   3.149 -0.0887  0.1038 -0.3470
 6903SOL    HW121393   1.026   1.703   3.113  0.4129  0.5164  1.0612
 6903SOL    HW221394   0.885   1.754   3.140  0.0141  0.1817 -0.3194
 6904SOL     OW21395   3.392   2.194   0.766 -0.3267  0.2174  0.2519
 6904SOL    HW121396   3.385   2.278   0.721  0.8666 -0.3171 -1.0312
 6904SOL    HW221397   3.302   2.165   0.777 -0.9716  2.7682  3.0440
 6905SOL     OW21398   4.045   3.128   1.563 -0.3880  0.1903 -0.6654
 6905SOL    HW121399   4.003   3.052   1.521 -0.0062 -1.1088  1.1796
 6905SOL    HW221400   3.998   3.138   1.646  1.1165  0.4631  0.1846
 6906SOL     OW21401   0.268   0.326   4.133  0.3479  0.8707 -0.1130
 6906SOL    HW121402   0.198   0.273   4.096 -0.5153  1.4394  0.6274
 6906SOL    HW221403   0.253   0.413   4.096 -0.2822  1.3479  1.1924
 6907SOL     OW21404   5.771   0.050   4.707 -0.1934  0.2251  0.4709
 6907SOL    HW121405   5.741  -0.017   4.767  3.1500  0.1216  2.2631
 6907SOL    HW221406   5.760   0.012   4.620 -0.5226 -1.6625  1.3039
 6908SOL     OW21407   4.233   0.553   0.324  0.0573 -0.2827  0.7570
 6908SOL    HW121408   4.277   0.472   0.298 -1.6809 -0.5128 -1.8007
 6908SOL    HW221409   4.140   0.529   0.330 -0.3290  1.2358  1.2721
 6909SOL     OW21410   3.404   2.023   2.109 -0.2365  0.1468  0.3234
 6909SOL    HW121411   3.355   2.074   2.045  0.8414  2.1892  1.0507
 6909SOL    HW221412   3.465   1.970   2.057 -1.3209 -0.3985 -0.4333
 6910SOL     OW21413   3.384   0.961   5.769 -0.0592  0.2305 -0.3100
 6910SOL    HW121414   3.375   0.884   5.713  0.6489  0.6714 -1.0458
 6910SOL    HW221415   3.474   0.956   5.802 -0.5669 -0.2066  1.0785
 6911SOL     OW21416   4.022   2.292   4.288 -0.3934 -0.0812 -0.2765
 6911SOL    HW121417   4.065   2.242   4.219 -1.0041 -1.3209  0.2109
 6911SOL    HW221418   3.970   2.227   4.336  0.6878  0.5480  1.9006
 6912SOL     OW21419   5.248   4.699   5.614 -0.1832 -0.3527 -0.9077
 6912SOL    HW121420   5.317   4.746   5.660 -0.8219 -0.1289 -0.1511
 6912SOL    HW221421   5.263   4.718   5.522 -0.6955  1.7705 -0.6058
 6913SOL     OW21422   6.044   4.189   0.063  0.0300  0.3298 -0.7222
 6913SOL    HW121423   6.136   4.178   0.041 -0.0428  0.4323 -1.0845
 6913SOL    HW221424   6.009   4.100   0.062 -0.0248  0.3507 -1.2743
 6914SOL     OW21425   3.523   4.209   3.739 -0.9711 -0.4217 -0.0260
 6914SOL    HW121426   3.586   4.281   3.745 -1.7559  0.4648 -1.7328
 6914SOL    HW221427   3.574   4.135   3.709 -0.4742 -0.1231  0.0644
 6915SOL     OW21428   0.195   3.282   5.014  0.1713 -0.5426 -0.1125
 6915SOL    HW121429   0.274   3.328   4.985  0.7619  0.0205  2.2047
 6915SOL    HW221430   0.227   3.214   5.073 -0.9938 -1.3378 -0.3549
 6916SOL     OW21431   6.060   1.994   0.493 -0.3055  0.1136 -0.0211
 6916SOL    HW121432   5.998   1.988   0.566 -2.0876  0.7576 -1.4169
 6916SOL    HW221433   6.085   2.086   0.490 -1.1459  0.3233 -0.9187
 6917SOL     OW21434   1.014   3.474   1.171  0.4047  0.1348  0.8733
 6917SOL    HW121435   0.993   3.558   1.211  1.1726  0.9004 -0.2667
 6917SOL    HW221436   0.963   3.473   1.089  0.9913 -0.1520  0.5023
 6918SOL     OW21437   0.131   6.455   4.581  0.2368  0.7655  0.0534
 6918SOL    HW121438   0.198   6.442   4.649 -0.6726  0.6544  0.9573
 6918SOL    HW221439   0.050   6.423   4.621 -0.0286 -1.0015 -1.7447
 6919SOL     OW21440   5.923   3.659   2.213  0.1410 -0.1465  0.1010
 6919SOL    HW121441   5.887   3.653   2.301  2.6971 -2.0365  1.1249
 6919SOL    HW221442   5.886   3.584   2.166  1.1644 -0.9415  0.5449
 6920SOL     OW21443   4.107   3.095   5.267  0.1403  0.1692 -0.4512
 6920SOL    HW121444   4.106   3.001   5.250 -1.6654  0.1404 -0.3896
 6920SOL    HW221445   4.190   3.126   5.230  1.3857 -1.6405  0.7139
 6921SOL     OW21446   4.617   2.163   2.550 -0.2120  0.1368 -0.1855
 6921SOL    HW121447   4.698   2.208   2.527 -0.8099  1.3228 -0.0222
 6921SOL    HW221448   4.552   2.198   2.489 -0.7505 -0.2922  0.1332
 6922SOL     OW21449   4.764   3.686   4.083 -0.4096  0.0527  0.4773
 6922SOL    HW121450   4.693   3.751   4.085 -1.0833 -0.6609  1.9082
 6922SOL    HW221451   4.844   3.738   4.088 -0.7556  0.9100 -1.7544
 6923SOL     OW21452   1.236   5.872   0.142  0.0974  0.1617  0.2939
 6923SOL    HW121453   1.278   5.875   0.228  1.8716 -0.2210 -0.5094
 6923SOL    HW221454   1.254   5.784   0.110 -1.9437 -0.2463  0.1627
 6924SOL     OW21455   5.743   4.005   5.345  0.3193  0.0526 -0.1209
 6924SOL    HW121456   5.707   3.940   5.285 -0.3153  0.8407 -0.6088
 6924SOL    HW221457   5.670   4.064   5.364  0.5415 -0.0815  1.3234
 6925SOL     OW21458   1.965   1.996   4.216 -0.0942 -0.6420  1.0745
 6925SOL    HW121459   2.012   2.079   4.207  2.6474 -2.2294 -0.5021
 6925SOL    HW221460   2.004   1.954   4.293 -2.9790  0.2824  3.2518
 6926SOL     OW21461   3.228   5.576   0.393  0.1509  0.0574 -0.8836
 6926SOL    HW121462   3.245   5.621   0.476  1.2667 -0.3415 -0.8775
 6926SOL    HW221463   3.152   5.621   0.357  0.3285  0.9724 -0.1748
 6927SOL     OW21464   2.136   1.576   4.346 -0.5621  0.2503 -0.0658
 6927SOL    HW121465   2.212   1.586   4.289 -0.8607 -0.0279 -0.5244
 6927SOL    HW221466   2.154   1.498   4.399 -0.1353  0.7034  0.4634
 6928SOL     OW21467   2.201   4.039   2.940 -0.1671  0.0715 -0.2588
 6928SOL    HW121468   2.263   4.078   3.001 -3.0117 -2.2389  4.6585
 6928SOL    HW221469   2.160   4.114   2.896  0.9813  2.0431  1.8469
 6929SOL     OW21470   2.326   1.450   5.959 -0.2485  0.1128 -0.0125
 6929SOL    HW121471   2.242   1.477   5.996  1.1717  2.2453  1.9480
 6929SOL    HW221472   2.312   1.453   5.864 -1.8477  2.5520  0.1889
 6930SOL     OW21473   5.452   2.385   4.640 -0.3455 -0.3884  0.4308
 6930SOL    HW121474   5.374   2.413   4.593  0.1391 -1.2328 -0.9272
 6930SOL    HW221475   5.489   2.466   4.675 -0.8856  0.2346 -0.4030
 6931SOL     OW21476   3.487   4.112   2.215  0.4120 -0.1450 -0.1263
 6931SOL    HW121477   3.521   4.173   2.281  2.2119 -1.8186  0.5971
 6931SOL    HW221478   3.417   4.161   2.171  1.3365  2.2032  0.8174
 6932SOL     OW21479   0.587   5.902   3.875 -1.0157  0.2674 -0.2256
 6932SOL    HW121480   0.538   5.820   3.882 -0.6657  0.1952  2.2693
 6932SOL    HW221481   0.675   5.876   3.851 -1.5695  0.2075 -2.3850
 6933SOL     OW21482   4.393   6.293   6.118  0.4388  0.7374 -0.0195
 6933SOL    HW121483   4.350   6.229   6.175  1.2761  1.1865  1.1311
 6933SOL    HW221484   4.337   6.295   6.040  0.0934 -0.9816  0.1422
 6934SOL     OW21485   6.108   3.929   5.790 -0.5672  0.0686  0.3949
 6934SOL    HW121486   6.064   3.907   5.708 -1.9194 -0.6811  1.2778
 6934SOL    HW221487   6.088   4.021   5.805 -1.7953 -0.2404  0.7370
 6935SOL     OW21488   0.676   0.335   5.056  0.3105 -0.3651 -0.4730
 6935SOL    HW121489   0.622   0.273   5.007 -2.6755  0.5651  1.3245
 6935SOL    HW221490   0.641   0.421   5.031  0.3067  0.2264  1.4200
 6936SOL     OW21491   2.317   2.667   3.875  0.3442 -0.2016 -0.2191
 6936SOL    HW121492   2.382   2.664   3.805  1.0782  0.2292  0.4273
 6936SOL    HW221493   2.295   2.760   3.883 -1.4414 -0.4631 -1.3829
 6937SOL     OW21494   4.966   2.078   0.782 -0.3304  0.2374 -0.0557
 6937SOL    HW121495   4.997   2.050   0.695  0.2953  0.3386  0.1299
 6937SOL    HW221496   5.037   2.132   0.816  0.6679 -1.9642  1.6294
 6938SOL     OW21497   4.609   1.119   6.438 -0.6568  0.4054 -0.8294
 6938SOL    HW121498   4.698   1.087   6.427 -1.1712 -2.1104  1.2608
 6938SOL    HW221499   4.619   1.214   6.450  1.6752  0.2429 -1.0446
 6939SOL     OW21500   2.141   2.121   2.244 -0.3131  0.1894  0.2416
 6939SOL    HW121501   2.155   2.034   2.206  1.3268 -0.8752  3.0002
 6939SOL    HW221502   2.053   2.146   2.214 -1.0529 -2.6267 -0.2350
 6940SOL     OW21503   0.272   6.188   3.517  0.3934 -0.5412 -0.2568
 6940SOL    HW121504   0.353   6.150   3.483  0.6110  0.4852 -0.9298
 6940SOL    HW221505   0.300   6.247   3.587  0.2828  0.1731 -0.8041
 6941SOL     OW21506   2.401   1.827   5.958  0.0948 -0.2973  0.1785
 6941SOL    HW121507   2.311   1.823   5.928  0.4199 -0.6690 -0.7880
 6941SOL    HW221508   2.441   1.897   5.905 -0.1797  1.4785  2.1774
 6942SOL     OW21509   6.136   0.219   0.421 -0.4214 -0.5244 -0.0314
 6942SOL    HW121510   6.133   0.280   0.347 -0.4936 -0.8122 -0.2707
 6942SOL    HW221511   6.141   0.274   0.498  0.7449 -0.2309 -0.3083
 6943SOL     OW21512   4.323   1.662   2.751  0.0454  0.2817  0.0981
 6943SOL    HW121513   4.411   1.642   2.784  0.4512 -1.2218 -1.7295
 6943SOL    HW221514   4.333   1.663   2.656 -1.3689  2.9368 -0.1219
 6944SOL     OW21515   1.976   3.644   0.981 -0.2297  0.2084  0.3276
 6944SOL    HW121516   2.006   3.709   1.045  3.1064 -1.1272  0.3243
 6944SOL    HW221517   2.050   3.584   0.972 -1.9935 -1.7974 -2.0300
 6945SOL     OW21518   1.585   2.475   3.466  0.3499  0.4055  0.1021
 6945SOL    HW121519   1.612   2.385   3.448  0.9871  0.2942  1.4516
 6945SOL    HW221520   1.514   2.466   3.529  1.2717  0.8432  1.2543
 6946SOL     OW21521   2.047   0.119   2.516 -0.2318  0.4037 -0.2533
 6946SOL    HW121522   2.073   0.029   2.538 -0.2522  1.0081  2.5368
 6946SOL    HW221523   1.952   0.116   2.509 -0.2190  0.1839 -0.3371
 6947SOL     OW21524   5.451   0.856   6.288  0.0020  0.5222  0.3878
 6947SOL    HW121525   5.381   0.918   6.268 -1.2921 -0.7469  0.8390
 6947SOL    HW221526   5.466   0.810   6.205 -0.6285 -0.1018  0.6137
 6948SOL     OW21527   0.582   2.485   2.312 -0.3261 -0.2044  0.4746
 6948SOL    HW121528   0.573   2.580   2.300  0.4047 -0.1957 -0.1506
 6948SOL    HW221529   0.528   2.447   2.243 -1.2264 -0.2674  1.1955
 6949SOL     OW21530   2.012   0.931   5.364  0.0068 -0.4013  0.0641
 6949SOL    HW121531   2.042   1.018   5.388  0.6007 -0.0469 -1.7943
 6949SOL    HW221532   2.084   0.895   5.312 -1.0879 -1.1890 -0.9419
 6950SOL     OW21533   3.219   5.648   6.514  0.6494  0.5497  0.2416
 6950SOL    HW121534   3.246   5.726   6.563 -1.5046  2.3449 -1.2307
 6950SOL    HW221535   3.290   5.632   6.452  0.5903  2.1518 -0.2847
 6951SOL     OW21536   0.889   3.592   0.336 -0.5592 -0.0791  0.2986
 6951SOL    HW121537   0.802   3.568   0.366 -0.8129  1.0821  0.5266
 6951SOL    HW221538   0.931   3.633   0.412  0.1142 -0.4443  0.1354
 6952SOL     OW21539   3.558   0.341   1.778 -0.0703 -0.1198  0.1371
 6952SOL    HW121540   3.570   0.345   1.873  0.0600 -0.2667  0.1281
 6952SOL    HW221541   3.555   0.247   1.759  2.2698 -0.1482 -0.2939
 6953SOL     OW21542   6.141   1.878   2.081  0.3601 -0.3491  0.2193
 6953SOL    HW121543   6.124   1.835   2.165 -0.0369  0.7323  0.7030
 6953SOL    HW221544   6.063   1.859   2.029 -0.1478  0.3782  0.6916
 6954SOL     OW21545   3.839   5.979   4.626 -0.2860  0.4086  0.0972
 6954SOL    HW121546   3.765   5.919   4.638  0.5237 -0.8374 -0.9113
 6954SOL    HW221547   3.916   5.928   4.652  0.8017 -0.2052 -3.7308
 6955SOL     OW21548   3.577   3.522   5.066  0.1947  0.9054 -0.6400
 6955SOL    HW121549   3.549   3.480   4.985  0.5374  1.3933 -1.0114
 6955SOL    HW221550   3.558   3.615   5.053  1.4254  1.1627 -0.6531
 6956SOL     OW21551   2.597   3.211   3.244  0.0635  0.1980 -0.1538
 6956SOL    HW121552   2.591   3.186   3.152 -1.3841  0.3683 -0.1334
 6956SOL    HW221553   2.614   3.129   3.290 -0.5361 -0.1103 -0.4625
 6957SOL     OW21554   0.862   3.810   0.050  0.6687  0.1294 -0.6054
 6957SOL    HW121555   0.888   3.886  -0.002  1.2614 -0.3352 -0.9986
 6957SOL    HW221556   0.935   3.795   0.109  0.2410  0.3019 -0.0154
 6958SOL     OW21557   1.150   1.317   5.330  0.1216 -0.2631  0.6605
 6958SOL    HW121558   1.060   1.336   5.303  0.4405  0.1005 -0.2178
 6958SOL    HW221559   1.146   1.232   5.373 -0.4926 -0.7474 -0.3109
 6959SOL     OW21560   4.661   1.623   0.205 -0.0239 -0.7787 -0.2460
 6959SOL    HW121561   4.613   1.682   0.147  1.9186 -1.1710 -2.4001
 6959SOL    HW221562   4.656   1.665   0.291  1.9017  3.0305 -1.7545
 6960SOL     OW21563   1.572   3.838   2.006 -0.4446 -0.1508  0.0145
 6960SOL    HW121564   1.604   3.843   2.096 -1.2458 -0.4931  0.3255
 6960SOL    HW221565   1.536   3.925   1.989  0.1724  0.0771 -0.1629
 6961SOL     OW21566   5.047   5.147   3.967  0.4126 -0.4211 -0.6642
 6961SOL    HW121567   5.120   5.162   4.027 -0.6567  1.1775  0.3043
 6961SOL    HW221568   4.971   5.139   4.025 -0.4051 -0.5239 -1.7313
 6962SOL     OW21569   1.245   0.022   1.814  0.4844 -0.5209  0.5664
 6962SOL    HW121570   1.154   0.040   1.790  0.2333 -0.6890  1.3642
 6962SOL    HW221571   1.249   0.043   1.908  0.9357 -1.7756  0.8390
 6963SOL     OW21572   3.251   4.984   0.963  0.5337  0.0928 -0.3242
 6963SOL    HW121573   3.187   4.993   0.892 -0.3599  0.6105  0.5143
 6963SOL    HW221574   3.213   4.919   1.022  1.1752 -0.1906 -0.2177
 6964SOL     OW21575   3.300   2.648   2.785 -0.6897  0.5646 -0.2696
 6964SOL    HW121576   3.376   2.610   2.741 -0.7412  0.6165 -0.4052
 6964SOL    HW221577   3.241   2.672   2.713 -0.8689  0.4507 -0.1616
 6965SOL     OW21578   4.318   1.902   1.720  0.0517  0.3773 -0.0788
 6965SOL    HW121579   4.400   1.854   1.709  0.4117  1.0377 -0.3134
 6965SOL    HW221580   4.255   1.854   1.666  0.4460  0.2547 -0.4384
 6966SOL     OW21581   4.949   5.214   2.485 -0.0944  0.2302 -0.9590
 6966SOL    HW121582   4.875   5.272   2.471 -0.8623 -0.6483 -0.5985
 6966SOL    HW221583   4.934   5.175   2.571  1.1766  0.5967 -0.5338
 6967SOL     OW21584   1.810   4.625   0.915  0.8751  0.2169 -0.0333
 6967SOL    HW121585   1.780   4.702   0.865  0.2679 -0.1143 -0.1885
 6967SOL    HW221586   1.737   4.606   0.974  1.6274  0.6597  1.0638
 6968SOL     OW21587   5.177   4.959   3.772  0.6706  0.2419  0.3195
 6968SOL    HW121588   5.152   5.005   3.852 -0.9228 -0.3290  0.1632
 6968SOL    HW221589   5.095   4.946   3.725  1.4245 -0.6011 -0.7966
 6969SOL     OW21590   0.184   5.786   4.163 -0.7769 -0.2488 -1.2131
 6969SOL    HW121591   0.138   5.772   4.246 -1.1289 -0.0445 -1.3703
 6969SOL    HW221592   0.270   5.746   4.176 -0.1834  1.2677 -0.1358
 6970SOL     OW21593   0.084   3.272   5.848 -0.4282 -0.0339  0.1292
 6970SOL    HW121594   0.170   3.306   5.869 -0.0652 -0.1958 -1.0138
 6970SOL    HW221595   0.066   3.304   5.759 -2.1510  1.1641  0.8465
 6971SOL     OW21596   6.086   5.758   1.111 -0.2904 -0.0320 -0.2259
 6971SOL    HW121597   6.155   5.788   1.170  0.5129  0.0114 -1.1555
 6971SOL    HW221598   6.124   5.682   1.067 -1.6261 -1.3544  0.7798
 6972SOL     OW21599   5.723   6.202   3.090  0.6882  0.5710  0.2998
 6972SOL    HW121600   5.730   6.134   3.023 -1.2821  0.5757  0.0273
 6972SOL    HW221601   5.721   6.284   3.041  1.1440  0.7207  0.5153
 6973SOL     OW21602   3.393   0.578   5.787 -0.3258 -0.2706  0.2246
 6973SOL    HW121603   3.458   0.641   5.754 -1.0886  0.4314  0.0331
 6973SOL    HW221604   3.431   0.492   5.766 -1.0015  0.0892 -3.1486
 6974SOL     OW21605   1.518   5.897   1.004  0.3724 -0.2215  0.1306
 6974SOL    HW121606   1.574   5.850   0.942  0.5458 -2.3416  1.8242
 6974SOL    HW221607   1.571   5.972   1.031  1.6071 -1.0918  0.1896
 6975SOL     OW21608   2.222   3.537   1.836 -0.3142 -0.1653 -0.1014
 6975SOL    HW121609   2.136   3.579   1.837 -1.2536 -1.9996  0.5441
 6975SOL    HW221610   2.233   3.508   1.745 -1.7740 -2.4963  0.3737
 6976SOL     OW21611   0.427   1.706   2.543  0.5345  0.2271 -0.1060
 6976SOL    HW121612   0.457   1.699   2.452  0.0104 -0.2765 -0.2525
 6976SOL    HW221613   0.353   1.645   2.547 -0.1456  1.0735  0.3651
 6977SOL     OW21614   4.556   2.258   5.121 -0.0873 -0.6562  0.2250
 6977SOL    HW121615   4.550   2.163   5.113 -1.7594 -0.6123  0.5196
 6977SOL    HW221616   4.482   2.282   5.176  0.9961  0.7229  1.1649
 6978SOL     OW21617   5.299   1.688   4.215  0.5714 -0.0421 -0.0467
 6978SOL    HW121618   5.249   1.761   4.178  1.4509  0.0146 -1.1703
 6978SOL    HW221619   5.360   1.663   4.145  0.3985 -1.7533  0.3757
 6979SOL     OW21620   0.687   5.920   6.051 -0.2143  0.2385  0.5748
 6979SOL    HW121621   0.677   5.994   5.992 -1.2412  0.5249  1.0784
 6979SOL    HW221622   0.701   5.960   6.137 -0.3927 -0.1580  0.7901
 6980SOL     OW21623   1.274   0.293   1.968  0.6507 -0.1177  0.1551
 6980SOL    HW121624   1.246   0.343   1.891  1.4470  1.4392  0.8135
 6980SOL    HW221625   1.193   0.263   2.008 -0.0213  2.0199  0.5663
 6981SOL     OW21626   4.900   3.674   6.427  0.2854  0.2945  0.5228
 6981SOL    HW121627   4.974   3.687   6.368 -1.4955  2.0888 -1.4826
 6981SOL    HW221628   4.910   3.743   6.493  0.5995  0.2725  0.5003
 6982SOL     OW21629   3.173   0.933   3.285  0.5379 -0.3613 -0.4300
 6982SOL    HW121630   3.165   0.944   3.380  1.4552 -0.5455 -0.3273
 6982SOL    HW221631   3.094   0.883   3.261  1.7232 -2.9809  0.6972
 6983SOL     OW21632   0.702   4.565   1.066 -0.1014 -0.0734  0.0752
 6983SOL    HW121633   0.682   4.545   1.158 -0.3803 -0.1191  0.0044
 6983SOL    HW221634   0.639   4.513   1.016  1.7237 -2.1384 -0.2204
 6984SOL     OW21635   2.383   3.442   6.128 -0.0810 -0.2788  0.3435
 6984SOL    HW121636   2.461   3.445   6.073  0.8911 -0.0531  1.6743
 6984SOL    HW221637   2.316   3.489   6.078  1.0131  0.6830 -0.2677
 6985SOL     OW21638   0.107   2.344   3.810  0.4821  0.3021  0.2861
 6985SOL    HW121639   0.081   2.255   3.788  0.9903 -0.0889  1.2199
 6985SOL    HW221640   0.200   2.348   3.788  1.0501 -0.1476  2.3783
 6986SOL     OW21641   5.830   4.345   6.201  0.4046  0.2350 -0.1178
 6986SOL    HW121642   5.856   4.432   6.229 -0.8857  0.7293 -0.3962
 6986SOL    HW221643   5.780   4.359   6.120 -0.7532 -0.6470  0.4147
 6987SOL     OW21644   5.878   4.070   2.885  0.0886  0.1464 -0.0904
 6987SOL    HW121645   5.927   4.152   2.888  2.0768 -1.0021  0.8727
 6987SOL    HW221646   5.828   4.069   2.967  0.5029  0.1587  0.1660
 6988SOL     OW21647   0.564   3.676   2.472  0.2544 -0.7809 -0.1000
 6988SOL    HW121648   0.490   3.708   2.421  1.0119  0.1800 -0.6372
 6988SOL    HW221649   0.615   3.754   2.491  1.3844 -1.4855 -0.1546
 6989SOL     OW21650   2.878   3.320   3.686  0.2523  0.4259  0.1667
 6989SOL    HW121651   2.905   3.405   3.721  1.1528 -0.1012  0.8202
 6989SOL    HW221652   2.852   3.337   3.596 -1.7540  1.7775  0.9377
 6990SOL     OW21653   4.723   5.463   0.431 -0.3053 -0.5101 -0.1456
 6990SOL    HW121654   4.781   5.536   0.451 -1.6844  0.4878  0.4039
 6990SOL    HW221655   4.769   5.386   0.463 -0.8805  0.6093  4.0618
 6991SOL     OW21656   4.132   1.557   2.970  0.0716 -0.5014  0.1606
 6991SOL    HW121657   4.132   1.592   2.881 -0.1158  2.2092  1.1277
 6991SOL    HW221658   4.051   1.506   2.976 -0.0611 -0.4840 -1.1125
 6992SOL     OW21659   2.808   2.197   1.779  0.7610 -0.5628  0.1847
 6992SOL    HW121660   2.808   2.195   1.684  0.8624  1.1865  0.1167
 6992SOL    HW221661   2.738   2.137   1.805  1.1995 -1.5920 -0.9565
 6993SOL     OW21662   4.645   1.369   1.294 -0.2730  0.5943 -0.6291
 6993SOL    HW121663   4.617   1.277   1.298 -1.4199  0.8839 -1.3433
 6993SOL    HW221664   4.563   1.419   1.292  0.3341  1.6278 -0.4239
 6994SOL     OW21665   0.322   3.603   3.292  0.5677 -0.9638  0.1903
 6994SOL    HW121666   0.294   3.564   3.209  1.2219 -2.2756  0.5658
 6994SOL    HW221667   0.243   3.604   3.346  0.1930 -0.3167 -0.3455
 6995SOL     OW21668   3.417   2.205   3.178 -0.1916 -0.0839 -0.1384
 6995SOL    HW121669   3.489   2.190   3.239 -0.5895  2.9096  1.2615
 6995SOL    HW221670   3.453   2.268   3.115 -0.4081 -1.6456 -1.9180
 6996SOL     OW21671   3.983   5.312   5.697 -0.1506  0.3139  0.0981
 6996SOL    HW121672   4.076   5.294   5.690  0.0570  1.8043 -2.0290
 6996SOL    HW221673   3.947   5.284   5.612 -1.8990 -1.3767  1.2972
 6997SOL     OW21674   1.107   4.270   6.309 -0.0325  0.0025  0.1565
 6997SOL    HW121675   1.059   4.324   6.245 -2.4296 -0.0097  1.8219
 6997SOL    HW221676   1.073   4.182   6.295  1.8394 -0.6387 -0.6656
 6998SOL     OW21677   5.005   1.048   1.292 -0.2283 -0.1103  0.0741
 6998SOL    HW121678   5.063   1.097   1.234 -0.3694  1.0907  0.9282
 6998SOL    HW221679   5.052   1.044   1.375 -0.0073 -1.8584 -0.0885
 6999SOL     OW21680   1.887   1.088   2.301 -0.3274 -0.5161 -0.8229
 6999SOL    HW121681   1.906   1.182   2.297  4.2681 -1.1234  0.1973
 6999SOL    HW221682   1.873   1.063   2.210  0.5612  0.8864 -1.4001
 7000SOL     OW21683   4.425   2.089   0.604 -0.2057  0.3479  0.2291
 7000SOL    HW121684   4.487   2.160   0.588  1.0590 -0.8998 -0.6599
 7000SOL    HW221685   4.369   2.122   0.674  1.0413  1.7912  0.6139
 7001SOL     OW21686   1.762   1.817   6.129 -0.1264  0.2382  0.0723
 7001SOL    HW121687   1.678   1.799   6.172 -0.2640  1.5969  0.4232
 7001SOL    HW221688   1.809   1.733   6.133 -0.7207 -0.0647  1.5661
 7002SOL     OW21689   4.822   5.753   6.082  0.0028 -0.1530  0.1365
 7002SOL    HW121690   4.812   5.794   5.996  1.7888  0.8919  0.3828
 7002SOL    HW221691   4.734   5.723   6.105 -1.0533  1.9929 -0.8481
 7003SOL     OW21692   1.959   1.018   0.228  0.0746  0.2677  0.4063
 7003SOL    HW121693   2.016   1.091   0.204 -1.3794  1.4880  0.5009
 7003SOL    HW221694   1.899   1.009   0.154 -0.0732 -0.5203  0.6127
 7004SOL     OW21695   1.277   1.726   3.937 -0.2340  0.0300  0.0915
 7004SOL    HW121696   1.297   1.819   3.949 -0.3637  0.2167 -1.0747
 7004SOL    HW221697   1.211   1.707   4.004 -0.5929  0.9070 -0.0030
 7005SOL     OW21698   4.054   1.383   3.249  0.5228 -0.0015  0.0200
 7005SOL    HW121699   4.012   1.399   3.165  0.3994 -0.4226 -0.0006
 7005SOL    HW221700   3.982   1.356   3.307  0.1351  2.6978  0.9703
 7006SOL     OW21701   1.812   2.051   6.348 -0.4384 -0.0637  0.2259
 7006SOL    HW121702   1.862   1.969   6.348  0.0982  0.2597  0.8027
 7006SOL    HW221703   1.736   2.032   6.292  0.3014 -0.5698 -0.6307
 7007SOL     OW21704   4.280   5.596   1.107  0.5875 -0.9217  0.5643
 7007SOL    HW121705   4.320   5.678   1.076 -0.5808 -1.0809 -1.5445
 7007SOL    HW221706   4.350   5.532   1.102  0.8014 -0.6215 -0.4467
 7008SOL     OW21707   0.429   3.188   4.727 -0.4331  0.1007 -0.9979
 7008SOL    HW121708   0.433   3.284   4.723  0.5245  0.1899  1.0728
 7008SOL    HW221709   0.430   3.168   4.820 -1.0768 -1.9381 -1.3909
 7009SOL     OW21710   5.105   4.381   3.135 -0.4114 -0.3900 -0.3175
 7009SOL    HW121711   5.056   4.303   3.108  0.7158 -0.9028 -0.9134
 7009SOL    HW221712   5.149   4.411   3.056 -1.2303  1.1711 -0.2179
 7010SOL     OW21713   6.456   6.395   4.362 -0.8458 -0.0305 -0.2975
 7010SOL    HW121714   6.486   6.304   4.358  1.4874  0.6438  0.3632
 7010SOL    HW221715   6.405   6.399   4.443  3.1141  0.2117  2.4717
 7011SOL     OW21716   0.930   4.904   5.164 -0.3826 -0.0247 -0.0736
 7011SOL    HW121717   0.975   4.842   5.221 -0.9229 -0.9798 -0.6700
 7011SOL    HW221718   0.929   4.986   5.215  3.3183  0.5298 -0.6064
 7012SOL     OW21719   4.189   0.225   1.288  0.0876  0.7307  0.0076
 7012SOL    HW121720   4.260   0.251   1.347 -0.5170  0.0815  1.0464
 7012SOL    HW221721   4.110   0.232   1.341 -0.3170 -1.2286 -0.2660
 7013SOL     OW21722   5.442   1.362   0.206  0.1294 -0.3914 -0.0594
 7013SOL    HW121723   5.410   1.402   0.125  0.1848  1.3074  0.7239
 7013SOL    HW221724   5.370   1.307   0.236  0.0227 -0.8704 -1.1147
 7014SOL     OW21725   3.546   2.053   5.361  0.4463  0.2193 -0.0646
 7014SOL    HW121726   3.558   2.017   5.273  0.4129  0.0504 -0.0008
 7014SOL    HW221727   3.594   2.135   5.360  2.4856 -0.9003  0.5085
 7015SOL     OW21728   6.328   0.340   4.899  0.2631  0.3274 -0.0486
 7015SOL    HW121729   6.251   0.297   4.937  1.0301 -0.7307  0.3507
 7015SOL    HW221730   6.387   0.268   4.876  1.7285  1.1634  0.9397
 7016SOL     OW21731   3.311   0.200   3.884  0.1651 -0.5117 -0.3297
 7016SOL    HW121732   3.362   0.261   3.831  0.2818 -1.0848 -0.8908
 7016SOL    HW221733   3.281   0.134   3.822 -0.8109 -0.4781  0.0848
 7017SOL     OW21734   1.268   5.353   4.284 -0.6583  0.4861 -0.0301
 7017SOL    HW121735   1.254   5.410   4.359  1.2307  2.4502 -1.0508
 7017SOL    HW221736   1.195   5.292   4.286  0.0650 -0.5703  4.2431
 7018SOL     OW21737   3.371   3.800   0.943  0.3779 -0.2332 -0.3945
 7018SOL    HW121738   3.427   3.872   0.972  0.3085 -0.2293 -0.2731
 7018SOL    HW221739   3.372   3.807   0.847  0.6533 -0.2855 -0.3953
 7019SOL     OW21740   6.139   5.754   3.210 -0.2474  0.5356  0.3002
 7019SOL    HW121741   6.186   5.684   3.165  0.0073  0.2488  1.0024
 7019SOL    HW221742   6.175   5.754   3.299  0.3983  2.1330  0.0780
 7020SOL     OW21743   4.995   5.201   0.671 -0.5484  0.7900 -0.0154
 7020SOL    HW121744   4.972   5.166   0.757 -1.6659  1.3142 -0.0789
 7020SOL    HW221745   5.091   5.203   0.670 -0.4315 -1.9814  0.0768
 7021SOL     OW21746   1.646   4.305   5.452  0.1778 -0.0854 -0.5167
 7021SOL    HW121747   1.572   4.347   5.409  0.4290 -1.0727 -2.0041
 7021SOL    HW221748   1.617   4.288   5.541 -0.6294  1.3889 -0.4735
 7022SOL     OW21749   3.850   2.154   2.291  0.2227 -0.6744  0.1843
 7022SOL    HW121750   3.802   2.160   2.208  0.0516  1.2561  0.3769
 7022SOL    HW221751   3.803   2.214   2.349  2.9766  1.5400  0.3164
 7023SOL     OW21752   4.178   6.138   4.659  0.1811  0.0731 -0.4430
 7023SOL    HW121753   4.169   6.073   4.590  0.8113  1.1979 -1.6285
 7023SOL    HW221754   4.176   6.222   4.614 -0.2103  0.8900  1.0013
 7024SOL     OW21755   6.429   6.178   0.685 -0.2678 -0.1317 -0.0293
 7024SOL    HW121756   6.512   6.145   0.719 -1.1870 -2.0339  0.5100
 7024SOL    HW221757   6.366   6.163   0.755 -1.6264 -1.4919 -1.4576
 7025SOL     OW21758   1.915   4.511   3.382 -0.4924 -0.0135 -0.1720
 7025SOL    HW121759   1.938   4.432   3.430  1.5943  1.6320  1.7702
 7025SOL    HW221760   1.968   4.508   3.302  1.6156  0.5694  1.1292
 7026SOL     OW21761   2.622   3.421   2.871 -0.0721 -0.6227  0.1495
 7026SOL    HW121762   2.554   3.442   2.807  0.4313 -0.5994 -0.3906
 7026SOL    HW221763   2.586   3.448   2.955  0.2655  1.7735 -0.4074
 7027SOL     OW21764   1.362   3.455   3.683 -0.0663  0.7626  0.6662
 7027SOL    HW121765   1.296   3.474   3.617 -0.8026 -0.8004  0.9022
 7027SOL    HW221766   1.322   3.388   3.739  1.7649 -0.3980  0.6882
 7028SOL     OW21767   4.454   1.562   1.060  0.0285 -0.0895  0.0508
 7028SOL    HW121768   4.455   1.634   1.123  1.9513  0.5857 -0.6885
 7028SOL    HW221769   4.545   1.532   1.055 -0.5462 -1.9130 -0.4402
 7029SOL     OW21770   4.352   3.434   2.175 -0.1570  0.0546 -0.1968
 7029SOL    HW121771   4.421   3.411   2.113 -0.5097  1.4646 -1.1688
 7029SOL    HW221772   4.296   3.495   2.127 -1.1810  0.1807  1.0972
 7030SOL     OW21773   4.247   6.077   0.822  0.3362 -0.2739 -0.3555
 7030SOL    HW121774   4.216   6.097   0.910 -1.7822  2.1304 -1.5301
 7030SOL    HW221775   4.194   6.003   0.794  0.0988 -0.2104 -0.0760
 7031SOL     OW21776   4.023   3.838   1.320 -0.3644 -0.5313 -0.3980
 7031SOL    HW121777   4.012   3.761   1.265 -1.4815 -0.8337  0.2073
 7031SOL    HW221778   4.070   3.806   1.397  0.3566 -0.3113 -0.7384
 7032SOL     OW21779   5.454   0.223   2.159 -0.0000 -0.1002  0.6308
 7032SOL    HW121780   5.523   0.286   2.180  0.3748 -0.2552 -0.1203
 7032SOL    HW221781   5.494   0.137   2.177  0.3367 -0.2390 -0.6910
 7033SOL     OW21782   0.277   0.126   1.021  0.9000 -0.0246 -0.5022
 7033SOL    HW121783   0.304   0.217   1.029  0.6452  0.0382 -0.3549
 7033SOL    HW221784   0.226   0.108   1.100 -0.3083  0.1455 -1.2063
 7034SOL     OW21785   4.793   4.027   2.524 -0.1895  0.4097 -0.0187
 7034SOL    HW121786   4.734   4.029   2.449 -2.8011  0.0939  1.8988
 7034SOL    HW221787   4.806   3.934   2.542 -1.4244  0.4531  1.2290
 7035SOL     OW21788   4.383   0.140   1.082 -0.2650  0.3564  0.4529
 7035SOL    HW121789   4.448   0.071   1.096  1.7838  1.8738 -0.9879
 7035SOL    HW221790   4.326   0.135   1.158  0.7843 -1.8509  1.1858
 7036SOL     OW21791   5.720   1.927   2.858 -0.0195  0.3149 -0.7825
 7036SOL    HW121792   5.651   1.989   2.884 -0.4143  0.0461 -1.1756
 7036SOL    HW221793   5.766   1.972   2.786  0.7898  0.8696  0.0580
 7037SOL     OW21794   3.623   2.826   0.108 -0.8071 -0.5211 -0.4822
 7037SOL    HW121795   3.653   2.851   0.020 -2.8799  2.1121 -0.5833
 7037SOL    HW221796   3.533   2.796   0.094 -1.0238 -0.4497  0.6735
 7038SOL     OW21797   0.905   5.445   5.829  0.2021  0.0246  0.2570
 7038SOL    HW121798   0.997   5.424   5.848  0.2576 -0.2683 -0.3164
 7038SOL    HW221799   0.895   5.535   5.858  0.1748 -0.5178  2.0403
 7039SOL     OW21800   0.176   0.895   1.034  0.0431 -0.3203  0.3268
 7039SOL    HW121801   0.155   0.933   1.120  0.1582  0.9828 -0.1936
 7039SOL    HW221802   0.152   0.803   1.042 -2.1789  0.2685  1.0097
 7040SOL     OW21803   3.869   4.904   3.399 -0.3792 -0.2111 -0.0576
 7040SOL    HW121804   3.922   4.934   3.325 -1.3111 -0.6157 -0.9061
 7040SOL    HW221805   3.879   4.809   3.398 -0.4764 -0.2251  0.2814
 7041SOL     OW21806   4.067   0.928   1.909  0.1433 -0.0257 -0.8966
 7041SOL    HW121807   4.076   0.878   1.828  0.4647 -1.3739 -0.0641
 7041SOL    HW221808   3.979   0.966   1.904 -0.6106 -1.7063 -1.0142
 7042SOL     OW21809   4.250   4.024   4.728  0.3094  0.7681 -0.6186
 7042SOL    HW121810   4.295   3.955   4.679 -2.5050 -1.8400  0.1885
 7042SOL    HW221811   4.210   4.079   4.660 -0.5628 -0.6844 -1.3298
 7043SOL     OW21812   5.230   6.362   2.359 -0.1536 -0.6770  0.4631
 7043SOL    HW121813   5.180   6.443   2.358 -0.6117 -0.9470 -1.0798
 7043SOL    HW221814   5.164   6.293   2.350  0.3388 -1.1441  0.3880
 7044SOL     OW21815   0.628   4.258   4.761 -0.2065 -0.1191  0.2276
 7044SOL    HW121816   0.633   4.308   4.843 -1.0170 -0.0709  0.2591
 7044SOL    HW221817   0.642   4.322   4.692 -1.1236  0.1512  0.2730
 7045SOL     OW21818   4.418   5.694   6.405  0.0897 -0.1503  0.2456
 7045SOL    HW121819   4.367   5.618   6.432  0.3124 -0.2809  0.2992
 7045SOL    HW221820   4.400   5.704   6.312  0.9882 -0.9839 -0.0284
 7046SOL     OW21821   4.127   5.602   0.458 -0.0813  0.3066  0.1033
 7046SOL    HW121822   4.156   5.524   0.412  1.7219 -0.3448  2.1710
 7046SOL    HW221823   4.184   5.672   0.427  0.3131  0.1325  0.4264
 7047SOL     OW21824   2.781   0.047   3.363 -0.6883  0.5579 -0.7792
 7047SOL    HW121825   2.716   0.001   3.415 -0.6828  0.3774 -0.9297
 7047SOL    HW221826   2.802   0.126   3.413 -0.0339 -0.0527 -0.0691
 7048SOL     OW21827   5.545   1.448   3.625  0.0694 -0.2635  0.5797
 7048SOL    HW121828   5.540   1.379   3.690  1.3280 -1.1161 -0.1856
 7048SOL    HW221829   5.487   1.517   3.658  0.3884 -0.8211  2.3847
 7049SOL     OW21830   6.243   4.165   0.807  0.2742  0.0725 -0.2296
 7049SOL    HW121831   6.256   4.122   0.723 -0.5588  0.7293 -0.7090
 7049SOL    HW221832   6.162   4.126   0.842  1.0530 -0.7909  0.6564
 7050SOL     OW21833   2.439   5.004   1.612  0.0337  0.1351 -0.2518
 7050SOL    HW121834   2.529   4.983   1.637  0.0193  0.7411  0.3355
 7050SOL    HW221835   2.395   5.025   1.694 -0.1699  1.5807 -0.6930
 7051SOL     OW21836   4.481   2.937   3.119  0.5022  0.1022 -0.0018
 7051SOL    HW121837   4.475   2.947   3.214  0.9820 -0.2018  0.0664
 7051SOL    HW221838   4.476   2.842   3.105  0.7705  0.1247 -0.2545
 7052SOL     OW21839   5.326   0.203   2.405 -0.8641  0.0637 -1.4178
 7052SOL    HW121840   5.235   0.205   2.434 -0.9744 -1.8096 -1.5232
 7052SOL    HW221841   5.321   0.181   2.312 -0.3074 -0.1595 -1.3967
 7053SOL     OW21842   3.178   6.151   2.585 -0.1319  0.0320  0.1226
 7053SOL    HW121843   3.195   6.210   2.512  1.3753  0.0038  0.4157
 7053SOL    HW221844   3.264   6.112   2.605 -0.6787 -0.6089  1.3387
 7054SOL     OW21845   3.650   2.678   2.067  0.7560 -0.6952 -0.5147
 7054SOL    HW121846   3.643   2.667   2.161  1.4258 -2.5391 -0.6418
 7054SOL    HW221847   3.659   2.773   2.054 -0.2486 -0.3468  1.1802
 7055SOL     OW21848   3.229   4.854   2.483 -0.2202  0.1238 -1.0034
 7055SOL    HW121849   3.278   4.780   2.519 -1.7085 -0.8337 -0.8712
 7055SOL    HW221850   3.295   4.922   2.469  0.9311 -0.6507  0.3957
 7056SOL     OW21851   4.741   3.570   5.553  0.5173 -0.3022 -0.0990
 7056SOL    HW121852   4.787   3.591   5.472 -0.4723  2.6168 -0.0304
 7056SOL    HW221853   4.790   3.617   5.621 -0.2275 -0.4568  0.5551
 7057SOL     OW21854   3.411   3.043   3.799 -0.4072  0.2237  0.4460
 7057SOL    HW121855   3.342   3.000   3.749  0.1400 -0.1079 -0.0403
 7057SOL    HW221856   3.401   3.009   3.888 -0.5232 -0.2524  0.2565
 7058SOL     OW21857   5.390   1.126   2.338  0.0779 -0.3514  0.0621
 7058SOL    HW121858   5.401   1.038   2.374  1.2317  0.0765  0.7887
 7058SOL    HW221859   5.351   1.111   2.252 -1.0997 -1.4871  0.7561
 7059SOL     OW21860   4.031   5.874   0.774 -0.0847  0.2302 -0.2402
 7059SOL    HW121861   3.980   5.951   0.800 -0.5218  0.0702 -0.6119
 7059SOL    HW221862   4.019   5.869   0.680  0.6290  0.1895 -0.3296
 7060SOL     OW21863   3.976   4.876   0.399  0.1236  0.4526  0.4077
 7060SOL    HW121864   3.918   4.951   0.389 -0.2033  0.0328 -0.9828
 7060SOL    HW221865   4.061   4.915   0.423 -0.0878  1.2535 -0.1051
 7061SOL     OW21866   2.122   2.956   4.726 -0.1488  0.3454 -0.4238
 7061SOL    HW121867   2.038   2.963   4.679 -0.9200  2.8737  1.1130
 7061SOL    HW221868   2.112   2.878   4.781 -1.9845  1.1882  0.5237
 7062SOL     OW21869   0.864   2.657   6.242 -0.5660 -0.6924 -0.0161
 7062SOL    HW121870   0.934   2.644   6.177  0.5462 -1.9253  1.3636
 7062SOL    HW221871   0.898   2.726   6.299 -1.5722  0.4389 -0.7381
 7063SOL     OW21872   3.039   4.801   4.962  0.3111  0.3458  0.0797
 7063SOL    HW121873   3.094   4.816   4.886 -0.5913  0.3468 -0.5833
 7063SOL    HW221874   3.046   4.707   4.978  0.8377  0.4129  0.2656
 7064SOL     OW21875   6.099   0.632   5.668  0.3470  0.3246 -0.9358
 7064SOL    HW121876   6.146   0.644   5.585  0.3150 -0.2229 -1.0403
 7064SOL    HW221877   6.102   0.718   5.710 -0.7324  0.9492 -2.0721
 7065SOL     OW21878   4.482   0.403   4.444 -0.1482 -0.1061  0.3850
 7065SOL    HW121879   4.542   0.330   4.429  0.3684  0.2786  0.5564
 7065SOL    HW221880   4.484   0.416   4.539 -0.2806  0.0932  0.3592
 7066SOL     OW21881   6.472   5.412   3.725  0.1989  0.1583  0.1140
 7066SOL    HW121882   6.421   5.335   3.750 -0.5614  0.2593 -1.0360
 7066SOL    HW221883   6.559   5.397   3.761 -0.0372 -1.0699  0.1925
 7067SOL     OW21884   0.959   1.256   6.095  0.3222 -0.2647  0.3129
 7067SOL    HW121885   0.994   1.225   6.178  1.3681  0.4554  0.1566
 7067SOL    HW221886   1.005   1.205   6.029  0.7039  0.3203  0.1220
 7068SOL     OW21887   0.478   2.949   0.725 -0.4036  0.4514  0.3115
 7068SOL    HW121888   0.491   2.869   0.776  1.0686  0.5689  0.1617
 7068SOL    HW221889   0.401   2.990   0.763 -1.2592 -1.0887  0.3225
 7069SOL     OW21890   0.442   6.209   6.246  0.1404 -0.3112  0.3524
 7069SOL    HW121891   0.432   6.145   6.317 -2.1442  1.4426  1.7765
 7069SOL    HW221892   0.401   6.168   6.170  0.8776 -1.4542  0.5482
 7070SOL     OW21893   2.266   1.587   1.412  0.2661 -0.2199  0.2137
 7070SOL    HW121894   2.361   1.575   1.417  0.4228  1.1294  0.8168
 7070SOL    HW221895   2.254   1.681   1.397 -0.9973 -0.2536  0.8777
 7071SOL     OW21896   0.134   3.145   0.546 -0.6033 -0.0779  0.1423
 7071SOL    HW121897   0.154   3.052   0.538  0.4464 -0.0195  1.7880
 7071SOL    HW221898   0.150   3.166   0.638 -2.5848  1.3427  0.2343
 7072SOL     OW21899   5.237   5.542   4.107 -0.5013  0.4088 -0.4947
 7072SOL    HW121900   5.201   5.623   4.144 -0.2222 -0.1267  1.0311
 7072SOL    HW221901   5.329   5.541   4.134 -0.8827 -1.1780  1.0290
 7073SOL     OW21902   1.822   0.051   5.266 -0.0330  0.1223  0.2103
 7073SOL    HW121903   1.880   0.119   5.234 -0.6752  0.5932  0.0310
 7073SOL    HW221904   1.869  -0.031   5.250 -0.9759  0.1506 -3.5601
 7074SOL     OW21905   3.749   6.477   1.753 -0.5503  0.2843 -0.2293
 7074SOL    HW121906   3.710   6.531   1.684 -0.0313  0.1023 -0.6732
 7074SOL    HW221907   3.769   6.394   1.710 -1.6965 -0.4227  0.5433
 7075SOL     OW21908   2.106   5.033   4.080 -0.5165  0.5717  0.0326
 7075SOL    HW121909   2.051   5.072   4.012 -0.5183  1.3476  0.4749
 7075SOL    HW221910   2.194   5.062   4.059 -0.4196  0.2373 -0.0333
 7076SOL     OW21911   1.653   4.679   3.125 -0.0352 -0.1399 -0.2025
 7076SOL    HW121912   1.706   4.618   3.073  0.9951  0.2212  0.4031
 7076SOL    HW221913   1.568   4.635   3.133  0.5084 -1.2418 -0.2646
 7077SOL     OW21914   3.015   0.053   0.462  0.0887 -0.3271  0.0478
 7077SOL    HW121915   2.980  -0.016   0.518 -0.4810 -0.6754 -0.7037
 7077SOL    HW221916   3.107   0.031   0.451 -0.1168 -1.0608 -0.2949
 7078SOL     OW21917   3.703   1.755   0.527 -0.3478 -0.6819  0.1364
 7078SOL    HW121918   3.770   1.796   0.472 -1.8404  2.0271  0.1636
 7078SOL    HW221919   3.688   1.670   0.486  1.3463 -0.3564 -1.3117
 7079SOL     OW21920   2.190   1.033   0.864 -0.1727 -0.0652  0.6058
 7079SOL    HW121921   2.135   1.111   0.868 -3.3909 -2.2213  2.0704
 7079SOL    HW221922   2.221   1.019   0.953 -0.1218 -0.8025  0.4841
 7080SOL     OW21923   4.563   5.762   5.223 -0.2860  0.3278  0.1555
 7080SOL    HW121924   4.644   5.803   5.254 -0.7734  1.9525 -0.5832
 7080SOL    HW221925   4.506   5.761   5.301  0.3833 -0.7749  0.6635
 7081SOL     OW21926   1.292   3.508   1.335 -0.5392  0.0951 -0.4233
 7081SOL    HW121927   1.218   3.456   1.368 -1.4699  0.8945 -1.2031
 7081SOL    HW221928   1.299   3.581   1.396  0.7534 -0.8651  0.6571
 7082SOL     OW21929   1.876   4.491   5.937  1.2374  0.2254  0.1245
 7082SOL    HW121930   1.924   4.412   5.913  1.5774 -0.4491  2.7040
 7082SOL    HW221931   1.930   4.563   5.902  2.2762 -0.6177 -0.0557
 7083SOL     OW21932   0.751   5.934   3.499  0.7459  0.0870 -0.3553
 7083SOL    HW121933   0.760   5.953   3.406 -1.4527  0.1588 -0.6054
 7083SOL    HW221934   0.810   5.861   3.514  0.3536 -0.6385 -2.0735
 7084SOL     OW21935   4.093   6.040   4.007  0.3486 -0.2993 -0.2324
 7084SOL    HW121936   4.110   6.132   3.986 -1.1400 -0.0864 -0.6469
 7084SOL    HW221937   4.117   5.993   3.928  0.9213 -0.2571 -0.0906
 7085SOL     OW21938   2.413   1.130   1.382  0.3657  0.1899 -0.2076
 7085SOL    HW121939   2.370   1.210   1.413 -0.0937 -0.1113 -0.0493
 7085SOL    HW221940   2.353   1.095   1.316 -0.5336 -1.1702  1.2546
 7086SOL     OW21941   6.116   5.638   5.484 -0.3421 -0.4481 -0.3147
 7086SOL    HW121942   6.108   5.731   5.461  2.9969 -0.3397 -1.5736
 7086SOL    HW221943   6.090   5.591   5.405 -2.3538 -0.6850  0.4264
 7087SOL     OW21944   3.404   1.636   2.237  0.4829  0.5274  0.3140
 7087SOL    HW121945   3.376   1.675   2.320 -0.0775  0.7933  0.0002
 7087SOL    HW221946   3.473   1.695   2.205  0.7179  0.4119  0.5932
 7088SOL     OW21947   1.258   4.696   1.910 -0.2084  0.1582 -0.2876
 7088SOL    HW121948   1.178   4.695   1.964  0.6368  0.8409  1.0228
 7088SOL    HW221949   1.279   4.788   1.899 -0.7655  0.0868 -2.4957
 7089SOL     OW21950   3.286   1.476   1.756 -0.5308 -0.1798 -0.3203
 7089SOL    HW121951   3.343   1.551   1.737 -1.4737  1.1316  1.7125
 7089SOL    HW221952   3.308   1.412   1.689  0.1458  2.0057 -2.3366
 7090SOL     OW21953   2.075   3.376   1.135 -0.2286  0.0096  0.3213
 7090SOL    HW121954   2.051   3.302   1.190 -0.7344 -1.2968 -1.5587
 7090SOL    HW221955   2.017   3.447   1.165 -1.4416 -1.0468  0.6007
 7091SOL     OW21956   0.370   0.226   6.122  0.1357 -0.7993  0.1168
 7091SOL    HW121957   0.290   0.268   6.089  0.4431  0.5221  1.0117
 7091SOL    HW221958   0.338   0.150   6.170 -0.4556 -1.3800 -1.1445
 7092SOL     OW21959   1.875   0.927   0.879 -0.4398  0.6710  0.0843
 7092SOL    HW121960   1.937   0.999   0.884  0.3697 -0.0374  0.6713
 7092SOL    HW221961   1.844   0.915   0.969 -0.5459  0.2851  0.0010
 7093SOL     OW21962   0.725   3.054   4.839  0.0193  0.2851 -0.2886
 7093SOL    HW121963   0.641   3.098   4.852 -0.8639 -0.1566 -3.6205
 7093SOL    HW221964   0.730   3.038   4.745  3.3139 -0.8382 -0.0677
 7094SOL     OW21965   2.568   1.522   3.685 -0.7880 -0.1010  0.1366
 7094SOL    HW121966   2.504   1.593   3.678 -1.8034 -1.1209 -2.3115
 7094SOL    HW221967   2.514   1.442   3.687  0.2987 -1.0376 -2.6644
 7095SOL     OW21968   3.434   1.739   4.973  0.6126 -0.5956 -0.2785
 7095SOL    HW121969   3.471   1.800   4.909  0.4420 -0.1466  0.0475
 7095SOL    HW221970   3.344   1.724   4.942  0.2491  0.2908  0.3184
 7096SOL     OW21971   4.705   4.105   1.616  0.0121  0.3392  0.5132
 7096SOL    HW121972   4.622   4.110   1.570  1.7096 -0.5809 -3.0388
 7096SOL    HW221973   4.752   4.184   1.591  1.5907 -0.9316 -0.7778
 7097SOL     OW21974   3.632   5.319   5.041 -0.0108  0.1351 -0.7305
 7097SOL    HW121975   3.586   5.250   4.993  0.1450 -0.6245  0.1766
 7097SOL    HW221976   3.573   5.343   5.112  0.3751  0.1856 -0.4195
 7098SOL     OW21977   6.319   3.259   3.647 -0.0743  0.2718  0.0021
 7098SOL    HW121978   6.255   3.327   3.626 -0.6740  0.6444  2.7682
 7098SOL    HW221979   6.401   3.306   3.661  0.1095  0.1228 -0.5370
 7099SOL     OW21980   2.131   3.040   4.424  0.4389  0.5653 -0.2817
 7099SOL    HW121981   2.064   3.016   4.488  0.7430 -0.9535 -0.4905
 7099SOL    HW221982   2.093   3.113   4.376 -0.7171  0.2851  0.1660
 7100SOL     OW21983   0.410   3.025   1.827 -0.0925  0.6719  0.2366
 7100SOL    HW121984   0.450   2.981   1.752 -0.4895  0.8322 -0.0771
 7100SOL    HW221985   0.474   3.016   1.898 -0.5171 -1.1798  0.4493
 7101SOL     OW21986   1.145   5.449   5.114  0.1251  0.6926  0.1269
 7101SOL    HW121987   1.139   5.432   5.020  0.4684 -1.1161  0.3954
 7101SOL    HW221988   1.207   5.522   5.121  0.1805  0.7802 -1.0340
 7102SOL     OW21989   0.009   5.307   1.643  0.5687 -0.4249  0.0860
 7102SOL    HW121990  -0.037   5.282   1.724  0.2005 -2.8669 -0.7756
 7102SOL    HW221991   0.101   5.292   1.663  0.4228 -1.7820 -0.1191
 7103SOL     OW21992   3.038   3.754   0.097 -0.5688  0.4357  0.1465
 7103SOL    HW121993   2.950   3.718   0.105  0.0339 -0.8704  1.2652
 7103SOL    HW221994   3.033   3.837   0.144 -1.1529  0.2884  0.3574
 7104SOL     OW21995   3.157   6.262   6.501 -0.0976 -0.0000 -0.4300
 7104SOL    HW121996   3.107   6.331   6.543  2.7633  1.5122  0.7386
 7104SOL    HW221997   3.196   6.303   6.424  1.2659 -0.4000  0.0197
 7105SOL     OW21998   0.561   5.006   0.753 -0.0503 -0.4040  0.4149
 7105SOL    HW121999   0.653   4.984   0.737  0.2191  1.7509 -1.4749
 7105SOL    HW222000   0.512   4.952   0.691  0.3455  1.5145 -1.6981
 7106SOL     OW22001   5.411   4.932   1.633  0.0783  0.1467  0.5629
 7106SOL    HW122002   5.434   4.982   1.554  0.3238 -0.7989  0.0195
 7106SOL    HW222003   5.491   4.933   1.686 -0.3842  1.6250  1.2809
 7107SOL     OW22004   2.993   4.204   3.956  0.6449  0.4751  0.7942
 7107SOL    HW122005   3.044   4.250   3.889  1.0726 -1.4083 -0.2270
 7107SOL    HW222006   3.059   4.167   4.015  0.2964  1.2057  1.6888
 7108SOL     OW22007   5.308   6.435   0.561 -0.2084  0.3751  0.1002
 7108SOL    HW122008   5.358   6.494   0.505  0.4410 -0.7784 -0.5731
 7108SOL    HW222009   5.310   6.476   0.647  0.5004  1.1723 -0.2858
 7109SOL     OW22010   5.442   3.211   0.552 -0.5436 -0.4701  0.5503
 7109SOL    HW122011   5.360   3.185   0.594 -0.5100  1.2797  1.7928
 7109SOL    HW222012   5.424   3.298   0.515  0.0167 -1.1265 -1.4364
 7110SOL     OW22013   5.144   6.063   4.134 -0.8267  0.0320  0.0808
 7110SOL    HW122014   5.072   6.116   4.166 -0.4761  0.4000  0.2721
 7110SOL    HW222015   5.220   6.092   4.185 -0.2724  0.5653 -1.0107
 7111SOL     OW22016   4.916   4.522   0.223 -0.6127  0.5037 -0.1526
 7111SOL    HW122017   4.980   4.483   0.283 -0.6851 -0.2176 -0.5353
 7111SOL    HW222018   4.949   4.611   0.206  1.5225 -0.5620 -2.1087
 7112SOL     OW22019   3.687   3.058   1.607 -0.2665 -0.3170  0.4900
 7112SOL    HW122020   3.748   3.111   1.659  0.3677 -0.5935  0.0421
 7112SOL    HW222021   3.616   3.037   1.667  0.5078 -0.7358  1.2910
 7113SOL     OW22022   2.835   6.026   0.720  0.2910 -0.4857  0.5657
 7113SOL    HW122023   2.763   6.042   0.781  1.7786  1.3247  1.9462
 7113SOL    HW222024   2.794   6.033   0.633 -1.2920 -0.1102  1.3078
 7114SOL     OW22025   4.012   4.673   2.733 -0.2460 -0.3088 -0.2056
 7114SOL    HW122026   3.935   4.649   2.681 -0.6856 -0.0638  0.3240
 7114SOL    HW222027   4.057   4.738   2.679  1.5313 -2.9396 -2.1642
 7115SOL     OW22028   3.084   5.388   4.503  0.2899  0.0652 -0.1398
 7115SOL    HW122029   3.117   5.378   4.414  2.5907  1.7710  0.4101
 7115SOL    HW222030   3.053   5.479   4.506 -2.0569 -0.6981  0.1631
 7116SOL     OW22031   2.737   5.744   0.416  0.4963  0.8769 -0.3277
 7116SOL    HW122032   2.778   5.706   0.493 -0.2165  0.9172  0.0780
 7116SOL    HW222033   2.647   5.712   0.418  0.8453 -0.3235 -1.9480
 7117SOL     OW22034   2.509   5.913   4.178  0.7354  0.2143 -0.2433
 7117SOL    HW122035   2.545   5.980   4.237 -0.4777  1.2789 -0.6584
 7117SOL    HW222036   2.462   5.963   4.111 -0.9403 -1.0634 -0.0873
 7118SOL     OW22037   5.321   4.594   2.116 -0.6728  0.0607 -0.1990
 7118SOL    HW122038   5.372   4.672   2.091 -0.9411  0.7572  1.2993
 7118SOL    HW222039   5.383   4.541   2.167 -0.2074 -1.2107 -1.9930
 7119SOL     OW22040   2.477   4.082   1.864 -0.2974  0.3640 -0.5220
 7119SOL    HW122041   2.481   4.174   1.887 -1.7607  0.9078 -2.2132
 7119SOL    HW222042   2.413   4.044   1.924  3.0963 -0.5868  2.9202
 7120SOL     OW22043   3.954   2.441   4.052  0.5194 -0.0848 -0.2524
 7120SOL    HW122044   4.036   2.481   4.024  0.4456  1.1230  1.1632
 7120SOL    HW222045   3.980   2.383   4.125  0.0635  0.6952  0.5401
 7121SOL     OW22046   3.831   5.220   5.206 -0.1556  0.0563 -0.2247
 7121SOL    HW122047   3.787   5.302   5.184  3.1159  1.7740 -1.2155
 7121SOL    HW222048   3.800   5.158   5.140 -3.0259  0.2594  0.8052
 7122SOL     OW22049   3.555   5.828   3.041  0.5363 -0.3099 -0.1836
 7122SOL    HW122050   3.600   5.909   3.064 -1.9974  1.0751  0.2760
 7122SOL    HW222051   3.520   5.844   2.953  0.4349 -1.1323 -0.3055
 7123SOL     OW22052   0.110   6.013   5.148 -0.1774 -0.5037 -0.0609
 7123SOL    HW122053   0.032   6.035   5.199  0.7483 -0.9186  1.6259
 7123SOL    HW222054   0.155   6.096   5.136 -0.3636 -0.4124 -0.1209
 7124SOL     OW22055   2.530   3.463   3.140 -0.4702  0.5773  0.8036
 7124SOL    HW122056   2.446   3.478   3.183 -0.5627 -0.1299  0.8825
 7124SOL    HW222057   2.554   3.373   3.165 -0.0304  0.5256  0.2102
 7125SOL     OW22058   6.118   4.869   2.961 -0.4263 -0.1999  0.1402
 7125SOL    HW122059   6.100   4.775   2.957  1.4348 -0.6291  0.7707
 7125SOL    HW222060   6.156   4.882   3.047 -0.3351  1.0842 -0.0777
 7126SOL     OW22061   4.825   3.149   0.057  0.2153 -0.2616 -0.1470
 7126SOL    HW122062   4.769   3.083   0.096  0.1662 -0.5571 -0.7164
 7126SOL    HW222063   4.774   3.185  -0.015 -0.4229  1.5653  1.1523
 7127SOL     OW22064   3.428   2.499   3.932  0.1475  0.2389 -0.5280
 7127SOL    HW122065   3.520   2.519   3.953 -0.2272  0.4781  0.9800
 7127SOL    HW222066   3.382   2.506   4.015 -1.1314 -0.6228 -1.1321
 7128SOL     OW22067   1.361   2.227   1.703 -0.2329 -0.3325  0.0465
 7128SOL    HW122068   1.327   2.143   1.672  2.4791 -1.4566 -0.1815
 7128SOL    HW222069   1.452   2.228   1.672  0.9514  1.0038  3.1761
 7129SOL     OW22070   4.001   2.255   5.319  0.3340  0.5610  0.3850
 7129SOL    HW122071   4.069   2.195   5.289  0.5693  0.7370  0.5605
 7129SOL    HW222072   3.966   2.295   5.239  1.2684  1.3633  0.3623
 7130SOL     OW22073   6.200   4.596   4.227 -0.0672  0.5823 -0.6846
 7130SOL    HW122074   6.154   4.640   4.156 -0.1983  0.8212 -0.4530
 7130SOL    HW222075   6.266   4.541   4.183 -1.4442 -0.8118 -1.0922
 7131SOL     OW22076   5.141   2.262   3.801  0.0140  0.0699  0.2896
 7131SOL    HW122077   5.192   2.280   3.880 -1.7120 -1.7281  1.9607
 7131SOL    HW222078   5.139   2.344   3.753 -0.2478  1.7552  3.0001
 7132SOL     OW22079   3.505   4.069   5.796 -0.4049 -0.4579  0.5014
 7132SOL    HW122080   3.476   3.992   5.845  0.5647 -1.0386  0.2071
 7132SOL    HW222081   3.451   4.141   5.828 -1.3493 -1.2694  0.7652
 7133SOL     OW22082   4.926   3.198   2.874  0.3577 -0.0354 -0.6660
 7133SOL    HW122083   4.941   3.291   2.892 -0.0672  0.2221 -1.5794
 7133SOL    HW222084   4.833   3.185   2.891  0.1299  0.0203 -1.8019
 7134SOL     OW22085   1.693   1.934   3.625  0.0090 -0.3262  0.6123
 7134SOL    HW122086   1.621   1.968   3.678 -0.6831  1.2596 -1.2450
 7134SOL    HW222087   1.759   1.906   3.690 -2.0504 -1.4594  2.3485
 7135SOL     OW22088   0.792   4.244   4.378 -0.2036  0.0144 -0.1325
 7135SOL    HW122089   0.822   4.205   4.296 -0.4119 -1.4434  0.4680
 7135SOL    HW222090   0.759   4.171   4.430 -1.9095  1.1553  0.4845
 7136SOL     OW22091   3.346   0.338   4.407 -0.4056 -0.2664  0.7553
 7136SOL    HW122092   3.366   0.254   4.366  1.5641  0.4082  0.2344
 7136SOL    HW222093   3.255   0.329   4.436 -1.1706 -1.5969 -1.7137
 7137SOL     OW22094   5.085   5.139   3.000  0.0871  0.1906 -0.4335
 7137SOL    HW122095   5.108   5.047   3.017 -1.1277 -0.1525 -0.5283
 7137SOL    HW222096   5.146   5.189   3.053  0.5472 -0.6816 -0.1115
 7138SOL     OW22097   3.669   4.309   0.337  0.6471 -0.1362 -0.2732
 7138SOL    HW122098   3.710   4.271   0.260  0.9383 -0.7349  0.1739
 7138SOL    HW222099   3.585   4.264   0.344  1.7704 -2.1502  1.3516
 7139SOL     OW22100   4.069   4.378   5.864 -0.8247  0.0527  0.1268
 7139SOL    HW122101   4.158   4.381   5.900 -0.4389  0.8393 -0.8278
 7139SOL    HW222102   4.012   4.373   5.940  0.0077  0.4740  0.7915
 7140SOL     OW22103   5.453   2.064   0.270  0.4629  0.6896 -0.1493
 7140SOL    HW122104   5.428   2.030   0.184  1.4091 -2.5198  0.7302
 7140SOL    HW222105   5.548   2.050   0.275  0.2795 -0.1601  1.7859
 7141SOL     OW22106   2.872   1.562   2.442  0.0858  0.4407 -0.3363
 7141SOL    HW122107   2.965   1.542   2.457  0.2914  0.6922 -1.2529
 7141SOL    HW222108   2.872   1.631   2.377 -0.7847 -0.6378 -1.5292
 7142SOL     OW22109   2.105   3.454   6.490 -0.3365  0.4233 -0.0052
 7142SOL    HW122110   2.103   3.452   6.394 -0.7607 -0.4101  0.0082
 7142SOL    HW222111   2.197   3.442   6.513 -0.0330  1.9168 -0.3082
 7143SOL     OW22112   4.578   2.491   5.600 -0.0566  0.0929  0.3004
 7143SOL    HW122113   4.649   2.466   5.541 -1.1840 -1.6689 -0.4073
 7143SOL    HW222114   4.534   2.562   5.554 -0.8396 -1.1685 -1.0052
 7144SOL     OW22115   3.636   2.177   4.174  0.1513 -0.0039  0.3644
 7144SOL    HW122116   3.611   2.269   4.166  1.2510  0.2289 -0.6567
 7144SOL    HW222117   3.701   2.164   4.105  0.5074 -1.3726  0.9334
 7145SOL     OW22118   2.216   0.061   4.730 -0.6356 -0.1241 -0.5368
 7145SOL    HW122119   2.250   0.035   4.645  0.1519 -0.3854 -0.1555
 7145SOL    HW222120   2.293   0.089   4.779 -0.6106 -2.5211  0.9958
 7146SOL     OW22121   2.294   2.068   1.859  0.0136 -0.1526  0.7058
 7146SOL    HW122122   2.201   2.084   1.876  0.2296  1.2722  0.6673
 7146SOL    HW222123   2.323   2.144   1.809  1.1726 -0.6538  0.5735
 7147SOL     OW22124   5.598   0.661   0.898 -0.5037 -0.3529  0.5939
 7147SOL    HW122125   5.643   0.738   0.864 -2.7210  1.0258  0.5545
 7147SOL    HW222126   5.667   0.606   0.935  1.4202  0.4622 -1.5860
 7148SOL     OW22127   1.474   3.569   4.030  0.2401 -0.4586  0.0292
 7148SOL    HW122128   1.378   3.562   4.037  0.1959  0.4399  0.5869
 7148SOL    HW222129   1.488   3.656   3.991  0.8315 -0.4735  0.2065
 7149SOL     OW22130   0.292   3.825   2.704  0.4651  0.3532 -0.4381
 7149SOL    HW122131   0.275   3.875   2.624 -3.0846  1.3865  0.7852
 7149SOL    HW222132   0.330   3.889   2.764 -1.6264  1.0313  0.2604
 7150SOL     OW22133   3.400   5.538   6.304 -0.4041 -0.2040  0.1642
 7150SOL    HW122134   3.489   5.513   6.329 -0.4046  0.0708  0.4412
 7150SOL    HW222135   3.409   5.623   6.261 -0.3018 -1.0213 -1.5196
 7151SOL     OW22136   1.925   5.884   6.204  0.5235 -0.3700  0.1864
 7151SOL    HW122137   1.954   5.968   6.169 -0.3683  2.3128  5.0801
 7151SOL    HW222138   1.993   5.859   6.267 -1.3749 -0.7908  2.1809
 7152SOL     OW22139   4.923   6.089   4.820 -0.0560 -0.6192 -0.1217
 7152SOL    HW122140   4.873   6.145   4.879  1.2554  0.0918  0.3757
 7152SOL    HW222141   4.889   6.001   4.836  0.3102 -0.4678  1.7912
 7153SOL     OW22142   4.921   6.237   5.930  0.1501 -0.0006 -0.8990
 7153SOL    HW122143   4.827   6.224   5.916 -0.1274 -0.2466  0.9784
 7153SOL    HW222144   4.927   6.314   5.987  1.0738 -0.2110 -0.6952
 7154SOL     OW22145   0.959   4.011   2.138 -0.1679  0.0546 -0.0685
 7154SOL    HW122146   1.033   4.056   2.098 -0.1737 -0.3628 -0.5558
 7154SOL    HW222147   0.899   3.995   2.065 -0.4108 -0.2616  0.1993
 7155SOL     OW22148   2.782   3.148   3.907 -0.0499  0.8139  0.0324
 7155SOL    HW122149   2.828   3.192   3.836  1.7597 -0.2525  0.4896
 7155SOL    HW222150   2.831   3.170   3.986 -1.6578  1.4551  0.9043
 7156SOL     OW22151   3.062   4.370   0.778  0.5859 -0.0738  0.4067
 7156SOL    HW122152   3.041   4.357   0.686  0.2527 -1.2933  0.6481
 7156SOL    HW222153   3.106   4.456   0.780 -0.0538  0.3006 -0.7665
 7157SOL     OW22154   3.892   4.852   5.274 -0.1586 -0.1513 -0.4533
 7157SOL    HW122155   3.985   4.871   5.279 -0.4110  1.1058 -0.2675
 7157SOL    HW222156   3.862   4.895   5.194 -0.9313  1.1268  0.4830
 7158SOL     OW22157   5.196   3.502   2.835 -0.3820 -0.0564  0.1778
 7158SOL    HW122158   5.200   3.524   2.742 -0.6162  0.8799  0.3786
 7158SOL    HW222159   5.104   3.517   2.859 -0.2763 -0.0889  0.6055
 7159SOL     OW22160   2.442   4.701   2.573 -0.3581  0.7946 -0.0781
 7159SOL    HW122161   2.511   4.750   2.618 -0.5055  0.5751  0.4012
 7159SOL    HW222162   2.381   4.677   2.643  0.0475 -0.6370 -0.1903
 7160SOL     OW22163   3.221   3.184   2.270  0.0366  0.3447 -0.3799
 7160SOL    HW122164   3.266   3.148   2.347 -0.6472 -1.0501 -0.6047
 7160SOL    HW222165   3.129   3.160   2.283 -0.0469 -0.1332 -1.7495
 7161SOL     OW22166   3.766   2.634   0.821  0.3396  0.5676  0.3998
 7161SOL    HW122167   3.834   2.688   0.860  0.6606 -0.2944  1.0335
 7161SOL    HW222168   3.692   2.641   0.881  0.0832  0.9662  0.0496
 7162SOL     OW22169   0.093   4.419   6.167  0.4186 -0.6981  0.3803
 7162SOL    HW122170   0.152   4.346   6.185 -1.4749 -2.0538  1.4300
 7162SOL    HW222171   0.005   4.384   6.182 -0.6389  1.4714 -0.2632
 7163SOL     OW22172   0.017   0.665   3.110  0.1412 -0.1686 -0.1516
 7163SOL    HW122173  -0.048   0.731   3.086 -0.2818 -0.8687 -1.0052
 7163SOL    HW222174   0.057   0.640   3.026  0.5740 -0.7048  0.2082
 7164SOL     OW22175   6.326   4.022   0.020 -0.6186 -0.8314  0.1230
 7164SOL    HW122176   6.315   3.957   0.089 -0.3659 -0.5397  0.4345
 7164SOL    HW222177   6.257   4.001  -0.043  1.3324 -3.4203 -1.3755
 7165SOL     OW22178   3.452   2.860   5.108 -0.2523  0.6151 -0.1412
 7165SOL    HW122179   3.494   2.923   5.049  0.2573 -0.9065 -1.4461
 7165SOL    HW222180   3.363   2.851   5.073 -0.2237  0.3622 -0.1449
 7166SOL     OW22181   4.030   5.211   0.753  0.1539  0.3379 -0.1662
 7166SOL    HW122182   3.950   5.251   0.719  0.7477  1.0459 -0.7466
 7166SOL    HW222183   4.062   5.274   0.818  0.1765 -0.0094  0.1636
 7167SOL     OW22184   0.069   0.033   5.752  0.6267 -0.3615 -0.1948
 7167SOL    HW122185   0.144  -0.018   5.783  0.8467  0.9578  1.6264
 7167SOL    HW222186   0.102   0.123   5.748 -0.3917 -0.0048 -1.0547
 7168SOL     OW22187   5.023   0.416   1.247  0.2881  0.1638 -0.4812
 7168SOL    HW122188   5.115   0.434   1.267  0.6141 -1.6919 -0.0602
 7168SOL    HW222189   5.020   0.406   1.152  0.7852 -0.9458 -0.3941
 7169SOL     OW22190   4.355   5.326   2.669 -0.0445 -0.1855 -0.0332
 7169SOL    HW122191   4.310   5.334   2.754  0.1193  1.2239 -0.0466
 7169SOL    HW222192   4.401   5.242   2.674  0.6397  0.2417  1.6191
 7170SOL     OW22193   3.608   1.189   3.853  0.5653  0.3086 -0.0580
 7170SOL    HW122194   3.568   1.113   3.809  1.4739 -0.0756 -0.2383
 7170SOL    HW222195   3.541   1.219   3.914 -0.8492  1.0282 -1.8620
 7171SOL     OW22196   6.436   1.501   0.403 -0.4907  0.4427 -0.0719
 7171SOL    HW122197   6.388   1.535   0.328 -0.9217  0.6879  0.3145
 7171SOL    HW222198   6.454   1.578   0.457 -2.3589 -0.0399  1.3210
 7172SOL     OW22199   1.970   1.500   2.069  0.1288  0.1630  0.0549
 7172SOL    HW122200   2.047   1.551   2.043 -1.0431  1.7238 -0.5075
 7172SOL    HW222201   1.929   1.475   1.986  0.2530 -1.0429  0.3445
 7173SOL     OW22202   5.839   0.276   4.831  0.0210 -0.1103  0.1727
 7173SOL    HW122203   5.794   0.192   4.819 -2.5194  0.9520  1.5043
 7173SOL    HW222204   5.854   0.308   4.742 -0.0468 -1.4044 -0.3300
 7174SOL     OW22205   6.499   1.355   4.323  0.0579 -0.0849  0.4509
 7174SOL    HW122206   6.501   1.447   4.295  2.4160 -0.4709 -0.9054
 7174SOL    HW222207   6.406   1.334   4.330 -0.5591  2.7070  1.9515
 7175SOL     OW22208   0.582   5.483   3.058 -0.4170  0.6522 -0.1752
 7175SOL    HW122209   0.649   5.457   3.121  0.8795  2.2918 -0.8089
 7175SOL    HW222210   0.563   5.402   3.009  1.4413  0.2287 -0.2741
 7176SOL     OW22211   0.232   5.464   2.012 -0.2712  0.3875 -0.6625
 7176SOL    HW122212   0.203   5.373   2.001  0.9933 -0.2585  1.0690
 7176SOL    HW222213   0.327   5.460   2.012 -0.1847  1.7730 -0.8619
 7177SOL     OW22214   6.023   0.992   2.650  0.0200 -0.2291  0.1175
 7177SOL    HW122215   5.958   0.982   2.719 -0.5992  1.9996 -0.0841
 7177SOL    HW222216   5.997   1.071   2.603  2.9443  0.8764  0.1207
 7178SOL     OW22217   5.060   0.239   2.501  0.0809  1.0136 -0.3579
 7178SOL    HW122218   4.987   0.276   2.452 -1.6833 -2.5741 -0.7154
 7178SOL    HW222219   5.032   0.244   2.592  0.0960  1.0066 -0.3529
 7179SOL     OW22220   2.269   4.643   5.376 -0.2812 -0.1362  0.0157
 7179SOL    HW122221   2.301   4.654   5.287 -0.9038 -0.0020 -0.1989
 7179SOL    HW222222   2.331   4.583   5.417 -0.0787 -0.3189 -0.5524
 7180SOL     OW22223   6.300   6.229   0.211 -0.4020 -0.0164 -0.6142
 7180SOL    HW122224   6.383   6.248   0.168  0.7133  0.1111  1.4523
 7180SOL    HW222225   6.269   6.315   0.242 -0.6826 -0.2227 -0.3190
 7181SOL     OW22226   0.688   6.366   6.416 -0.1086 -0.7366  0.6662
 7181SOL    HW122227   0.676   6.282   6.371 -0.5545 -1.2993  1.7911
 7181SOL    HW222228   0.770   6.356   6.465 -0.0316 -0.4254  0.6023
 7182SOL     OW22229   3.869   4.508   0.775  1.0235  0.0923 -0.2783
 7182SOL    HW122230   3.809   4.487   0.846  1.6094 -0.1213  0.1580
 7182SOL    HW222231   3.815   4.502   0.696  0.7437 -1.3237 -0.0126
 7183SOL     OW22232   4.241   5.720   1.995  0.2075 -0.2806 -0.1466
 7183SOL    HW122233   4.177   5.673   1.941 -1.7972  0.7873  1.1931
 7183SOL    HW222234   4.253   5.804   1.950 -1.6991  0.7363  1.1041
 7184SOL     OW22235   4.891   2.837   0.740 -0.3380  0.1504 -0.2128
 7184SOL    HW122236   4.921   2.750   0.712  2.3761 -0.5276  3.9003
 7184SOL    HW222237   4.935   2.897   0.680  1.1334 -1.2434 -0.6315
 7185SOL     OW22238   5.359   2.835   4.787 -0.0745  0.4673 -0.0445
 7185SOL    HW122239   5.353   2.862   4.695  0.2064 -0.2371 -0.2794
 7185SOL    HW222240   5.399   2.909   4.832  2.7062 -0.3068 -1.0420
 7186SOL     OW22241   1.058   1.633   1.984  0.2808 -0.3360  0.0134
 7186SOL    HW122242   0.965   1.612   1.980 -0.2792  1.3017  2.3189
 7186SOL    HW222243   1.073   1.655   2.076  2.8745 -0.1997 -0.3859
 7187SOL     OW22244   4.061   4.803   6.368  0.2521 -0.1966  0.2945
 7187SOL    HW122245   4.021   4.855   6.299 -0.1490  1.3768  1.6599
 7187SOL    HW222246   4.154   4.799   6.344  0.8017  3.2470  1.3106
 7188SOL     OW22247   2.347   0.663   5.490  0.4688  0.0263 -0.1658
 7188SOL    HW122248   2.421   0.616   5.528 -0.3449 -0.4144  0.9415
 7188SOL    HW222249   2.386   0.739   5.447  1.5886 -0.4189  0.0292
 7189SOL     OW22250   3.806   4.828   0.707  0.1192  0.2716 -0.1735
 7189SOL    HW122251   3.729   4.871   0.671  1.3032  1.5811 -1.2784
 7189SOL    HW222252   3.853   4.794   0.630  1.0421  0.2108  0.3985
 7190SOL     OW22253   3.507   5.065   3.768  0.1607 -0.4383 -0.2505
 7190SOL    HW122254   3.442   5.134   3.755 -0.8072 -1.1573  0.6039
 7190SOL    HW222255   3.540   5.046   3.680 -1.9664 -1.1739 -0.9588
 7191SOL     OW22256   3.445   5.449   5.193 -0.3007 -0.0485  0.5373
 7191SOL    HW122257   3.403   5.476   5.275 -1.0661  0.3162  0.0354
 7191SOL    HW222258   3.411   5.509   5.127 -0.8330 -1.2599 -0.3247
 7192SOL     OW22259   5.230   3.946   5.644  0.8511 -0.3460  0.4120
 7192SOL    HW122260   5.292   4.000   5.595  0.9111  0.7539  1.6464
 7192SOL    HW222261   5.145   3.988   5.629  0.6604 -0.8086  0.1657
 7193SOL     OW22262   3.992   2.203   0.535 -0.3104 -0.2704 -0.2369
 7193SOL    HW122263   4.046   2.126   0.520 -0.0584 -0.2563  0.5435
 7193SOL    HW222264   4.053   2.269   0.569 -0.9523 -0.5792  1.6674
 7194SOL     OW22265   0.163   5.647   1.096 -0.0177 -0.3325 -0.5901
 7194SOL    HW122266   0.157   5.681   1.007  1.5678 -0.3263 -0.7207
 7194SOL    HW222267   0.252   5.612   1.103 -0.3915 -1.1078  0.7213
 7195SOL     OW22268   2.644   4.603   5.068 -0.6399 -0.3789  0.0274
 7195SOL    HW122269   2.579   4.533   5.071 -0.2202 -0.8545 -1.3835
 7195SOL    HW222270   2.634   4.648   5.152 -0.9489 -2.0816  0.9497
 7196SOL     OW22271   0.068   3.556   5.111 -0.4746 -0.3516 -0.7219
 7196SOL    HW122272   0.029   3.624   5.167 -0.0448 -1.0830  0.4906
 7196SOL    HW222273  -0.007   3.505   5.081 -0.5938 -0.9733  0.5681
 7197SOL     OW22274   1.758   6.201   1.297  0.4729  0.5032  0.2663
 7197SOL    HW122275   1.848   6.171   1.287  0.6556  1.2130 -0.2948
 7197SOL    HW222276   1.708   6.121   1.317  1.2607  0.1507  0.8750
 7198SOL     OW22277   1.305   2.400   5.429 -0.1731  0.4488 -0.6993
 7198SOL    HW122278   1.270   2.313   5.452  1.4097 -0.6527 -2.1647
 7198SOL    HW222279   1.257   2.461   5.485 -1.2232 -1.3863  0.5089
 7199SOL     OW22280   4.850   4.233   4.272  0.4272 -0.8174 -0.4465
 7199SOL    HW122281   4.859   4.176   4.348 -0.5024  0.2724  0.5318
 7199SOL    HW222282   4.757   4.228   4.249  0.0637  1.0930  0.3703
 7200SOL     OW22283   1.533   5.427   4.512 -0.4164 -0.3502  0.0615
 7200SOL    HW122284   1.439   5.441   4.516 -0.3309 -0.0473  1.8994
 7200SOL    HW222285   1.570   5.503   4.557  0.6073 -1.2598  0.8005
 7201SOL     OW22286   4.972   4.742   5.502 -0.7812 -0.9014  0.0514
 7201SOL    HW122287   5.003   4.827   5.532 -0.6861 -0.8600 -0.1640
 7201SOL    HW222288   5.041   4.710   5.444 -0.2805 -1.6368  1.0270
 7202SOL     OW22289   0.848   0.590   3.279 -0.2368  0.2903 -0.1920
 7202SOL    HW122290   0.856   0.504   3.238  0.6463 -0.1674  0.8698
 7202SOL    HW222291   0.914   0.644   3.235  0.7249 -0.2066  0.5771
 7203SOL     OW22292   1.374   4.768   1.608  0.3552 -0.0850 -0.1220
 7203SOL    HW122293   1.316   4.818   1.550  0.5083  0.7113  0.3825
 7203SOL    HW222294   1.432   4.720   1.550 -1.1546 -1.3600 -0.6647
 7204SOL     OW22295   2.605   2.647   3.421  0.3688  0.1856  0.1197
 7204SOL    HW122296   2.589   2.639   3.327 -0.1315 -1.0996  0.3068
 7204SOL    HW222297   2.700   2.636   3.430  0.2706 -0.9072 -0.1159
 7205SOL     OW22298   2.497   1.361   5.606 -0.5326  0.5277 -0.3385
 7205SOL    HW122299   2.515   1.318   5.522 -0.7101 -0.6959  0.2345
 7205SOL    HW222300   2.414   1.323   5.635  0.9121 -1.2614  1.7530
 7206SOL     OW22301   4.432   5.846   5.807  0.1781 -0.5864 -0.3401
 7206SOL    HW122302   4.361   5.866   5.746  1.2380 -0.9906 -1.7601
 7206SOL    HW222303   4.494   5.919   5.798  0.5615 -0.8768 -0.1080
 7207SOL     OW22304   6.083   3.763   5.068  0.0243 -0.4021 -0.2612
 7207SOL    HW122305   6.177   3.746   5.072 -0.2653 -3.1287 -2.2028
 7207SOL    HW222306   6.065   3.780   4.975 -1.3255  0.9558  0.1902
 7208SOL     OW22307   3.086   4.543   5.624  0.0050  0.1284 -0.5462
 7208SOL    HW122308   2.994   4.556   5.602 -0.2161 -2.4176 -1.5012
 7208SOL    HW222309   3.114   4.625   5.665 -2.6817  0.9363 -0.1937
 7209SOL     OW22310   6.257   0.387   6.458 -0.4720 -0.6022 -0.2787
 7209SOL    HW122311   6.315   0.312   6.471 -1.1076 -0.9281  0.8562
 7209SOL    HW222312   6.303   0.460   6.498  0.3358 -0.2639 -1.7496
 7210SOL     OW22313   2.446   0.763   5.779  0.4381  0.5050 -0.2906
 7210SOL    HW122314   2.496   0.694   5.736 -0.9928 -0.1680 -0.9723
 7210SOL    HW222315   2.487   0.845   5.750  0.2480  0.0265 -2.0392
 7211SOL     OW22316   1.723   5.627   5.948  0.0300  0.4690 -0.2105
 7211SOL    HW122317   1.807   5.663   5.920  0.6325 -0.8588 -0.1945
 7211SOL    HW222318   1.723   5.635   6.043  0.1220  0.5247 -0.2151
 7212SOL     OW22319   3.234   4.403   5.209 -0.0552 -0.1718  0.3998
 7212SOL    HW122320   3.276   4.469   5.264 -0.7578  0.1009  0.6134
 7212SOL    HW222321   3.140   4.416   5.223 -0.1962 -1.9123  1.2526
 7213SOL     OW22322   5.638   4.048   4.517  0.3682 -0.5411  0.0133
 7213SOL    HW122323   5.606   4.028   4.429 -0.1104 -1.7768  0.4562
 7213SOL    HW222324   5.714   4.104   4.502  1.0314 -1.7294 -1.2322
 7214SOL     OW22325   5.015   2.460   1.454  0.2255  0.3500  0.6589
 7214SOL    HW122326   5.103   2.496   1.449  0.2980  0.0251 -1.3218
 7214SOL    HW222327   4.973   2.487   1.372 -0.1245 -2.8668 -0.3854
 7215SOL     OW22328   1.988   0.040   6.219  0.3111 -0.4050  0.1294
 7215SOL    HW122329   2.047  -0.035   6.214  1.5473  0.4724  1.0543
 7215SOL    HW222330   1.930   0.020   6.293  1.5800  0.1807  1.3072
 7216SOL     OW22331   4.469   3.219   4.807 -0.1702 -0.0009  0.1932
 7216SOL    HW122332   4.487   3.312   4.820 -1.4613  0.3303 -0.2519
 7216SOL    HW222333   4.512   3.175   4.881  0.7001  0.9050  0.2409
 7217SOL     OW22334   0.954   3.043   3.030  0.0118  0.1452  0.0607
 7217SOL    HW122335   0.985   3.133   3.043 -0.5132  0.2661  0.5144
 7217SOL    HW222336   1.015   2.989   3.080  0.6109  0.2006 -0.6003
 7218SOL     OW22337   1.077   1.497   5.555  1.0081 -0.4808  0.1061
 7218SOL    HW122338   1.109   1.453   5.476 -0.2117  2.4965 -2.2811
 7218SOL    HW222339   0.984   1.476   5.559  1.0082 -0.4051  0.5961
 7219SOL     OW22340   0.771   3.822   0.654 -0.0067 -0.0895  0.8095
 7219SOL    HW122341   0.848   3.768   0.638  0.1123  0.0809  0.8070
 7219SOL    HW222342   0.754   3.813   0.748 -0.3239 -0.5790  0.7148
 7220SOL     OW22343   2.160   5.896   3.853  0.3188 -0.1293  0.1345
 7220SOL    HW122344   2.083   5.898   3.911 -1.2972 -0.4427 -1.9001
 7220SOL    HW222345   2.185   5.988   3.842  0.2293 -0.0238  0.7563
 7221SOL     OW22346   4.427   4.523   1.700  0.1278 -0.1865 -0.4433
 7221SOL    HW122347   4.386   4.499   1.783  0.0239 -0.2667 -0.5169
 7221SOL    HW222348   4.427   4.618   1.699 -1.3335 -0.1592 -1.0617
 7222SOL     OW22349   4.546   5.906   0.620  0.2048 -0.1399 -0.6349
 7222SOL    HW122350   4.515   5.822   0.586 -0.1775 -0.2265 -0.0845
 7222SOL    HW222351   4.533   5.967   0.548  0.0314 -0.4563 -0.8754
 7223SOL     OW22352   2.846   4.138   2.181  0.0092  0.1671  0.2275
 7223SOL    HW122353   2.820   4.228   2.199 -0.2599  0.2940 -0.7435
 7223SOL    HW222354   2.938   4.134   2.209  0.1379  0.8520 -0.0574
 7224SOL     OW22355   1.819   5.859   0.142  0.5133  0.0372  0.3655
 7224SOL    HW122356   1.838   5.946   0.108  0.5535  0.4675  1.4366
 7224SOL    HW222357   1.767   5.875   0.221 -0.2276 -0.9500  0.0939
 7225SOL     OW22358   0.549   2.572   4.687  0.3950 -0.8871 -0.7798
 7225SOL    HW122359   0.455   2.582   4.673 -0.0153 -0.0194  1.9750
 7225SOL    HW222360   0.556   2.510   4.760  2.0077 -1.5476 -1.4547
 7226SOL     OW22361   3.855   1.785   1.634 -0.0520 -0.5252  0.3844
 7226SOL    HW122362   3.801   1.794   1.555 -0.1067  2.4384  0.6404
 7226SOL    HW222363   3.944   1.773   1.601 -0.3568 -1.7295 -0.0639
 7227SOL     OW22364   1.064   5.773   2.118  0.2393 -0.4966 -0.3800
 7227SOL    HW122365   1.124   5.762   2.045  1.2537 -0.2336  0.3999
 7227SOL    HW222366   1.120   5.780   2.195 -0.6513  1.9505  0.1321
 7228SOL     OW22367   2.325   1.766   4.188 -0.0539 -0.6657 -0.0159
 7228SOL    HW122368   2.349   1.746   4.098 -0.2751 -0.6275 -0.0831
 7228SOL    HW222369   2.405   1.750   4.238  0.2081 -0.2195 -0.2834
 7229SOL     OW22370   3.525   0.785   4.255  0.0867  0.0540  0.0622
 7229SOL    HW122371   3.541   0.831   4.173  1.2595  1.0118  0.7937
 7229SOL    HW222372   3.516   0.854   4.320  3.0534 -0.6648  1.4027
 7230SOL     OW22373   1.704   5.222   5.625  0.2027  0.6175  0.4553
 7230SOL    HW122374   1.661   5.263   5.701 -0.4686 -0.2840  0.5791
 7230SOL    HW222375   1.797   5.244   5.636 -0.1281  2.0671  0.5269
 7231SOL     OW22376   3.010   3.413   0.302 -0.5976  0.1373 -0.4574
 7231SOL    HW122377   2.935   3.409   0.243 -1.6644  0.9972  0.7838
 7231SOL    HW222378   3.009   3.330   0.349 -1.6022  0.6286  0.4637
 7232SOL     OW22379   2.122   4.970   2.820  0.1788 -0.8894 -0.3837
 7232SOL    HW122380   2.125   4.923   2.736 -0.0788 -0.8261 -0.4290
 7232SOL    HW222381   2.075   4.912   2.879 -0.0665 -0.7258 -0.4164
 7233SOL     OW22382   2.537   0.133   0.498  0.1772 -0.2199  0.0462
 7233SOL    HW122383   2.496   0.049   0.519  0.6251 -0.2553  0.8159
 7233SOL    HW222384   2.465   0.196   0.499 -0.0232 -0.4506  0.3647
 7234SOL     OW22385   2.497   1.126   6.394 -0.2329  0.7767 -0.0084
 7234SOL    HW122386   2.488   1.062   6.464  1.5081  0.1965 -0.2449
 7234SOL    HW222387   2.411   1.131   6.353  0.2335 -4.0705 -2.2058
 7235SOL     OW22388   0.615   6.032   4.769  0.1427 -0.8277 -0.0881
 7235SOL    HW122389   0.675   6.024   4.844 -0.1307  0.9117  0.3665
 7235SOL    HW222390   0.641   6.115   4.727 -1.5938 -0.2887 -0.1732
 7236SOL     OW22391   2.206   2.697   3.142 -0.0248 -0.6861 -0.4173
 7236SOL    HW122392   2.268   2.642   3.190 -1.2463 -1.5964  0.1939
 7236SOL    HW222393   2.124   2.688   3.190 -0.0798  2.4981  0.3059
 7237SOL     OW22394   4.582   3.896   0.603 -0.6920 -0.2365 -0.0832
 7237SOL    HW122395   4.623   3.977   0.574 -1.4179 -0.0294 -0.5460
 7237SOL    HW222396   4.572   3.908   0.698  1.8501 -0.9977  0.3711
 7238SOL     OW22397   4.300   5.400   3.665 -0.0575 -0.1231  0.1571
 7238SOL    HW122398   4.221   5.381   3.614  0.0376  1.1939 -0.5184
 7238SOL    HW222399   4.363   5.432   3.601  0.9449 -0.8816  0.7387
 7239SOL     OW22400   1.425   2.148   3.606  0.2250 -0.0657  0.3059
 7239SOL    HW122401   1.399   2.212   3.539  0.7505 -0.6504 -0.4784
 7239SOL    HW222402   1.382   2.067   3.579  0.5403 -0.3377  0.6145
 7240SOL     OW22403   4.402   0.073   2.959  0.2441 -0.0241 -0.2915
 7240SOL    HW122404   4.372  -0.018   2.953 -1.9978  0.6570 -0.3327
 7240SOL    HW222405   4.323   0.125   2.949  0.7985  1.8983  3.5239
 7241SOL     OW22406   2.503   5.565   5.872 -0.2173 -0.1598 -0.1356
 7241SOL    HW122407   2.533   5.554   5.782  0.0886  0.3049 -0.0955
 7241SOL    HW222408   2.571   5.618   5.914  0.9610 -2.4702  1.0730
 7242SOL     OW22409   3.110   1.982   2.973  0.8951  0.0886 -0.0594
 7242SOL    HW122410   3.194   1.976   2.927  0.6511  0.0267 -0.4942
 7242SOL    HW222411   3.132   2.023   3.057  1.4365 -0.3645  0.0211
 7243SOL     OW22412   4.519   4.089   4.510  0.6039 -0.0766 -1.0152
 7243SOL    HW122413   4.483   4.047   4.432  0.5786  0.2416 -1.1750
 7243SOL    HW222414   4.600   4.041   4.528  0.5161 -0.2694 -1.1298
 7244SOL     OW22415   3.255   1.393   5.318 -0.1434  0.5414 -0.1785
 7244SOL    HW122416   3.183   1.333   5.340 -1.3741  2.3106  0.9274
 7244SOL    HW222417   3.281   1.368   5.230  2.4275 -4.4498  1.6388
 7245SOL     OW22418   0.282   5.515   4.546  0.1980 -0.3603 -0.0863
 7245SOL    HW122419   0.267   5.609   4.536  1.8189 -0.1764 -1.2189
 7245SOL    HW222420   0.373   5.502   4.522 -0.0801 -2.2813 -0.3118
 7246SOL     OW22421   1.379   0.301   2.238 -0.0636 -0.2122 -0.3319
 7246SOL    HW122422   1.345   0.306   2.149 -3.5876 -1.2857  0.8069
 7246SOL    HW222423   1.382   0.393   2.267  1.9128  0.2313 -1.7035
 7247SOL     OW22424   2.862   1.361   1.727 -0.1429  0.1013 -0.6948
 7247SOL    HW122425   2.913   1.310   1.665  0.8888  0.1593  0.0759
 7247SOL    HW222426   2.916   1.438   1.745 -0.5318  0.2078  0.0732
 7248SOL     OW22427   1.729   1.909   5.040  0.3907 -0.2367  0.4797
 7248SOL    HW122428   1.656   1.924   4.979  1.8895 -1.4709 -1.7595
 7248SOL    HW222429   1.687   1.905   5.126 -1.9023  1.1890 -0.4557
 7249SOL     OW22430   1.034   4.960   3.046  0.4853 -0.6565  0.3245
 7249SOL    HW122431   1.055   5.001   2.962  0.8582 -1.6564 -0.0810
 7249SOL    HW222432   0.947   4.994   3.068 -0.0149 -1.0770 -0.9137
 7250SOL     OW22433   0.317   6.057   2.314 -0.1695 -0.0410 -0.1346
 7250SOL    HW122434   0.246   6.118   2.337 -0.3565  0.3005 -1.5721
 7250SOL    HW222435   0.276   5.992   2.258  0.4059 -0.5556  0.0281
 7251SOL     OW22436   5.810   1.537   1.083 -0.1888 -0.3234 -0.2382
 7251SOL    HW122437   5.894   1.576   1.110 -0.9362  0.4478  1.0418
 7251SOL    HW222438   5.825   1.442   1.091  0.7927 -0.2324 -0.7631
 7252SOL     OW22439   0.971   1.260   1.764  0.0234 -0.5172 -0.1015
 7252SOL    HW122440   0.918   1.340   1.762  0.1927 -0.3570  1.0889
 7252SOL    HW222441   1.055   1.288   1.799  0.4540 -1.0230 -0.7209
 7253SOL     OW22442   5.594   2.669   2.588  0.1348  0.1915 -0.5102
 7253SOL    HW122443   5.510   2.664   2.543 -0.5903  0.9070  0.7037
 7253SOL    HW222444   5.571   2.675   2.681  1.5596 -0.6259 -0.0744
 7254SOL     OW22445   4.894   0.767   4.450 -0.8282 -0.1083  0.7617
 7254SOL    HW122446   4.947   0.697   4.488  0.4813  1.8578  2.8734
 7254SOL    HW222447   4.941   0.792   4.371 -1.4434 -1.7075 -0.1512
 7255SOL     OW22448   0.631   3.597   5.375  0.4379  0.2166 -0.4182
 7255SOL    HW122449   0.565   3.654   5.335  0.1800  0.4341  0.2946
 7255SOL    HW222450   0.581   3.543   5.437  0.8751  0.1281 -0.1433
 7256SOL     OW22451   3.686   1.511   1.576 -0.4949  0.0733  0.3582
 7256SOL    HW122452   3.780   1.502   1.558 -0.3101 -0.3780  1.4511
 7256SOL    HW222453   3.647   1.527   1.490  0.6011  0.4662 -0.0944
 7257SOL     OW22454   5.652   2.878   1.684  0.6069  0.5579  0.9925
 7257SOL    HW122455   5.582   2.939   1.704 -0.2235  0.4198 -1.2414
 7257SOL    HW222456   5.610   2.792   1.682  0.8165  0.4720 -0.3726
 7258SOL     OW22457   5.031   6.364   4.084  0.2485 -0.6157  0.4236
 7258SOL    HW122458   4.973   6.439   4.095 -0.3672 -0.3985 -3.3014
 7258SOL    HW222459   5.116   6.395   4.118 -0.5707  0.8199  1.2603
 7259SOL     OW22460   1.548   5.849   0.684  0.1679  0.1949 -0.4430
 7259SOL    HW122461   1.536   5.777   0.622 -0.4114 -0.8771  0.8477
 7259SOL    HW222462   1.624   5.823   0.737 -0.0466  0.5148  0.0315
 7260SOL     OW22463   1.506   1.847   1.102  0.4955 -0.1232 -0.2746
 7260SOL    HW122464   1.599   1.868   1.111  0.5359  0.1037 -1.1360
 7260SOL    HW222465   1.502   1.781   1.033 -0.2682  2.6192 -3.0550
 7261SOL     OW22466   6.043   2.930   0.297 -0.4275  0.4973 -0.2198
 7261SOL    HW122467   5.977   2.881   0.248 -0.0315  0.5082 -0.7738
 7261SOL    HW222468   6.127   2.891   0.270 -0.2603 -0.3378  1.4020
 7262SOL     OW22469   5.710   0.873   6.156  0.0994 -0.5714  0.1122
 7262SOL    HW122470   5.625   0.872   6.198 -0.1925  1.5823 -0.2707
 7262SOL    HW222471   5.711   0.955   6.105  2.6389 -0.1569  0.6510
 7263SOL     OW22472   3.941   2.547   4.385 -0.1781 -0.0373 -0.3639
 7263SOL    HW122473   4.019   2.550   4.440 -0.0730 -0.0535 -0.5111
 7263SOL    HW222474   3.925   2.454   4.371 -1.0234 -0.0810  0.7889
 7264SOL     OW22475   2.205   1.915   3.571 -0.0350 -0.2650  0.5480
 7264SOL    HW122476   2.121   1.949   3.541  0.1448 -0.0310  0.3036
 7264SOL    HW222477   2.259   1.992   3.583  1.0999 -0.5055 -2.1350
 7265SOL     OW22478   1.719   4.051   3.503 -0.0108 -0.1683  0.2865
 7265SOL    HW122479   1.631   4.057   3.541 -1.0945 -0.8098 -1.9485
 7265SOL    HW222480   1.738   3.957   3.501  0.1480 -0.1205 -0.4727
 7266SOL     OW22481   0.516   6.309   4.226  0.4009 -0.4490 -0.1588
 7266SOL    HW122482   0.432   6.345   4.254  0.3637 -1.4379  1.0854
 7266SOL    HW222483   0.568   6.387   4.204 -0.9321  0.1592 -1.3293
 7267SOL     OW22484   4.097   5.861   1.063 -0.0488 -0.2839  0.1607
 7267SOL    HW122485   4.189   5.888   1.067 -0.1959  1.0307 -2.7288
 7267SOL    HW222486   4.083   5.839   0.971 -2.8116  0.2765  0.3731
 7268SOL     OW22487   3.392   0.860   2.728 -0.0585 -0.6008  0.5946
 7268SOL    HW122488   3.317   0.804   2.746  1.1325 -2.3903  0.3101
 7268SOL    HW222489   3.445   0.856   2.808 -0.0704  0.3186  0.6531
 7269SOL     OW22490   5.090   2.096   5.072  0.0175 -0.5845 -0.2834
 7269SOL    HW122491   5.049   2.167   5.023 -0.6058 -1.3540 -0.8856
 7269SOL    HW222492   5.086   2.125   5.164 -0.4841  0.0254 -0.4939
 7270SOL     OW22493   4.035   3.003   4.820  0.0789 -0.2986 -0.3292
 7270SOL    HW122494   4.055   3.091   4.788  0.3529 -0.0227  0.5643
 7270SOL    HW222495   4.038   2.948   4.742 -0.1153  0.4821 -0.9031
 7271SOL     OW22496   0.851   5.117   2.708 -1.1716  0.1289 -0.2275
 7271SOL    HW122497   0.874   5.208   2.727  0.9045 -0.7574  2.0451
 7271SOL    HW222498   0.772   5.101   2.759 -1.6285  0.6801 -0.7521
 7272SOL     OW22499   5.730   3.370   3.083 -0.4285  0.0689  0.7692
 7272SOL    HW122500   5.769   3.329   3.006 -1.5972  1.7871 -0.8131
 7272SOL    HW222501   5.773   3.455   3.089 -1.8566  0.8248  0.7019
 7273SOL     OW22502   1.262   6.303   2.207 -0.8912 -0.1513 -0.0617
 7273SOL    HW122503   1.335   6.362   2.186  0.6565 -1.3579  1.5764
 7273SOL    HW222504   1.287   6.220   2.167  0.1958 -1.3951  2.8797
 7274SOL     OW22505   4.058   0.396   1.953 -0.0945 -0.1558  0.2527
 7274SOL    HW122506   4.131   0.335   1.945  0.1407 -0.3368  2.7634
 7274SOL    HW222507   3.983   0.350   1.915  0.6920 -0.7674 -0.5860
 7275SOL     OW22508   1.359   4.175   2.673  0.3036 -0.1928 -0.4184
 7275SOL    HW122509   1.389   4.262   2.700 -0.4113  1.0114 -3.1053
 7275SOL    HW222510   1.386   4.169   2.581 -2.1826 -1.5944 -1.1421
 7276SOL     OW22511   3.790   4.096   3.324  0.5337 -0.1847  0.2169
 7276SOL    HW122512   3.815   4.104   3.231 -0.0543 -3.1676 -0.3042
 7276SOL    HW222513   3.695   4.105   3.324  0.4102 -1.3071  0.3149
 7277SOL     OW22514   0.799   1.889   3.005 -0.1754  0.5331 -0.0131
 7277SOL    HW122515   0.759   1.910   2.921  0.9618  0.0436 -0.6955
 7277SOL    HW222516   0.890   1.916   2.996  0.0396  0.1595  0.9392
 7278SOL     OW22517   4.671   0.362   6.493  1.0171  0.6816  0.2246
 7278SOL    HW122518   4.595   0.378   6.548 -0.3141  2.8169 -2.0221
 7278SOL    HW222519   4.650   0.283   6.444  0.6813  0.7193  0.3073
 7279SOL     OW22520   4.461   2.373   6.443  0.0327 -0.1577  0.3750
 7279SOL    HW122521   4.366   2.359   6.451 -0.6515  2.3235 -1.9177
 7279SOL    HW222522   4.484   2.424   6.521  0.4466 -4.0661  3.0814
 7280SOL     OW22523   0.991   5.917   5.226 -0.6025  0.3917  0.1906
 7280SOL    HW122524   1.059   5.909   5.293 -0.4311  0.5535  0.0370
 7280SOL    HW222525   1.039   5.919   5.143 -0.6428  2.5695  0.1781
 7281SOL     OW22526   4.649   0.061   2.383 -0.3208  0.1776 -0.3585
 7281SOL    HW122527   4.737   0.025   2.395 -0.6628 -0.3124  0.8891
 7281SOL    HW222528   4.628   0.041   2.292  0.9377  0.5068 -0.7458
 7282SOL     OW22529   0.991   2.548   5.167  0.6197  0.5343  0.2494
 7282SOL    HW122530   1.044   2.507   5.099  0.7391  1.3014 -0.1194
 7282SOL    HW222531   1.054   2.594   5.222  0.6338 -0.7899  1.4181
 7283SOL     OW22532   6.045   0.355   5.647 -0.0765  0.4173 -0.1744
 7283SOL    HW122533   6.009   0.323   5.730 -0.8739  2.1256  0.1802
 7283SOL    HW222534   6.031   0.450   5.650  1.8462  0.7804 -1.3269
 7284SOL     OW22535   5.180   3.673   2.292  0.4462 -0.2378 -0.5706
 7284SOL    HW122536   5.215   3.702   2.208 -2.0473  0.4013 -1.4789
 7284SOL    HW222537   5.155   3.754   2.337 -1.3213 -0.6864 -0.6832
 7285SOL     OW22538   0.937   3.198   1.037  0.0857 -0.2097  0.0039
 7285SOL    HW122539   0.967   3.120   1.084  0.5781 -0.0241  0.0019
 7285SOL    HW222540   1.015   3.253   1.029 -0.3360  0.4554  0.3437
 7286SOL     OW22541   2.771   2.054   0.324 -0.1665 -0.0412 -0.6833
 7286SOL    HW122542   2.833   2.113   0.280  1.1625 -1.0862 -0.2964
 7286SOL    HW222543   2.685   2.084   0.295  0.5226  1.2670 -1.5068
 7287SOL     OW22544   6.167   3.448   5.918 -0.5955  0.3331  0.0982
 7287SOL    HW122545   6.118   3.373   5.886 -2.2130  1.9176 -1.3608
 7287SOL    HW222546   6.227   3.470   5.847  1.7742 -1.0578  1.5301
 7288SOL     OW22547   1.565   2.287   2.523 -0.1052  0.2735  0.1227
 7288SOL    HW122548   1.570   2.226   2.450 -4.2096 -0.8398  0.5647
 7288SOL    HW222549   1.525   2.366   2.486 -0.8689  0.2385  0.8504
 7289SOL     OW22550   2.169   4.198   2.329 -0.4848 -0.2369 -0.2472
 7289SOL    HW122551   2.125   4.123   2.368 -1.6351  0.2457 -0.5943
 7289SOL    HW222552   2.262   4.183   2.347 -0.6843 -1.7747 -0.3769
 7290SOL     OW22553   0.595   4.593   5.961  0.2453 -0.0164  0.1992
 7290SOL    HW122554   0.618   4.685   5.976 -1.1354  0.5345 -0.8047
 7290SOL    HW222555   0.580   4.557   6.048 -1.3852  1.3418  0.5278
 7291SOL     OW22556   0.720   2.030   5.250 -0.3045  0.1892 -0.3965
 7291SOL    HW122557   0.783   2.100   5.266 -0.4132  0.4672 -1.1774
 7291SOL    HW222558   0.756   1.954   5.297 -0.7489  1.0309  1.3810
 7292SOL     OW22559   3.001   1.752   0.116 -0.7814  0.3399 -0.1687
 7292SOL    HW122560   3.001   1.742   0.211 -1.6073 -0.5848 -0.2593
 7292SOL    HW222561   3.009   1.847   0.102 -1.7346  0.5834  0.8342
 7293SOL     OW22562   4.809   0.337   5.036 -0.2040 -0.0019 -0.1059
 7293SOL    HW122563   4.828   0.417   4.988  0.4248 -0.7114 -1.0838
 7293SOL    HW222564   4.743   0.292   4.983  2.4291 -2.1010 -1.9228
 7294SOL     OW22565   3.024   5.034   2.577  0.3540 -0.2527  0.0646
 7294SOL    HW122566   3.107   5.035   2.530 -0.0921  1.8176 -0.7513
 7294SOL    HW222567   2.994   4.943   2.570  0.7288 -0.2551 -2.9412
 7295SOL     OW22568   4.546   0.018   3.207  0.1011 -0.4088  0.5251
 7295SOL    HW122569   4.523  -0.074   3.217 -1.8834 -0.0919 -0.6734
 7295SOL    HW222570   4.486   0.051   3.141  1.1250  1.6394  0.5366
 7296SOL     OW22571   4.262   2.554   1.165  0.1245  0.6213 -0.1606
 7296SOL    HW122572   4.175   2.517   1.174  0.1713  0.4544 -0.3764
 7296SOL    HW222573   4.312   2.487   1.117  1.2308 -0.6525  2.5255
 7297SOL     OW22574   3.861   5.420   3.498  0.2284  0.1740  0.0853
 7297SOL    HW122575   3.897   5.432   3.410  2.4766  1.9219  1.1533
 7297SOL    HW222576   3.923   5.464   3.556 -0.9313 -1.3026  2.6307
 7298SOL     OW22577   5.822   3.707   2.475  0.3059  0.1839  0.1121
 7298SOL    HW122578   5.793   3.788   2.515  0.7901  1.7622 -2.4743
 7298SOL    HW222579   5.749   3.646   2.487  0.4257  0.4938  3.1994
 7299SOL     OW22580   1.226   4.095   3.719  0.6166 -0.1653 -0.2594
 7299SOL    HW122581   1.291   4.141   3.666  0.7817  0.8774  0.8058
 7299SOL    HW222582   1.156   4.159   3.734 -0.7470 -1.3089 -1.4834
 7300SOL     OW22583   4.446   0.715   3.058  0.6614 -0.4238  0.4384
 7300SOL    HW122584   4.500   0.755   3.126  1.1403 -2.0852  1.0912
 7300SOL    HW222585   4.356   0.728   3.088  0.8611 -0.9929  1.3367
 7301SOL     OW22586   1.054   3.313   3.016  0.2598  0.1630  0.2497
 7301SOL    HW122587   1.102   3.337   2.937  0.0821 -1.3008 -0.3437
 7301SOL    HW222588   1.117   3.324   3.087  0.5931  0.9641 -0.1641
 7302SOL     OW22589   2.151   1.463   0.985 -0.8097  0.6849  0.1571
 7302SOL    HW122590   2.240   1.449   1.018 -1.1171  0.2910  0.8312
 7302SOL    HW222591   2.125   1.548   1.021 -0.3856  1.2260 -0.7705
 7303SOL     OW22592   2.093   0.770   2.168  0.6853 -0.1428 -0.4386
 7303SOL    HW122593   2.089   0.840   2.232  0.2260 -0.5521 -0.0108
 7303SOL    HW222594   2.073   0.812   2.084  0.7423  0.2896 -0.2348
 7304SOL     OW22595   6.306   4.432   3.035  0.5578 -0.6655 -0.4876
 7304SOL    HW122596   6.230   4.384   3.069  1.7388 -0.9256  1.9329
 7304SOL    HW222597   6.382   4.384   3.068  1.7916  1.6949  0.2951
 7305SOL     OW22598   4.302   1.759   0.101 -0.3188  0.6149 -0.1932
 7305SOL    HW122599   4.302   1.854   0.087  1.6551  0.6289 -0.4784
 7305SOL    HW222600   4.352   1.724   0.028  2.0653 -0.2514  1.6828
 7306SOL     OW22601   1.611   0.604   2.426 -0.0674 -0.0087 -0.4055
 7306SOL    HW122602   1.528   0.574   2.388 -0.2262  1.1539 -1.0206
 7306SOL    HW222603   1.678   0.548   2.386 -0.5333 -0.9071  0.0399
 7307SOL     OW22604   0.301   2.868   3.944 -0.7317 -0.6671 -0.3772
 7307SOL    HW122605   0.396   2.862   3.955 -0.7474 -1.4161 -0.5484
 7307SOL    HW222606   0.270   2.912   4.023 -0.3473 -1.4050  0.1996
 7308SOL     OW22607   0.074   2.505   6.408 -0.4293 -0.4298  0.4070
 7308SOL    HW122608   0.074   2.599   6.394 -1.2063 -0.5306 -0.4101
 7308SOL    HW222609   0.123   2.492   6.488  0.2812  0.6114  0.1537
 7309SOL     OW22610   4.806   2.393   2.710  0.0551 -0.1940 -0.6110
 7309SOL    HW122611   4.877   2.405   2.773  0.2896 -0.7206 -0.7632
 7309SOL    HW222612   4.739   2.456   2.736  0.8008  0.7074 -0.7865
 7310SOL     OW22613   3.138   2.099   1.101  0.3717  0.3093  0.5754
 7310SOL    HW122614   3.143   2.100   1.006 -0.6024  1.9625  0.4849
 7310SOL    HW222615   3.217   2.054   1.130  0.2089 -1.0679 -1.0202
 7311SOL     OW22616   2.487   0.845   1.400  0.3880 -0.3309  0.6734
 7311SOL    HW122617   2.401   0.809   1.424  0.5128  0.1688  1.9560
 7311SOL    HW222618   2.536   0.769   1.368 -0.7102 -0.5118 -0.6764
 7312SOL     OW22619   6.280   0.241   2.700  0.3456 -0.4949 -0.1653
 7312SOL    HW122620   6.230   0.321   2.714 -2.1803 -1.9917  0.0733
 7312SOL    HW222621   6.349   0.266   2.640 -0.8011  1.7058 -0.6769
 7313SOL     OW22622   5.735   1.018   5.714 -0.0892  0.1173  0.2257
 7313SOL    HW122623   5.670   0.968   5.763 -0.6391  0.1940 -0.4013
 7313SOL    HW222624   5.684   1.084   5.666  0.4630  0.2799 -0.1556
 7314SOL     OW22625   4.401   0.873   4.346 -0.2001  0.0735  0.1372
 7314SOL    HW122626   4.493   0.847   4.357 -0.5284 -1.1357  0.1389
 7314SOL    HW222627   4.396   0.905   4.256  0.5346  1.5991  0.5961
 7315SOL     OW22628   5.808   4.194   1.376  0.7487  0.0802  0.2328
 7315SOL    HW122629   5.772   4.216   1.462 -1.6635  2.4179 -1.2171
 7315SOL    HW222630   5.784   4.102   1.364  0.5053 -0.0876  1.7465
 7316SOL     OW22631   5.358   4.733   4.039  0.5673  0.2944  0.2888
 7316SOL    HW122632   5.399   4.818   4.052 -1.1516  1.2133 -0.0749
 7316SOL    HW222633   5.356   4.721   3.944  0.3144  0.0833  0.3189
 7317SOL     OW22634   6.134   5.568   5.843  0.1058  0.0890 -0.3195
 7317SOL    HW122635   6.054   5.556   5.791  0.4331 -1.1555 -0.5816
 7317SOL    HW222636   6.185   5.632   5.794 -1.0611  1.5246  0.2767
 7318SOL     OW22637   3.620   5.382   5.840  0.2090 -0.1246  0.0911
 7318SOL    HW122638   3.553   5.314   5.837 -0.3724  0.4721 -1.0255
 7318SOL    HW222639   3.667   5.365   5.922 -1.4767 -0.3898  1.0595
 7319SOL     OW22640   0.526   3.985   2.001 -0.1298  0.4102 -0.4103
 7319SOL    HW122641   0.476   4.066   1.994  1.8675  1.6215 -1.6618
 7319SOL    HW222642   0.495   3.930   1.929 -0.0248  0.9186 -0.8412
 7320SOL     OW22643   1.276   6.118   3.987 -0.4583 -0.4475 -0.2269
 7320SOL    HW122644   1.222   6.039   3.991  0.9588 -1.4160  1.2842
 7320SOL    HW222645   1.359   6.092   4.026  0.1583  1.7322  0.0535
 7321SOL     OW22646   2.032   0.074   3.528 -0.2534 -0.4673  0.1056
 7321SOL    HW122647   2.099   0.025   3.482  0.0267  0.3961 -0.4230
 7321SOL    HW222648   2.032   0.037   3.616  0.7529 -0.6301  0.0485
 7322SOL     OW22649   6.199   0.993   2.325  0.1343 -0.3693 -0.2180
 7322SOL    HW122650   6.125   1.048   2.349 -0.0202  0.2984 -2.0349
 7322SOL    HW222651   6.274   1.032   2.370 -0.4869 -0.6595  1.1057
 7323SOL     OW22652   6.028   2.871   0.554  0.6879 -0.4114 -0.2387
 7323SOL    HW122653   5.993   2.945   0.604  1.4615 -1.0041  1.2480
 7323SOL    HW222654   6.011   2.893   0.463 -1.9299  0.1473  0.3064
 7324SOL     OW22655   5.725   0.878   0.774  0.2988  0.0942  0.8608
 7324SOL    HW122656   5.645   0.850   0.731  1.3348 -1.6894 -0.0130
 7324SOL    HW222657   5.742   0.966   0.738  0.2521 -0.6767 -1.1865
 7325SOL     OW22658   0.228   4.966   3.886 -0.1616  0.2374  0.8435
 7325SOL    HW122659   0.169   4.894   3.904  1.0324 -0.3851  2.5278
 7325SOL    HW222660   0.274   4.940   3.806 -1.9603  0.6459 -0.3682
 7326SOL     OW22661   4.637   1.989   3.109  0.3025  0.1798 -0.3911
 7326SOL    HW122662   4.670   2.063   3.057  0.5957  0.8152  0.6738
 7326SOL    HW222663   4.705   1.974   3.175 -0.7123  0.3360  0.7215
 7327SOL     OW22664   0.364   2.643   2.862  0.0738  0.5478  0.1336
 7327SOL    HW122665   0.424   2.693   2.917 -0.2581  0.3163  0.7090
 7327SOL    HW222666   0.397   2.554   2.864 -0.5343  0.3288  0.8138
 7328SOL     OW22667   4.554   1.528   2.902 -0.2715  0.0283  0.3415
 7328SOL    HW122668   4.627   1.571   2.947  0.3500 -0.4959 -0.1442
 7328SOL    HW222669   4.574   1.434   2.909  0.2285 -0.0658 -1.5990
 7329SOL     OW22670   1.493   0.970   4.554  0.8137  0.5956 -0.1771
 7329SOL    HW122671   1.453   0.946   4.470  1.7907 -0.6763 -0.3046
 7329SOL    HW222672   1.572   0.917   4.559  1.0480  1.0420  1.3227
 7330SOL     OW22673   1.159   5.848   0.580 -0.0712 -0.4715 -0.4526
 7330SOL    HW122674   1.118   5.934   0.574  0.9292  0.1928  1.3192
 7330SOL    HW222675   1.185   5.841   0.672  0.5106 -2.3739 -0.7220
 7331SOL     OW22676   5.070   0.587   6.265  0.6801  0.3697  0.2122
 7331SOL    HW122677   4.983   0.548   6.262  0.8387 -0.1278  1.5192
 7331SOL    HW222678   5.063   0.656   6.331  0.8671  1.4211 -0.8332
 7332SOL     OW22679   0.034   4.336   5.598  0.2049  0.2133  0.4632
 7332SOL    HW122680   0.088   4.347   5.676  0.0444  0.2200  0.5732
 7332SOL    HW222681   0.010   4.243   5.599 -0.1797  0.3131  0.6728
 7333SOL     OW22682   5.286   1.039   1.141  0.5096  0.0207  0.7290
 7333SOL    HW122683   5.288   0.943   1.136  0.3486 -0.0266  1.4322
 7333SOL    HW222684   5.378   1.065   1.132  0.5857 -0.2194  0.7847
 7334SOL     OW22685   2.028   2.828   0.020 -0.4516  0.1964  0.9615
 7334SOL    HW122686   2.002   2.747  -0.024 -1.4617 -0.2869  2.3623
 7334SOL    HW222687   2.046   2.801   0.110  1.4100  1.1704  0.9168
 7335SOL     OW22688   4.405   1.585   1.354 -0.0508 -0.5268 -0.4269
 7335SOL    HW122689   4.345   1.648   1.313  0.8509 -0.6280 -1.9584
 7335SOL    HW222690   4.352   1.507   1.369 -0.7049 -0.0568 -0.2808
 7336SOL     OW22691   3.575   1.500   1.327  0.0573 -0.8131  0.7884
 7336SOL    HW122692   3.623   1.444   1.266  0.5656 -1.5699  1.8597
 7336SOL    HW222693   3.506   1.540   1.273  0.9567 -0.8635 -0.4443
 7337SOL     OW22694   1.908   1.028   4.158 -0.0792 -0.8013 -0.1295
 7337SOL    HW122695   1.977   1.045   4.094  1.0349 -0.2654  1.1868
 7337SOL    HW222696   1.900   1.110   4.207  0.3604 -1.7535  1.6034
 7338SOL     OW22697   0.859   4.279   3.439  0.1952  0.3117 -0.1896
 7338SOL    HW122698   0.782   4.322   3.477  0.0767  2.4135 -2.5175
 7338SOL    HW222699   0.933   4.330   3.473  0.5919 -1.2368  1.4387
 7339SOL     OW22700   2.854   2.253   2.225  0.2243  0.0436  0.0851
 7339SOL    HW122701   2.766   2.263   2.260 -0.2057  1.5514 -1.3168
 7339SOL    HW222702   2.910   2.299   2.288 -0.0227 -0.5708  0.7692
 7340SOL     OW22703   2.557   1.676   6.110  0.4592 -0.2227  0.3862
 7340SOL    HW122704   2.511   1.655   6.191 -0.6049 -0.0174 -0.1482
 7340SOL    HW222705   2.494   1.727   6.059  0.4019 -1.8993 -1.3474
 7341SOL     OW22706   3.773   5.322   0.715  0.3553  0.1463 -0.0867
 7341SOL    HW122707   3.698   5.269   0.742  1.0340 -1.9600 -1.9634
 7341SOL    HW222708   3.741   5.373   0.641  0.6888 -0.6211 -0.7752
 7342SOL     OW22709   3.658   0.761   0.539 -0.4831 -0.4805  0.5973
 7342SOL    HW122710   3.611   0.783   0.459 -0.9004 -0.7673  0.7601
 7342SOL    HW222711   3.655   0.841   0.592  1.4201  0.3381 -0.4278
 7343SOL     OW22712   6.364   6.437   5.592  0.8158 -0.4038  0.3371
 7343SOL    HW122713   6.329   6.526   5.585 -0.3896 -0.8140  0.9535
 7343SOL    HW222714   6.446   6.448   5.641 -0.6114  0.0863  2.7518
 7344SOL     OW22715   3.440   3.997   2.549  0.1242  0.1469 -0.0730
 7344SOL    HW122716   3.486   3.966   2.628  0.4377  0.4936 -0.1177
 7344SOL    HW222717   3.503   4.055   2.507 -0.6195  1.1889  0.2306
 7345SOL     OW22718   5.424   1.782   0.543  0.1594 -0.5416 -0.2604
 7345SOL    HW122719   5.453   1.731   0.468  0.7545  0.4441 -0.7184
 7345SOL    HW222720   5.337   1.814   0.518 -0.2021 -1.2882  0.0162
 7346SOL     OW22721   6.054   4.609   2.888 -0.3137  0.2159  0.6123
 7346SOL    HW122722   6.047   4.523   2.929  1.4517  0.6664  1.9583
 7346SOL    HW222723   5.976   4.615   2.833 -0.9247 -1.8783  1.1531
 7347SOL     OW22724   6.503   0.282   5.490 -0.5814  0.6312 -0.1180
 7347SOL    HW122725   6.551   0.201   5.475 -1.0903  0.5222 -1.2590
 7347SOL    HW222726   6.559   0.350   5.451 -0.4108  0.7743  0.3613
 7348SOL     OW22727   6.007   0.640   3.607  0.0095 -0.5490 -0.2577
 7348SOL    HW122728   5.918   0.605   3.597  0.3883 -1.0814 -2.1081
 7348SOL    HW222729   6.027   0.628   3.699 -2.0862  0.1949  0.3530
 7349SOL     OW22730   5.380   0.492   4.985  0.1986 -0.2196  0.3272
 7349SOL    HW122731   5.456   0.499   4.928  0.9784 -0.9490  1.2419
 7349SOL    HW222732   5.307   0.527   4.933  0.8069 -1.1563 -1.2331
 7350SOL     OW22733   4.441   2.415   4.136  0.1018 -0.4702  0.2472
 7350SOL    HW122734   4.400   2.394   4.052  0.5964 -1.4761  0.2297
 7350SOL    HW222735   4.377   2.467   4.183 -0.0213  0.4688 -0.9199
 7351SOL     OW22736   0.966   5.819   0.216 -0.2642 -0.0632 -0.3678
 7351SOL    HW122737   1.008   5.901   0.242  0.6784 -0.2593 -1.2081
 7351SOL    HW222738   1.037   5.764   0.184 -1.1666 -0.3350 -2.0353
 7352SOL     OW22739   0.859   0.440   5.555  0.0635 -0.0914 -0.2836
 7352SOL    HW122740   0.882   0.480   5.638  1.1192  0.1001 -0.6611
 7352SOL    HW222741   0.781   0.488   5.526  0.8855  1.2191 -0.3878
 7353SOL     OW22742   1.043   1.041   1.928  0.3927  0.1458 -0.3218
 7353SOL    HW122743   1.019   1.093   2.005  0.5871 -0.2245 -0.0082
 7353SOL    HW222744   1.006   1.089   1.854 -0.7210 -0.0484  0.0847
 7354SOL     OW22745   0.308   0.015   6.260 -0.0660 -0.0844 -0.0201
 7354SOL    HW122746   0.323  -0.074   6.231 -1.8531 -0.1397 -0.9391
 7354SOL    HW222747   0.227   0.010   6.312  0.0407  0.9210  0.2658
 7355SOL     OW22748   1.524   0.379   0.113 -0.3382 -0.3630  0.1750
 7355SOL    HW122749   1.573   0.433   0.053 -0.0937  0.9536  1.5036
 7355SOL    HW222750   1.574   0.381   0.195 -1.9314  0.0287  1.2007
 7356SOL     OW22751   4.989   6.432   2.987 -0.0372 -0.2955 -0.1530
 7356SOL    HW122752   5.078   6.405   3.007  0.3095  0.6018 -0.4341
 7356SOL    HW222753   4.996   6.480   2.904 -0.6336  0.5514  0.2665
 7357SOL     OW22754   3.680   2.175   2.080 -0.0203 -0.6472  0.0615
 7357SOL    HW122755   3.754   2.160   2.021  0.0618 -0.3078  0.0729
 7357SOL    HW222756   3.603   2.166   2.025  0.0906  1.1012 -0.4547
 7358SOL     OW22757   5.101   3.951   2.011 -0.2818 -0.1365  0.1163
 7358SOL    HW122758   5.179   3.898   2.026  1.2291  1.3164 -2.0981
 7358SOL    HW222759   5.036   3.888   1.977  0.4682 -1.0689  0.3646
 7359SOL     OW22760   5.214   3.109   1.431 -0.5164 -0.3787  0.1213
 7359SOL    HW122761   5.234   3.188   1.381 -0.2537  0.0221  0.8537
 7359SOL    HW222762   5.298   3.063   1.438 -0.4225 -0.1177  0.7371
 7360SOL     OW22763   2.752   0.500   5.811 -0.3620 -0.0014  0.1946
 7360SOL    HW122764   2.693   0.543   5.751  0.2966 -1.5488 -1.6722
 7360SOL    HW222765   2.825   0.561   5.821 -0.0957 -0.0356 -1.2818
 7361SOL     OW22766   2.106   0.250   4.906  0.0945 -0.5291  0.2972
 7361SOL    HW122767   2.147   0.214   4.984 -2.6433 -1.1550  1.5673
 7361SOL    HW222768   2.144   0.200   4.834  0.7850 -1.7471  1.4644
 7362SOL     OW22769   3.223   5.899   3.075 -0.4209 -0.4396  0.0065
 7362SOL    HW122770   3.277   5.964   3.031 -0.5024  0.5235  1.2616
 7362SOL    HW222771   3.136   5.910   3.039 -1.1134  2.1794  2.1479
 7363SOL     OW22772   2.603   5.330   3.339  0.1123 -0.6524 -0.3731
 7363SOL    HW122773   2.629   5.239   3.353  0.9746 -0.2994  0.4282
 7363SOL    HW222774   2.592   5.366   3.427 -2.2458 -0.5044 -0.6563
 7364SOL     OW22775   5.725   0.232   3.369 -0.2030 -0.3309 -0.0692
 7364SOL    HW122776   5.664   0.290   3.415 -0.7055 -1.8912  1.3326
 7364SOL    HW222777   5.733   0.270   3.281 -0.3529  1.9382  0.8318
 7365SOL     OW22778   0.252   0.316   4.888 -0.1115  0.0937  0.5939
 7365SOL    HW122779   0.209   0.326   4.973 -0.0143  0.0287  0.6513
 7365SOL    HW222780   0.253   0.404   4.850 -1.4368 -0.1201  0.0365
 7366SOL     OW22781   4.146   5.644   0.081 -0.0811 -0.2279 -0.2548
 7366SOL    HW122782   4.097   5.564   0.062 -0.5237 -0.6003  2.1255
 7366SOL    HW222783   4.079   5.712   0.086 -0.2252 -0.4374  1.3590
 7367SOL     OW22784   1.944   2.674   4.021 -0.1684  0.3297  0.1907
 7367SOL    HW122785   2.032   2.700   4.049 -0.1370  0.4910 -0.0645
 7367SOL    HW222786   1.945   2.684   3.926  0.0560 -1.1825 -0.0036
 7368SOL     OW22787   4.507   4.302   2.927  0.1112  0.1582 -0.1769
 7368SOL    HW122788   4.537   4.333   3.012  2.1424 -0.4168 -0.6351
 7368SOL    HW222789   4.581   4.255   2.890 -1.4223 -1.4969 -1.3710
 7369SOL     OW22790   3.301   0.877   4.122  0.4114  0.8047 -0.4089
 7369SOL    HW122791   3.210   0.885   4.094 -0.2226 -2.4575  0.3476
 7369SOL    HW222792   3.351   0.879   4.040 -0.5156  0.7593 -0.9983
 7370SOL     OW22793   5.358   6.347   0.153  0.1850  0.2836  0.1002
 7370SOL    HW122794   5.343   6.354   0.059 -0.5698 -0.1962  0.1778
 7370SOL    HW222795   5.295   6.281   0.183  1.1903 -0.4124  0.7577
 7371SOL     OW22796   4.387   3.722   5.777 -0.6963  0.1865 -0.1073
 7371SOL    HW122797   4.402   3.673   5.697  1.6523 -2.3532  1.6794
 7371SOL    HW222798   4.391   3.656   5.847 -1.5999  2.3850  2.1964
 7372SOL     OW22799   4.182   2.128   4.123 -0.1079 -0.3969  0.4270
 7372SOL    HW122800   4.236   2.080   4.185  1.4793 -0.1516 -0.7059
 7372SOL    HW222801   4.199   2.087   4.038 -1.5447 -0.1567 -0.0100
 7373SOL     OW22802   5.246   6.485   2.005  0.8918 -0.2467  0.1796
 7373SOL    HW122803   5.213   6.522   2.087  0.9749  0.2827 -0.0218
 7373SOL    HW222804   5.301   6.412   2.032  0.2664 -0.5849  0.5576
 7374SOL     OW22805   5.862   0.061   4.296 -0.5813 -0.2754 -0.0972
 7374SOL    HW122806   5.805   0.121   4.345 -0.0198 -1.0898  1.6406
 7374SOL    HW222807   5.907   0.117   4.232  1.8901  1.8312  3.1422
 7375SOL     OW22808   2.441   4.627   4.255  0.4558  0.1867  0.2588
 7375SOL    HW122809   2.366   4.581   4.291  0.9910  0.0765  1.2816
 7375SOL    HW222810   2.465   4.577   4.177 -2.1420  1.7335 -1.6999
 7376SOL     OW22811   0.865   5.626   3.655 -0.1756 -0.4947  0.0396
 7376SOL    HW122812   0.922   5.688   3.610 -0.4379 -1.6956 -2.1048
 7376SOL    HW222813   0.913   5.543   3.652 -0.8282 -0.9157  0.7716
 7377SOL     OW22814   4.615   1.195   4.482 -0.1494  0.2902  0.6275
 7377SOL    HW122815   4.661   1.234   4.557  0.1163  0.5145  0.3526
 7377SOL    HW222816   4.671   1.215   4.407 -0.2057 -0.2931  0.4268
 7378SOL     OW22817   4.369   1.688   4.135  0.0190  0.6780  0.2216
 7378SOL    HW122818   4.278   1.711   4.150 -0.8412 -0.8776 -2.1340
 7378SOL    HW222819   4.366   1.615   4.073  2.8045 -0.7354  1.5269
 7379SOL     OW22820   3.037   1.819   5.843  0.0731  0.0280 -0.0686
 7379SOL    HW122821   3.105   1.851   5.784  1.1556 -0.4650  0.8627
 7379SOL    HW222822   3.001   1.742   5.799 -0.5557  0.8204 -0.9906
 7380SOL     OW22823   6.300   3.925   5.437 -0.2650  0.5206  0.2306
 7380SOL    HW122824   6.346   3.976   5.504 -0.6819 -1.5541  2.2482
 7380SOL    HW222825   6.209   3.926   5.466 -0.1425 -2.1227  0.9739
 7381SOL     OW22826   5.654   4.444   3.837  0.0270 -0.3415  0.4481
 7381SOL    HW122827   5.714   4.485   3.900  1.3017 -1.7482  0.2233
 7381SOL    HW222828   5.624   4.365   3.882 -0.7819 -0.2377  0.1050
 7382SOL     OW22829   2.332   3.533   3.348  0.1633  0.1878 -0.2133
 7382SOL    HW122830   2.279   3.457   3.323 -0.0956  0.7298 -1.3986
 7382SOL    HW222831   2.273   3.585   3.404 -0.6298  0.8298 -1.5946
 7383SOL     OW22832   4.918   4.883   3.671  0.0606  0.6959 -0.8160
 7383SOL    HW122833   4.882   4.925   3.593 -0.4074 -0.5971 -1.3320
 7383SOL    HW222834   4.844   4.837   3.711  0.8594 -1.1534 -1.3304
 7384SOL     OW22835   5.725   1.670   3.024 -0.6575 -0.5089 -0.3166
 7384SOL    HW122836   5.741   1.751   2.976 -0.0637 -0.5407 -0.1768
 7384SOL    HW222837   5.812   1.637   3.045 -0.9076 -0.8310  0.2221
 7385SOL     OW22838   3.399   6.480   6.043 -0.5357  0.0491  0.3089
 7385SOL    HW122839   3.473   6.459   5.987  0.7394  0.9503  1.5863
 7385SOL    HW222840   3.356   6.553   6.000  1.2184  1.6221  1.1052
 7386SOL     OW22841   5.699   2.342   5.310  0.1569  0.1688  0.1994
 7386SOL    HW122842   5.721   2.269   5.253  0.7668  0.5441 -0.0567
 7386SOL    HW222843   5.606   2.330   5.331  0.2139 -0.5814  0.0304
 7387SOL     OW22844   0.366   4.269   2.077 -0.0586  0.3825  0.5124
 7387SOL    HW122845   0.309   4.224   2.015  1.4901 -0.6234 -0.2373
 7387SOL    HW222846   0.306   4.320   2.132 -1.7413 -1.2224  0.2652
 7388SOL     OW22847   5.228   2.861   4.102  0.1950 -0.0848  0.2652
 7388SOL    HW122848   5.186   2.836   4.019  0.8018 -0.7247  0.1406
 7388SOL    HW222849   5.161   2.912   4.147 -0.1613  0.2428 -0.5984
 7389SOL     OW22850   3.577   1.302   0.472 -0.4430 -0.7934 -0.1608
 7389SOL    HW122851   3.661   1.271   0.438  0.2111  0.1724  0.5211
 7389SOL    HW222852   3.529   1.330   0.394  1.1199  1.5906 -0.3622
 7390SOL     OW22853   0.304   4.258   4.653  0.1635  0.5106  0.1120
 7390SOL    HW122854   0.312   4.266   4.748 -2.3171 -2.0939  0.6778
 7390SOL    HW222855   0.237   4.323   4.630 -1.8212 -1.1522  0.8127
 7391SOL     OW22856   2.362   3.507   3.800  0.7065  0.4602  0.1717
 7391SOL    HW122857   2.398   3.574   3.858  0.4445  1.2195 -0.5111
 7391SOL    HW222858   2.434   3.446   3.785  1.0640  0.7930  0.5097
 7392SOL     OW22859   1.565   5.671   4.659  0.9044 -0.5101  0.1045
 7392SOL    HW122860   1.585   5.755   4.618  0.8569 -1.2425 -1.4779
 7392SOL    HW222861   1.472   5.676   4.679  0.7552 -0.4213 -0.5842
 7393SOL     OW22862   2.994   4.734   6.125 -0.0586  0.3215 -0.1394
 7393SOL    HW122863   2.913   4.737   6.074  0.8828  1.6650 -1.6401
 7393SOL    HW222864   3.019   4.826   6.136  1.2349 -0.0665  0.3557
 7394SOL     OW22865   2.877   1.759   4.417 -0.6633 -0.3392 -0.0770
 7394SOL    HW122866   2.904   1.836   4.366 -2.7479  1.2066  0.9718
 7394SOL    HW222867   2.922   1.686   4.375  2.0563  1.4900 -0.6833
 7395SOL     OW22868   1.060   5.327   4.840 -0.2880  0.4126 -0.0746
 7395SOL    HW122869   0.993   5.380   4.797 -0.8148 -1.5678 -1.9526
 7395SOL    HW222870   1.020   5.240   4.846  1.5095 -0.4329  0.2566
 7396SOL     OW22871   5.023   4.211   2.369 -0.0389  0.1470 -0.0311
 7396SOL    HW122872   4.960   4.172   2.310  0.5140 -1.4143  0.3654
 7396SOL    HW222873   5.108   4.196   2.327  0.2091  0.7944  0.2154
 7397SOL     OW22874   0.413   0.763   2.267  0.4345  0.1845 -0.1806
 7397SOL    HW122875   0.472   0.687   2.262  1.5795  0.9504  1.0597
 7397SOL    HW222876   0.327   0.725   2.284  1.2048 -0.8263  1.7649
 7398SOL     OW22877   1.064   3.746   4.498 -0.3106  0.3646  0.3765
 7398SOL    HW122878   1.017   3.711   4.422 -0.7651  0.3249  0.6702
 7398SOL    HW222879   1.009   3.817   4.530  0.1121  0.6902  0.3893
 7399SOL     OW22880   4.621   1.745   1.305 -0.4545 -0.3557 -0.1679
 7399SOL    HW122881   4.705   1.705   1.331 -0.7807 -1.7426 -1.1430
 7399SOL    HW222882   4.555   1.688   1.345 -0.9475  0.4265  0.1444
 7400SOL     OW22883   5.345   3.161   3.832  0.0921  0.0888  0.5092
 7400SOL    HW122884   5.314   3.148   3.743 -1.0926 -0.5345  0.9781
 7400SOL    HW222885   5.265   3.155   3.886  0.8735 -0.2854  1.6696
 7401SOL     OW22886   5.957   2.599   2.211 -0.3961  0.0642 -0.1970
 7401SOL    HW122887   6.009   2.626   2.287 -1.0585  1.6525 -0.2591
 7401SOL    HW222888   5.871   2.576   2.247 -0.4043 -0.1647 -0.3581
 7402SOL     OW22889   6.206   5.782   3.781 -0.7910  0.4297  0.0579
 7402SOL    HW122890   6.247   5.817   3.860 -1.0476  0.9262 -0.0248
 7402SOL    HW222891   6.117   5.758   3.808 -1.5812  2.4745 -0.5118
 7403SOL     OW22892   1.528   4.483   4.434  0.4749 -0.2658 -0.3397
 7403SOL    HW122893   1.532   4.572   4.398  0.2794  0.0524  0.4180
 7403SOL    HW222894   1.487   4.431   4.364 -0.1965  0.4083 -0.4659
 7404SOL     OW22895   5.061   6.214   6.224 -0.0328 -0.4444 -0.2863
 7404SOL    HW122896   5.101   6.140   6.178 -0.0394 -0.2539 -0.6061
 7404SOL    HW222897   5.052   6.282   6.156  1.5643  0.4813  0.3776
 7405SOL     OW22898   4.175   0.398   3.629  0.2115 -0.2555  0.2774
 7405SOL    HW122899   4.103   0.364   3.576 -0.0914  1.6178 -0.5960
 7405SOL    HW222900   4.241   0.425   3.565  1.2157 -0.8705  1.0229
 7406SOL     OW22901   2.164   6.295   4.971 -0.2450  0.2009  0.5136
 7406SOL    HW122902   2.177   6.202   4.986 -0.1514  0.2216  0.5615
 7406SOL    HW222903   2.235   6.320   4.911 -0.8930  0.0223 -0.3307
 7407SOL     OW22904   5.532   0.251   0.751  0.2169  1.0047 -0.1497
 7407SOL    HW122905   5.497   0.339   0.741 -0.3493  0.8413  0.3694
 7407SOL    HW222906   5.597   0.243   0.680 -1.1444  1.1369 -1.4550
 7408SOL     OW22907   6.203   2.914   4.658  0.0218  0.0231 -0.1554
 7408SOL    HW122908   6.222   2.864   4.579 -2.7782 -2.6847  0.6889
 7408SOL    HW222909   6.283   2.905   4.711  0.9961 -0.2749 -1.6046
 7409SOL     OW22910   5.273   0.395   5.583 -0.0743  0.3180  0.3342
 7409SOL    HW122911   5.310   0.479   5.555 -0.7263  0.8226  0.9404
 7409SOL    HW222912   5.179   0.413   5.595 -0.2052 -0.4770  0.5505
 7410SOL     OW22913   5.011   0.452   5.907 -0.0265  0.1205  0.0485
 7410SOL    HW122914   4.994   0.425   5.817  1.3990  1.5051 -0.6865
 7410SOL    HW222915   4.929   0.494   5.935 -0.7000 -0.8936 -0.3384
 7411SOL     OW22916   1.916   2.621   4.290  0.1606  0.7117 -0.2310
 7411SOL    HW122917   1.907   2.621   4.195  1.9010  0.5137 -0.4261
 7411SOL    HW222918   1.991   2.563   4.307 -0.0939  0.7793  1.2605
 7412SOL     OW22919   3.311   0.599   4.068  0.1306  0.3708 -0.6863
 7412SOL    HW122920   3.377   0.590   3.999  1.2558 -0.0821  0.4223
 7412SOL    HW222921   3.309   0.692   4.087 -1.0418  0.6685 -2.1234
 7413SOL     OW22922   0.936   2.791   0.870 -0.3165 -0.1387 -0.5409
 7413SOL    HW122923   1.030   2.781   0.882 -0.4837 -0.0305  1.0415
 7413SOL    HW222924   0.922   2.886   0.866 -0.4353 -0.1300  0.0099
 7414SOL     OW22925   2.627   2.813   1.745 -0.3751  0.3811  0.4007
 7414SOL    HW122926   2.552   2.872   1.731  0.1218  0.7724 -0.8179
 7414SOL    HW222927   2.636   2.767   1.662  0.4366 -0.0233  0.7088
 7415SOL     OW22928   4.076   5.523   3.874  0.0680  0.4088 -0.3361
 7415SOL    HW122929   4.078   5.540   3.779  0.5838  0.4093 -0.3313
 7415SOL    HW222930   4.158   5.475   3.890  0.2491  0.8970  0.2003
 7416SOL     OW22931   5.255   0.082   3.728  0.3138  0.5716  0.1156
 7416SOL    HW122932   5.202   0.005   3.747 -1.9432  2.6279  3.1542
 7416SOL    HW222933   5.345   0.054   3.745 -0.1216 -1.8905 -1.0753
 7417SOL     OW22934   4.944   5.521   1.233  0.3767  0.5213 -0.8260
 7417SOL    HW122935   4.881   5.522   1.162  1.3141 -0.6930 -1.7243
 7417SOL    HW222936   5.014   5.581   1.205 -0.3561  1.9347  0.2036
 7418SOL     OW22937   2.772   2.070   3.653  0.2105 -0.7266  0.1236
 7418SOL    HW122938   2.812   1.985   3.669 -0.7969 -1.2052  0.1712
 7418SOL    HW222939   2.723   2.089   3.733  1.0751  0.2879  0.4400
 7419SOL     OW22940   3.024   3.634   0.832 -1.1931  0.6350 -0.0988
 7419SOL    HW122941   3.076   3.637   0.752 -1.7370 -1.0601 -0.5705
 7419SOL    HW222942   3.024   3.724   0.864  1.3572  0.8518 -0.4774
 7420SOL     OW22943   0.887   0.083   4.956  0.1402 -0.4155 -0.0102
 7420SOL    HW122944   0.825   0.021   4.994 -1.6551  0.9159 -0.6729
 7420SOL    HW222945   0.875   0.075   4.862  0.3582  0.4698 -0.1220
 7421SOL     OW22946   0.223   4.251   3.326  0.3720  0.2892  0.3405
 7421SOL    HW122947   0.141   4.296   3.343 -0.4055 -0.4587 -1.2071
 7421SOL    HW222948   0.248   4.279   3.238  1.5174  0.0948  0.5790
 7422SOL     OW22949   2.846   1.824   5.145 -0.0900  0.4469 -0.4561
 7422SOL    HW122950   2.807   1.907   5.172 -0.1777  0.6531 -1.2043
 7422SOL    HW222951   2.923   1.815   5.201 -1.6591 -0.4098  1.7086
 7423SOL     OW22952   1.191   2.116   6.050 -0.2610  0.0378 -0.0301
 7423SOL    HW122953   1.189   2.208   6.022  2.2142  0.5491  1.2001
 7423SOL    HW222954   1.157   2.118   6.140  0.2743 -0.1533  0.1809
 7424SOL     OW22955   0.509   2.945   3.260 -0.0531  0.0391 -0.2955
 7424SOL    HW122956   0.515   3.028   3.308  0.7572 -0.5052  0.5809
 7424SOL    HW222957   0.484   2.881   3.326 -1.8361 -0.2396 -1.1955
 7425SOL     OW22958   3.774   5.214   3.946 -0.1940  0.0923  0.2070
 7425SOL    HW122959   3.852   5.183   3.994  0.6727  0.8129 -0.6858
 7425SOL    HW222960   3.754   5.144   3.885  1.2509  0.8634 -1.2289
 7426SOL     OW22961   2.033   4.131   3.816  0.4479  0.1434 -0.7881
 7426SOL    HW122962   2.098   4.077   3.772  0.2855 -0.9392  0.2536
 7426SOL    HW222963   2.051   4.220   3.786  2.4910 -0.1004 -0.4248
 7427SOL     OW22964   0.891   4.742   4.909 -0.2618 -0.1998  0.3194
 7427SOL    HW122965   0.915   4.759   5.000 -1.4283  1.9979  0.2882
 7427SOL    HW222966   0.881   4.829   4.870  1.4924 -1.0695 -2.3061
 7428SOL     OW22967   0.638   5.123   6.188 -0.0917 -0.1806 -0.1876
 7428SOL    HW122968   0.710   5.104   6.248  0.3598  0.8726 -0.3625
 7428SOL    HW222969   0.562   5.134   6.245  0.0061 -0.7035  0.0504
 7429SOL     OW22970   2.172   4.965   1.769 -0.1836 -0.2901  0.2200
 7429SOL    HW122971   2.167   5.013   1.852  0.1914  1.6607 -0.8309
 7429SOL    HW222972   2.081   4.955   1.742 -0.3112 -0.9902  0.8858
 7430SOL     OW22973   4.120   3.953   1.894  0.3931 -0.2118  0.7342
 7430SOL    HW122974   4.059   4.018   1.859  0.6940 -0.3261 -0.0249
 7430SOL    HW222975   4.198   3.961   1.839  1.1393  0.0445  1.7965
 7431SOL     OW22976   0.303   0.628   2.032 -1.0983 -1.0046  0.3047
 7431SOL    HW122977   0.332   0.543   2.065 -1.8687 -1.2858  0.2739
 7431SOL    HW222978   0.248   0.608   1.957 -0.6126 -0.4353 -0.2156
 7432SOL     OW22979   3.102   5.459   3.601  0.4042  0.4477 -0.6183
 7432SOL    HW122980   3.114   5.549   3.568  0.0204  1.5849  2.0944
 7432SOL    HW222981   3.026   5.426   3.554 -0.8745  2.4352 -0.0621
 7433SOL     OW22982   2.170   4.433   4.026 -0.0753  0.3371  0.2220
 7433SOL    HW122983   2.169   4.432   4.122  1.5992 -0.4807  0.2601
 7433SOL    HW222984   2.241   4.374   4.002 -0.1054  0.9584 -1.5277
 7434SOL     OW22985   1.215   0.682   2.721  0.1189 -0.7940 -0.1499
 7434SOL    HW122986   1.223   0.591   2.751 -1.3804 -0.3591  1.7757
 7434SOL    HW222987   1.134   0.684   2.671 -1.3078 -0.0543  2.0460
 7435SOL     OW22988   1.604   2.751   3.679 -0.6082  0.2087 -0.4633
 7435SOL    HW122989   1.556   2.698   3.744  0.4810  2.5994  2.5547
 7435SOL    HW222990   1.694   2.721   3.687 -0.5907 -0.0276 -1.5149
 7436SOL     OW22991   3.911   2.632   5.444 -0.2696 -0.3482 -0.3057
 7436SOL    HW122992   3.938   2.605   5.356  3.1481 -1.4249  0.9048
 7436SOL    HW222993   3.947   2.720   5.454 -0.6515 -0.2261  0.0262
 7437SOL     OW22994   5.876   2.431   1.758 -0.1248 -0.0541  0.2471
 7437SOL    HW122995   5.901   2.409   1.847  3.4340 -0.9901 -0.7960
 7437SOL    HW222996   5.790   2.391   1.745 -0.6550 -0.0128  3.1284
 7438SOL     OW22997   1.035   5.602   6.101 -0.1122  0.5002 -0.7400
 7438SOL    HW122998   1.073   5.680   6.140 -0.6927  0.0402  0.8089
 7438SOL    HW222999   1.099   5.532   6.118 -0.5974  0.1924 -0.1151
 7439SOL     OW23000   1.504   4.590   0.142  0.2585 -0.4022 -0.1009
 7439SOL    HW123001   1.522   4.509   0.096 -1.3323 -0.6953 -0.2738
 7439SOL    HW223002   1.519   4.659   0.077 -0.3832 -0.7051 -0.5788
 7440SOL     OW23003   2.534   6.422   5.783  0.0342 -0.0803  0.0876
 7440SOL    HW123004   2.539   6.470   5.701 -1.3657  2.3301  1.2896
 7440SOL    HW223005   2.444   6.390   5.787 -0.0507  0.2300  0.8814
 7441SOL     OW23006   5.517   6.017   1.937 -0.5576  0.1255  0.6318
 7441SOL    HW123007   5.494   5.940   1.886  1.0405  0.3655 -0.5135
 7441SOL    HW223008   5.609   6.004   1.960 -0.2878  1.6286  0.5067
 7442SOL     OW23009   4.383   5.286   0.095  0.0965  0.1315 -0.2843
 7442SOL    HW123010   4.473   5.317   0.095  0.0197  0.3666 -0.7332
 7442SOL    HW223011   4.389   5.191   0.085  0.2676  0.3133 -2.6455
 7443SOL     OW23012   1.106   3.509   5.134 -0.3336 -0.1743  0.3797
 7443SOL    HW123013   1.025   3.474   5.172 -0.3856  0.4715  0.8932
 7443SOL    HW223014   1.090   3.603   5.128  0.0759 -0.1398 -0.2884
 7444SOL     OW23015   4.630   2.352   5.820 -0.1571  0.0006 -0.2339
 7444SOL    HW123016   4.603   2.395   5.739  0.3127 -0.4038 -0.6149
 7444SOL    HW223017   4.725   2.365   5.822  0.2080 -2.1941 -1.0745
 7445SOL     OW23018   3.788   0.060   2.198  0.9715  0.1340 -0.4460
 7445SOL    HW123019   3.811   0.150   2.222  1.8646  0.5221 -2.5285
 7445SOL    HW223020   3.870   0.022   2.166 -0.0073 -0.3406 -2.6114
 7446SOL     OW23021   3.877   1.850   2.919 -0.3277  0.4762  0.0387
 7446SOL    HW123022   3.925   1.854   2.836 -0.6122 -0.9265 -0.2056
 7446SOL    HW223023   3.821   1.928   2.917  0.7433  1.2676 -0.3936
 7447SOL     OW23024   6.514   6.403   2.644  0.2438 -0.0880 -0.1178
 7447SOL    HW123025   6.456   6.327   2.636  1.5258 -1.0720 -0.3144
 7447SOL    HW223026   6.472   6.459   2.710 -0.2433 -1.4098  0.7160
 7448SOL     OW23027   6.148   3.993   6.341  0.6806  0.2699 -0.2118
 7448SOL    HW123028   6.155   4.050   6.265  0.7356  0.6807  0.0983
 7448SOL    HW223029   6.073   3.937   6.322  2.4819 -1.7468 -1.9550
 7449SOL     OW23030   1.371   3.921   4.246  0.4833  0.1239 -0.6243
 7449SOL    HW123031   1.285   3.878   4.241  1.5318 -2.8429  3.0586
 7449SOL    HW223032   1.422   3.880   4.177 -0.0888 -0.6440 -0.6076
 7450SOL     OW23033   2.453   2.975   4.513 -0.5284 -0.1859  0.5644
 7450SOL    HW123034   2.528   2.968   4.454 -0.3462  1.5585  0.5351
 7450SOL    HW223035   2.400   3.046   4.476 -2.1594 -1.3046  0.6542
 7451SOL     OW23036   1.876   5.484   0.731 -0.5265 -0.1370  0.1140
 7451SOL    HW123037   1.830   5.440   0.803  1.4245  0.8873  2.0897
 7451SOL    HW223038   1.968   5.459   0.742 -0.0715  0.6570 -1.5969
 7452SOL     OW23039   3.560   1.549   5.565  0.5312 -0.1321 -0.3182
 7452SOL    HW123040   3.478   1.515   5.600  0.0651 -1.1233 -2.2852
 7452SOL    HW223041   3.544   1.642   5.551 -0.0671 -0.2161 -0.2076
 7453SOL     OW23042   1.225   2.729   0.894  0.1222  0.7126  0.4297
 7453SOL    HW123043   1.310   2.720   0.936  0.8276 -0.8757 -1.2066
 7453SOL    HW223044   1.224   2.662   0.826 -2.0462  1.3541 -0.2730
 7454SOL     OW23045   2.274   5.362   3.462 -0.3065  0.0513  0.1439
 7454SOL    HW123046   2.363   5.379   3.493 -0.1850  2.9479 -1.4470
 7454SOL    HW223047   2.276   5.385   3.369 -2.6730  0.0328  0.0179
 7455SOL     OW23048   5.072   5.281   4.611 -0.7464  0.6903  0.1043
 7455SOL    HW123049   5.087   5.243   4.698 -0.0600  1.4727  0.3406
 7455SOL    HW223050   5.077   5.375   4.625 -1.6415  0.8544 -0.6208
 7456SOL     OW23051   1.834   0.955   0.477  0.0480  0.0581  0.1856
 7456SOL    HW123052   1.833   1.042   0.518  1.5309  0.6212 -0.8602
 7456SOL    HW223053   1.870   0.971   0.390  0.8387 -1.6734  0.1580
 7457SOL     OW23054   5.817   2.928   6.111 -0.1256  0.3014  0.2662
 7457SOL    HW123055   5.770   2.989   6.054 -0.5584 -0.2976 -0.0281
 7457SOL    HW223056   5.904   2.922   6.073  0.2094  1.4056  0.8041
 7458SOL     OW23057   1.056   0.880   1.724 -0.3475  0.3623 -0.2615
 7458SOL    HW123058   1.083   0.952   1.668  0.1117  0.7687  0.4583
 7458SOL    HW223059   1.049   0.919   1.811 -0.7770 -0.3119  0.0138
 7459SOL     OW23060   0.829   6.369   3.392 -0.2802 -0.0241  0.0831
 7459SOL    HW123061   0.881   6.445   3.421  0.4594 -0.5749  0.2114
 7459SOL    HW223062   0.840   6.305   3.462 -0.3602 -0.5101 -0.3508
 7460SOL     OW23063   4.021   0.374   0.316 -0.0380  0.4605  0.6605
 7460SOL    HW123064   3.927   0.388   0.301  0.0903 -0.1518 -0.8935
 7460SOL    HW223065   4.026   0.333   0.402 -1.3557 -1.0491  0.0623
 7461SOL     OW23066   4.653   0.391   5.303  0.2170  0.2371  0.1406
 7461SOL    HW123067   4.577   0.337   5.280  1.2122 -1.2498  0.1827
 7461SOL    HW223068   4.727   0.345   5.264  1.0607  1.9199 -0.3209
 7462SOL     OW23069   5.529   3.844   3.138 -0.0958 -0.3970 -0.9665
 7462SOL    HW123070   5.610   3.893   3.149  0.1631 -0.1630 -3.5054
 7462SOL    HW223071   5.502   3.823   3.228  2.3170  0.1991 -0.0284
 7463SOL     OW23072   3.553   1.887   4.722 -0.2625  0.4055  0.3941
 7463SOL    HW123073   3.516   1.908   4.636  0.5385 -0.5535 -0.2000
 7463SOL    HW223074   3.570   1.793   4.719  0.5434  0.5056  1.2911
 7464SOL     OW23075   0.338   0.300   0.441 -0.3359  0.2324  0.3241
 7464SOL    HW123076   0.397   0.333   0.374  1.7743 -1.1365  1.3683
 7464SOL    HW223077   0.384   0.315   0.524 -1.5477 -0.6884  1.2202
 7465SOL     OW23078   0.942   4.876   1.914  0.2967 -0.3053  0.1967
 7465SOL    HW123079   0.860   4.915   1.886 -0.3692  1.4436  3.9223
 7465SOL    HW223080   1.009   4.920   1.862 -0.8513  2.0224  0.5446
 7466SOL     OW23081   5.385   0.483   0.823  0.4842  0.5841  0.0472
 7466SOL    HW123082   5.421   0.540   0.891 -1.3624 -0.7000  2.2366
 7466SOL    HW223083   5.293   0.471   0.847  0.5153 -2.4168 -0.9031
 7467SOL     OW23084   4.279   3.369   0.986  0.5772 -0.9077 -0.4954
 7467SOL    HW123085   4.311   3.401   1.071  2.6157 -1.0115 -1.1592
 7467SOL    HW223086   4.213   3.432   0.960 -0.9497 -1.4955  1.6668
 7468SOL     OW23087   1.424   5.960   5.191 -0.3934 -0.7957  0.3601
 7468SOL    HW123088   1.494   5.926   5.248 -0.5304 -2.3348 -0.3441
 7468SOL    HW223089   1.346   5.959   5.247  0.1445  1.2817  1.2685
 7469SOL     OW23090   5.899   2.978   2.404  0.6029 -0.0025 -0.6738
 7469SOL    HW123091   5.894   2.940   2.492  0.8821 -1.0394 -1.0928
 7469SOL    HW223092   5.837   3.052   2.407 -0.2004 -0.6769  0.0767
 7470SOL     OW23093   2.144   2.725   4.922  0.1385  0.1587  0.4102
 7470SOL    HW123094   2.196   2.650   4.891  2.3402  0.9734  1.8951
 7470SOL    HW223095   2.106   2.696   5.005 -1.5072 -0.2776 -0.4545
 7471SOL     OW23096   3.337   0.737   3.733  0.3831 -0.1594 -0.5945
 7471SOL    HW123097   3.351   0.736   3.639 -0.6402  0.0301 -0.7541
 7471SOL    HW223098   3.417   0.699   3.769  1.8100  1.9018 -1.3895
 7472SOL     OW23099   2.568   3.645   5.324 -0.1107 -0.0366  0.4959
 7472SOL    HW123100   2.520   3.577   5.278 -0.2252 -0.8586  1.7786
 7472SOL    HW223101   2.533   3.727   5.290 -0.0272 -0.6061 -1.0190
 7473SOL     OW23102   4.300   2.900   2.628  0.0549 -0.3473 -0.2043
 7473SOL    HW123103   4.365   2.936   2.688 -0.7751  0.0674  0.4578
 7473SOL    HW223104   4.274   2.817   2.668  1.7865 -1.6404 -1.6038
 7474SOL     OW23105   1.788   2.790   0.905  0.3511  0.7016 -0.1377
 7474SOL    HW123106   1.791   2.833   0.820  1.2408  0.2535 -0.3404
 7474SOL    HW223107   1.813   2.699   0.888 -0.6696  0.2972  0.4151
 7475SOL     OW23108   5.796   0.444   0.912 -0.1453  0.6045 -0.2003
 7475SOL    HW123109   5.820   0.481   0.827 -0.5370  1.3631  0.0100
 7475SOL    HW223110   5.875   0.451   0.965  0.7976 -1.8904 -1.1364
 7476SOL     OW23111   0.158   2.866   2.384  0.7185  0.2360  0.4001
 7476SOL    HW123112   0.124   2.878   2.473 -1.1141 -0.2172 -0.2035
 7476SOL    HW223113   0.239   2.816   2.396 -0.3803 -1.3524  1.7190
 7477SOL     OW23114   5.204   4.959   0.011 -0.3133  0.1745  0.5712
 7477SOL    HW123115   5.146   5.023   0.050 -1.6981 -0.1351 -0.8711
 7477SOL    HW223116   5.292   4.998   0.017 -1.0165  1.8486  0.4193
 7478SOL     OW23117   4.964   5.948   2.280 -0.0666 -0.1445 -0.1670
 7478SOL    HW123118   4.978   5.890   2.206 -0.4422  0.4092 -0.6760
 7478SOL    HW223119   4.998   5.899   2.355  1.1654 -0.3404 -0.8280
 7479SOL     OW23120   3.165   2.192   1.498 -0.1169  0.5563  0.3887
 7479SOL    HW123121   3.100   2.261   1.513 -0.5706  0.3601 -0.5797
 7479SOL    HW223122   3.242   2.221   1.547 -0.3369  1.7001  0.0909
 7480SOL     OW23123   4.939   0.257   0.172 -0.7141  0.7511 -0.0452
 7480SOL    HW123124   4.865   0.312   0.145 -0.7277  0.7751  0.0394
 7480SOL    HW223125   4.899   0.189   0.226 -0.5854  1.2113  0.6515
 7481SOL     OW23126   4.935   5.033   5.557  0.2173 -0.2793 -0.6659
 7481SOL    HW123127   4.906   5.123   5.575  0.5689 -0.2836 -0.0587
 7481SOL    HW223128   4.878   5.004   5.486  0.1976  0.4806 -0.9757
 7482SOL     OW23129   0.331   2.421   1.709  0.2385 -0.0217  0.1818
 7482SOL    HW123130   0.259   2.370   1.672  2.0955 -1.1739 -2.0331
 7482SOL    HW223131   0.331   2.503   1.659  0.0656  0.2790  0.6624
 7483SOL     OW23132   0.284   4.206   4.024 -0.4211  0.1882  0.3521
 7483SOL    HW123133   0.195   4.212   4.059 -0.5598  0.0410  0.0269
 7483SOL    HW223134   0.288   4.119   3.984 -1.1439  1.3278 -2.4196
 7484SOL     OW23135   2.820   5.601   1.021  0.6688  0.4590  0.1383
 7484SOL    HW123136   2.764   5.534   0.981  1.4948 -0.1379 -0.0453
 7484SOL    HW223137   2.891   5.551   1.062  1.5997  1.2462 -0.4682
 7485SOL     OW23138   0.452   3.501   6.103  0.0348  0.2631  0.1124
 7485SOL    HW123139   0.366   3.492   6.145 -0.4631 -0.2550 -0.9899
 7485SOL    HW223140   0.502   3.556   6.163 -0.1832 -1.5757  2.1019
 7486SOL     OW23141   2.216   0.165   1.973  0.0263 -0.4762  1.0126
 7486SOL    HW123142   2.294   0.111   1.961 -1.0057 -1.6150 -1.0367
 7486SOL    HW223143   2.224   0.234   1.907 -0.3703 -0.1761  1.2700
 7487SOL     OW23144   2.930   2.261   0.222 -0.0568  0.4952  0.0697
 7487SOL    HW123145   3.003   2.275   0.282 -2.4776  1.8959  2.9689
 7487SOL    HW223146   2.925   2.343   0.172 -0.5395  1.0581  1.0027
 7488SOL     OW23147   0.522   4.197   1.217 -0.3452 -0.6321 -0.4141
 7488SOL    HW123148   0.516   4.289   1.245  1.2437 -0.8120  0.6636
 7488SOL    HW223149   0.446   4.155   1.255 -1.2455  0.2711 -1.1470
 7489SOL     OW23150   0.935   2.003   1.188 -0.0172  0.0974  0.0033
 7489SOL    HW123151   1.015   1.982   1.236 -0.7565 -0.1247  1.1863
 7489SOL    HW223152   0.942   1.953   1.107  0.7419 -0.4322  0.3831
 7490SOL     OW23153   4.397   1.065   0.987 -0.6223  0.1913 -0.2686
 7490SOL    HW123154   4.457   0.998   0.956  0.8694  0.7981  1.2008
 7490SOL    HW223155   4.372   1.113   0.908 -0.5909 -1.1650 -1.1368
 7491SOL     OW23156   5.201   1.324   1.944  0.0585  0.5136  0.2976
 7491SOL    HW123157   5.151   1.360   1.871 -1.0233  2.2101  1.7981
 7491SOL    HW223158   5.169   1.370   2.021  1.5727 -0.7832  1.8034
 7492SOL     OW23159   5.876   4.362   2.524  0.2833 -0.0267 -0.3423
 7492SOL    HW123160   5.964   4.349   2.559  0.1471 -2.3210 -0.6903
 7492SOL    HW223161   5.828   4.404   2.595  1.1411 -0.6068  0.6166
 7493SOL     OW23162   1.136   4.430   5.295 -0.3990 -0.5782  0.1564
 7493SOL    HW123163   1.070   4.368   5.263 -1.7352  0.6102  0.4586
 7493SOL    HW223164   1.142   4.413   5.389 -2.5523  1.2218  0.7106
 7494SOL     OW23165   4.194   3.136   6.037  0.3850 -0.0329 -0.0468
 7494SOL    HW123166   4.113   3.085   6.045 -0.3897  1.3340  1.1472
 7494SOL    HW223167   4.251   3.080   5.984 -0.9621 -1.4730 -0.0715
 7495SOL     OW23168   5.121   5.460   3.001  0.0262 -0.3460 -0.0172
 7495SOL    HW123169   5.167   5.401   3.060 -2.2126  1.0121  3.4517
 7495SOL    HW223170   5.085   5.528   3.059 -2.0879  1.3665 -3.0423
 7496SOL     OW23171   1.256   0.500   0.870  1.0121 -0.0360 -0.1674
 7496SOL    HW123172   1.183   0.499   0.808  1.2193  0.1263 -0.4179
 7496SOL    HW223173   1.222   0.457   0.949  0.0029  1.8310  0.4630
 7497SOL     OW23174   6.293   4.578   3.447  0.2644  0.0089 -0.8604
 7497SOL    HW123175   6.311   4.667   3.478  0.2521 -0.1519 -0.3717
 7497SOL    HW223176   6.248   4.590   3.364 -0.7419  0.4902 -0.2710
 7498SOL     OW23177   3.574   4.971   6.505 -0.3516 -0.4059 -0.3581
 7498SOL    HW123178   3.566   4.917   6.584 -1.0779 -0.1092 -0.2216
 7498SOL    HW223179   3.606   5.055   6.537 -1.4457 -0.0185 -0.2674
 7499SOL     OW23180   0.861   1.155   5.699  0.6665  0.0842 -0.2707
 7499SOL    HW123181   0.766   1.145   5.689  0.7823 -1.5730 -0.0297
 7499SOL    HW223182   0.888   1.204   5.621 -0.3436  0.3174 -0.4968
 7500SOL     OW23183   2.961   2.801   4.995 -0.2702  0.1687 -0.1953
 7500SOL    HW123184   2.965   2.736   4.925  0.0751  0.2224 -0.2300
 7500SOL    HW223185   3.052   2.810   5.025 -0.1995  1.1186 -0.6435
 7501SOL     OW23186   2.161   6.004   4.975  0.3471  0.1882 -0.1304
 7501SOL    HW123187   2.183   5.928   4.921  0.6616 -0.7976  1.3317
 7501SOL    HW223188   2.076   5.983   5.013  0.0318  0.9650 -0.3841
 7502SOL     OW23189   3.739   5.804   3.461  0.4332 -0.3149 -0.4173
 7502SOL    HW123190   3.769   5.831   3.548 -0.6650 -1.3634  0.3225
 7502SOL    HW223191   3.678   5.733   3.478 -0.3984 -0.0316 -2.0134
 7503SOL     OW23192   2.280   4.338   3.400  0.3537  0.2646  0.3575
 7503SOL    HW123193   2.318   4.426   3.392  3.9285 -1.3227 -3.2284
 7503SOL    HW223194   2.335   4.294   3.465  0.4058 -0.1537  0.0314
 7504SOL     OW23195   4.088   5.601   3.611  0.2546  0.0412  0.0294
 7504SOL    HW123196   4.115   5.540   3.542  1.0346  0.8297 -0.3801
 7504SOL    HW223197   4.132   5.683   3.589  0.1960  0.4196  1.2558
 7505SOL     OW23198   0.568   5.364   5.336  0.1998  0.9430 -0.0277
 7505SOL    HW123199   0.636   5.308   5.297 -1.1943 -0.3884 -0.6490
 7505SOL    HW223200   0.514   5.303   5.386  0.2860  2.2124  1.6689
 7506SOL     OW23201   1.078   0.335   6.327  0.1828  0.1510  0.0231
 7506SOL    HW123202   1.172   0.353   6.338  0.0503 -0.2670  2.2624
 7506SOL    HW223203   1.067   0.247   6.362 -0.9490 -0.1477 -1.0111
 7507SOL     OW23204   4.147   3.918   0.938  0.9024 -0.2497  0.1125
 7507SOL    HW123205   4.226   3.967   0.960  0.5850  0.6348 -0.6837
 7507SOL    HW223206   4.092   3.980   0.892  0.3682 -1.2776 -0.6757
 7508SOL     OW23207   3.540   1.840   5.541  0.3338  0.7793  1.1205
 7508SOL    HW123208   3.529   1.930   5.508  1.3667  1.3315  2.1957
 7508SOL    HW223209   3.613   1.847   5.602  0.6562 -0.8808  0.9534
 7509SOL     OW23210   1.321   4.471   1.295 -0.4045 -0.1673  0.3276
 7509SOL    HW123211   1.350   4.406   1.359  0.4307  0.4394  0.5789
 7509SOL    HW223212   1.357   4.554   1.326 -0.3662  0.2114 -0.6832
 7510SOL     OW23213   1.984   3.664   1.805  0.0717  0.2483 -0.2056
 7510SOL    HW123214   1.891   3.681   1.788  0.3078  1.3015 -0.5361
 7510SOL    HW223215   1.988   3.641   1.898 -0.4993  0.4253 -0.1337
 7511SOL     OW23216   3.865   1.294   3.400 -0.5214  0.8113  0.5242
 7511SOL    HW123217   3.919   1.231   3.448 -0.8495 -0.1547 -0.3390
 7511SOL    HW223218   3.776   1.278   3.431 -0.5204  1.3661  0.8340
 7512SOL     OW23219   5.063   4.507   4.520 -0.6641  0.6446  0.5304
 7512SOL    HW123220   4.971   4.487   4.537 -1.1201  0.9958 -1.2515
 7512SOL    HW223221   5.080   4.468   4.434  1.1448 -0.2601  1.2614
 7513SOL     OW23222   5.455   5.101   3.460  0.1174  0.0092  0.3216
 7513SOL    HW123223   5.527   5.087   3.398 -0.4560 -2.0217  0.0489
 7513SOL    HW223224   5.406   5.174   3.422  0.6424 -0.1916 -0.8029
 7514SOL     OW23225   5.635   3.545   5.417  0.2160 -0.6079  0.3024
 7514SOL    HW123226   5.709   3.555   5.477 -0.9418 -0.2441  1.7299
 7514SOL    HW223227   5.657   3.467   5.366  2.6079  0.7300 -0.9119
 7515SOL     OW23228   4.926   1.372   1.307 -0.3109 -0.2940  0.2817
 7515SOL    HW123229   4.835   1.362   1.337  0.0687 -0.4731  1.3976
 7515SOL    HW223230   4.921   1.360   1.212 -1.5952  0.6327  0.2012
 7516SOL     OW23231   5.887   1.986   0.690 -0.2683 -0.3332 -0.6042
 7516SOL    HW123232   5.829   2.061   0.676  1.3928  0.8728 -1.3269
 7516SOL    HW223233   5.925   2.001   0.776 -1.0822 -1.2049 -0.0648
 7517SOL     OW23234   3.903   3.213   0.971 -0.2957 -0.2571 -0.1536
 7517SOL    HW123235   3.826   3.188   1.022 -0.7613 -2.8984 -1.9349
 7517SOL    HW223236   3.868   3.249   0.890  0.3721 -0.3579 -0.4928
 7518SOL     OW23237   5.406   3.966   3.952  0.1547  0.0787 -0.0933
 7518SOL    HW123238   5.314   3.988   3.944  0.3691  0.6492 -1.0742
 7518SOL    HW223239   5.425   3.912   3.875  0.2018 -1.6538  1.0685
 7519SOL     OW23240   3.289   3.338   0.856  0.6790  0.4582  0.2893
 7519SOL    HW123241   3.229   3.313   0.927  0.0410  1.2190  0.0370
 7519SOL    HW223242   3.233   3.341   0.779  1.3654 -0.3494 -0.2582
 7520SOL     OW23243   6.137   3.438   6.288 -0.3038 -0.0319  0.1802
 7520SOL    HW123244   6.098   3.374   6.229 -2.0992  1.4685 -0.3695
 7520SOL    HW223245   6.155   3.389   6.368 -0.3306 -1.5135 -0.6872
 7521SOL     OW23246   0.896   0.818   3.704  0.3683 -0.0260  0.2563
 7521SOL    HW123247   0.963   0.871   3.662  0.0738 -0.5443 -0.9041
 7521SOL    HW223248   0.813   0.859   3.679  0.2225  0.3249  1.2741
 7522SOL     OW23249   1.323   2.949   5.846 -0.2449  0.0040 -0.1066
 7522SOL    HW123250   1.301   2.954   5.753 -1.1966 -0.8425  0.0553
 7522SOL    HW223251   1.250   2.992   5.890 -0.9572 -1.6264  0.3677
 7523SOL     OW23252   2.838   5.760   5.754 -0.6486  0.3312  0.2758
 7523SOL    HW123253   2.922   5.793   5.784 -1.8325  1.2352  2.9445
 7523SOL    HW223254   2.799   5.833   5.706 -0.6128  0.5608  0.5869
 7524SOL     OW23255   2.534   2.181   5.356  0.5505  0.2863 -0.1746
 7524SOL    HW123256   2.439   2.177   5.360  0.5248  0.7006 -0.3099
 7524SOL    HW223257   2.562   2.187   5.448  0.5277 -1.2893 -0.0380
 7525SOL     OW23258   4.745   5.170   5.959  0.1857 -0.0495 -0.1677
 7525SOL    HW123259   4.676   5.224   5.921  1.0639  1.1363 -0.1133
 7525SOL    HW223260   4.770   5.216   6.039  1.1877 -0.3511 -0.3014
 7526SOL     OW23261   6.062   4.760   2.172  0.0919  0.1658 -0.6183
 7526SOL    HW123262   6.108   4.754   2.256  0.1944 -0.0972 -0.6924
 7526SOL    HW223263   6.126   4.802   2.113 -0.5818  1.9627 -0.1310
 7527SOL     OW23264   2.111   0.267   4.533  0.2801 -0.4057  0.2053
 7527SOL    HW123265   2.072   0.351   4.509 -0.6652 -0.8998 -0.0351
 7527SOL    HW223266   2.036   0.212   4.559  0.9046 -1.0967  0.5840
 7528SOL     OW23267   0.746   3.222   3.161 -0.5290 -0.3365 -0.3875
 7528SOL    HW123268   0.704   3.198   3.244 -0.8688  1.5473  0.0489
 7528SOL    HW223269   0.834   3.185   3.166 -0.6215 -0.4336  0.7230
 7529SOL     OW23270   0.147   4.147   3.647  0.2331  0.3698  0.2437
 7529SOL    HW123271   0.082   4.175   3.583 -0.9966 -0.9289  0.8467
 7529SOL    HW223272   0.218   4.111   3.595  0.8150  2.3772 -0.4548
 7530SOL     OW23273   1.166   3.261   2.137 -0.3622 -0.1710  0.0468
 7530SOL    HW123274   1.141   3.262   2.229 -0.5072  1.2733  0.0133
 7530SOL    HW223275   1.154   3.352   2.107  0.6260 -0.3932 -1.1310
 7531SOL     OW23276   6.249   4.104   2.375  0.3042 -0.1002  0.7003
 7531SOL    HW123277   6.251   4.031   2.437 -0.5006 -0.2372  0.5734
 7531SOL    HW223278   6.335   4.103   2.334  0.2692 -1.0416  0.6262
 7532SOL     OW23279   4.025   2.090   1.353  0.1788 -0.4189 -0.2907
 7532SOL    HW123280   4.090   2.109   1.285 -1.1414 -0.6256 -1.6502
 7532SOL    HW223281   4.007   1.997   1.344 -0.9794 -0.1747 -0.5401
 7533SOL     OW23282   0.622   6.514   5.335 -0.6497 -0.4603 -0.2111
 7533SOL    HW123283   0.556   6.571   5.375 -0.0991  0.1966 -0.2235
 7533SOL    HW223284   0.618   6.434   5.387 -2.5732 -1.0665 -1.2003
 7534SOL     OW23285   4.144   6.120   3.391 -0.0658 -0.2427  0.0621
 7534SOL    HW123286   4.156   6.190   3.456 -0.2155  1.0222 -1.2361
 7534SOL    HW223287   4.231   6.079   3.385  0.8577  1.7383 -1.2472
 7535SOL     OW23288   0.344   1.554   5.828 -0.3813 -0.4969 -0.4441
 7535SOL    HW123289   0.348   1.582   5.919  1.5310 -0.0653 -0.6233
 7535SOL    HW223290   0.382   1.466   5.828  0.2841 -0.2077 -0.9323
 7536SOL     OW23291   0.555   5.876   1.074 -0.3889  0.6602  0.1245
 7536SOL    HW123292   0.650   5.872   1.080 -0.5058 -0.8202  2.6763
 7536SOL    HW223293   0.525   5.884   1.165 -2.7327 -0.2789 -0.4726
 7537SOL     OW23294   5.912   5.747   5.069 -0.6087  0.6316 -1.1305
 7537SOL    HW123295   5.867   5.752   4.985 -1.5999  2.5857 -0.5602
 7537SOL    HW223296   5.981   5.814   5.063 -1.3561  1.5380 -0.0693
 7538SOL     OW23297   5.878   4.011   2.511  0.2727  0.3936  0.1709
 7538SOL    HW123298   5.946   3.968   2.563  0.8095  1.0871  0.0708
 7538SOL    HW223299   5.924   4.044   2.434 -0.1691  0.9267  0.1285
 7539SOL     OW23300   1.001   3.146   1.583  0.2143 -0.4797  0.3668
 7539SOL    HW123301   1.004   3.241   1.587 -1.1031 -0.2873 -1.9823
 7539SOL    HW223302   1.063   3.118   1.651 -0.9461  1.9689  2.6320
 7540SOL     OW23303   3.185   5.915   4.129 -0.3001  0.0287 -1.1306
 7540SOL    HW123304   3.269   5.898   4.170 -0.3220 -0.0120 -1.1033
 7540SOL    HW223305   3.199   5.996   4.079 -0.2273 -0.0120 -1.1770
 7541SOL     OW23306   1.916   2.258   4.584  0.3654  0.3914 -0.1073
 7541SOL    HW123307   1.974   2.310   4.528  1.2469  1.4721  1.6977
 7541SOL    HW223308   1.907   2.311   4.664 -1.0893 -0.9249  0.6534
 7542SOL     OW23309   3.195   5.909   0.906 -0.2439 -0.2158 -0.2486
 7542SOL    HW123310   3.166   5.917   0.997  2.0968 -0.5731  0.5986
 7542SOL    HW223311   3.114   5.894   0.856 -1.7325  1.1747  1.5801
 7543SOL     OW23312   1.378   5.050   1.214  0.1268  0.3962 -0.0725
 7543SOL    HW123313   1.325   5.027   1.290  0.7794 -0.6063  0.1084
 7543SOL    HW223314   1.468   5.026   1.240  0.6913  2.0855 -0.3471
 7544SOL     OW23315   0.877   5.218   5.054 -0.6593 -0.2411  0.1626
 7544SOL    HW123316   0.872   5.303   5.011  0.6513 -0.6910 -0.9304
 7544SOL    HW223317   0.880   5.238   5.147  0.4291  0.9707 -0.1066
 7545SOL     OW23318   1.478   3.000   2.807  0.4768  0.0516 -0.2391
 7545SOL    HW123319   1.412   2.957   2.752 -0.6580 -0.6337  1.5728
 7545SOL    HW223320   1.429   3.064   2.858  1.5319  0.7666 -0.1015
 7546SOL     OW23321   1.720   1.266   6.033 -0.0904  0.0543  0.1656
 7546SOL    HW123322   1.655   1.198   6.017 -1.4965  1.5363 -0.6232
 7546SOL    HW223323   1.776   1.265   5.955 -0.2080 -0.0696  0.0840
 7547SOL     OW23324   0.505   3.157   3.423 -0.2279 -0.1793  0.2689
 7547SOL    HW123325   0.510   3.126   3.513 -0.9427 -2.5596 -0.4196
 7547SOL    HW223326   0.412   3.152   3.401  0.0163 -0.2953 -0.8035
 7548SOL     OW23327   2.348   2.849   1.190 -0.1030 -0.1799  0.2931
 7548SOL    HW123328   2.311   2.917   1.134  0.0519 -0.9516 -0.7931
 7548SOL    HW223329   2.272   2.806   1.229 -0.1959  0.6804  1.0918
 7549SOL     OW23330   3.244   5.598   5.044  0.0019 -0.2792  1.3049
 7549SOL    HW123331   3.296   5.535   4.994 -0.0769  0.7676 -0.1371
 7549SOL    HW223332   3.167   5.549   5.073 -1.1529 -0.3709 -1.6293
 7550SOL     OW23333   2.401   3.522   4.346  0.3220 -0.1961 -0.0012
 7550SOL    HW123334   2.455   3.497   4.271 -0.6066 -2.7252  0.0791
 7550SOL    HW223335   2.458   3.575   4.401  2.0115 -0.9275 -0.9874
 7551SOL     OW23336   4.203   0.773   3.186  0.4617 -0.1720  0.0852
 7551SOL    HW123337   4.147   0.738   3.117 -0.0035  0.0928  0.3240
 7551SOL    HW223338   4.169   0.861   3.203  1.1330  0.1038  0.0316
 7552SOL     OW23339   5.355   2.012   0.008  0.1641 -0.4828 -0.0721
 7552SOL    HW123340   5.318   2.099   0.022  1.2659  0.0522 -0.3408
 7552SOL    HW223341   5.352   2.000  -0.087 -0.4109 -0.9416 -0.0010
 7553SOL     OW23342   6.287   5.856   6.434  0.2085 -0.5040 -0.6630
 7553SOL    HW123343   6.314   5.791   6.499 -0.1354 -0.1258 -0.1308
 7553SOL    HW223344   6.253   5.929   6.486  0.6088  0.1096 -1.2514
 7554SOL     OW23345   1.903   3.698   4.861 -0.3931 -0.2026  0.1676
 7554SOL    HW123346   1.956   3.619   4.875 -1.4935 -0.8622  0.7842
 7554SOL    HW223347   1.854   3.708   4.942 -0.4718  0.9761 -0.0153
 7555SOL     OW23348   5.674   4.434   3.567 -0.4250  1.0384 -0.7629
 7555SOL    HW123349   5.684   4.424   3.661 -0.1674 -2.0868 -1.0185
 7555SOL    HW223350   5.641   4.349   3.537  0.0046  1.7517 -3.5511
 7556SOL     OW23351   2.321   0.293   0.480  0.8135  0.3753  0.8240
 7556SOL    HW123352   2.244   0.277   0.535  1.4795  1.1203  2.0050
 7556SOL    HW223353   2.314   0.386   0.457  1.2223  0.3784  0.7154
 7557SOL     OW23354   0.295   1.453   0.923 -0.0744  0.0226 -0.4742
 7557SOL    HW123355   0.321   1.387   0.988 -1.0365 -0.0977 -0.2041
 7557SOL    HW223356   0.361   1.522   0.932  2.9599 -2.2351 -2.9628
 7558SOL     OW23357   4.064   5.283   5.000 -0.1766  0.4227  0.4157
 7558SOL    HW123358   4.101   5.252   5.083 -2.2378  0.3441  1.3596
 7558SOL    HW223359   4.022   5.205   4.963 -0.7654  0.8556  0.1661
 7559SOL     OW23360   0.647   2.906   2.413 -0.2973  0.4526 -0.8139
 7559SOL    HW123361   0.574   2.952   2.453 -0.8902  0.4730 -1.8942
 7559SOL    HW223362   0.656   2.826   2.464 -1.5159  0.1267 -1.0852
 7560SOL     OW23363   3.574   0.812   2.932 -0.0295  0.1423  0.4790
 7560SOL    HW123364   3.590   0.752   2.860  1.9200  0.6008  0.4827
 7560SOL    HW223365   3.616   0.770   3.008 -2.7471 -0.7438  1.6080
 7561SOL     OW23366   4.854   4.514   3.791  0.2031  0.2763  0.0964
 7561SOL    HW123367   4.944   4.535   3.816  0.5592 -0.4359 -0.5162
 7561SOL    HW223368   4.857   4.509   3.696 -0.6951  1.1180  0.0187
 7562SOL     OW23369   0.862   0.160   5.527  0.3685  0.0776 -0.4739
 7562SOL    HW123370   0.772   0.130   5.535  0.1746  0.4251 -1.2956
 7562SOL    HW223371   0.857   0.255   5.539  0.9237 -0.1097  1.6771
 7563SOL     OW23372   5.438   6.352   0.966  0.2951  0.1671  0.0802
 7563SOL    HW123373   5.488   6.304   0.900 -0.8632  0.1078 -0.7906
 7563SOL    HW223374   5.395   6.422   0.917 -0.7758 -0.0202  0.7256
 7564SOL     OW23375   1.355   5.069   6.265 -0.2183 -0.3713 -0.2931
 7564SOL    HW123376   1.406   5.125   6.206  1.5836  0.1387  1.6171
 7564SOL    HW223377   1.383   4.980   6.243 -0.7382 -0.3127 -1.2322
 7565SOL     OW23378   0.172   0.479   5.485  0.1624 -0.0625 -0.1997
 7565SOL    HW123379   0.264   0.505   5.473  0.0948  0.0621 -0.4575
 7565SOL    HW223380   0.165   0.457   5.578  0.2143  0.8881  0.0412
 7566SOL     OW23381   4.023   1.288   0.190  0.3833  0.2274  0.2535
 7566SOL    HW123382   4.046   1.210   0.139  0.6826 -0.4229  1.3335
 7566SOL    HW223383   4.102   1.308   0.240  0.2821  1.1892  0.0493
 7567SOL     OW23384   6.480   2.968   6.397  0.2676  0.8466  0.1413
 7567SOL    HW123385   6.468   3.011   6.481 -0.3238  1.7574 -0.3979
 7567SOL    HW223386   6.440   3.027   6.333  0.9831  0.3194 -0.8200
 7568SOL     OW23387   1.695   0.344   3.606 -0.5165  0.5190  0.1401
 7568SOL    HW123388   1.694   0.301   3.520 -2.7823  2.1922 -0.7924
 7568SOL    HW223389   1.772   0.401   3.603 -0.4633  0.4194 -0.7057
 7569SOL     OW23390   4.580   0.251   2.128  0.7562 -0.0458 -0.8402
 7569SOL    HW123391   4.575   0.317   2.198  1.8532  0.4743 -1.2352
 7569SOL    HW223392   4.672   0.226   2.125  0.2588 -2.1575 -0.2128
 7570SOL     OW23393   6.351   1.737   6.145  0.1635  0.2630 -0.6885
 7570SOL    HW123394   6.298   1.785   6.082 -0.6788 -0.1943 -0.3387
 7570SOL    HW223395   6.441   1.757   6.120  0.0181 -2.3606 -4.0886
 7571SOL     OW23396   6.406   2.368   1.298 -0.6058 -0.4093 -0.2525
 7571SOL    HW123397   6.333   2.366   1.235 -0.4971  0.7808 -0.4407
 7571SOL    HW223398   6.415   2.460   1.322  0.9329 -0.5031 -0.3404
 7572SOL     OW23399   0.663   3.258   0.296  0.2953  0.2133  0.1307
 7572SOL    HW123400   0.651   3.203   0.373  2.4609  0.0144  0.3667
 7572SOL    HW223401   0.631   3.345   0.323  0.6304  0.0416  1.1019
 7573SOL     OW23402   5.171   1.828   1.105  0.3211  0.0539 -0.0249
 7573SOL    HW123403   5.204   1.808   1.193 -0.2141 -0.2680  0.1092
 7573SOL    HW223404   5.207   1.759   1.049 -0.4682 -0.5655  0.2034
 7574SOL     OW23405   2.503   1.336   0.405  0.3458  0.4567 -0.0325
 7574SOL    HW123406   2.536   1.261   0.355 -0.8792 -0.0123 -0.1644
 7574SOL    HW223407   2.409   1.322   0.411  0.2014  1.5680  0.6611
 7575SOL     OW23408   1.604   5.353   5.835 -0.0939 -0.2244 -0.1733
 7575SOL    HW123409   1.587   5.308   5.919 -2.8205 -1.4296 -1.2385
 7575SOL    HW223410   1.639   5.438   5.860 -3.7494  0.7610  2.4762
 7576SOL     OW23411   0.895   0.665   1.344 -0.3185 -0.0677  0.6293
 7576SOL    HW123412   0.841   0.708   1.409 -0.2994 -0.6400  1.0298
 7576SOL    HW223413   0.933   0.736   1.292 -0.1396  0.3979  1.3940
 7577SOL     OW23414   3.392   2.642   1.115 -0.0433 -0.1906 -0.2979
 7577SOL    HW123415   3.444   2.658   1.194  1.3868  0.9013 -1.4197
 7577SOL    HW223416   3.402   2.548   1.099  0.8499 -0.1558  0.0011
 7578SOL     OW23417   3.691   4.532   5.972 -0.2349 -0.2653 -0.1030
 7578SOL    HW123418   3.658   4.518   6.060  0.0907 -0.6511 -0.0419
 7578SOL    HW223419   3.781   4.562   5.984 -0.8115  1.6065 -0.2416
 7579SOL     OW23420   5.673   4.608   6.403 -0.5290 -0.6306  0.5185
 7579SOL    HW123421   5.632   4.530   6.440  0.5893  0.3029  4.1276
 7579SOL    HW223422   5.671   4.672   6.474  0.5529  1.9087 -1.5893
 7580SOL     OW23423   6.225   5.548   1.036 -0.1819 -0.3285 -0.3335
 7580SOL    HW123424   6.313   5.510   1.039  0.2541  0.6930  0.6785
 7580SOL    HW223425   6.176   5.501   1.104 -0.2334 -0.4755 -0.4730
 7581SOL     OW23426   3.138   4.421   3.708 -0.0087  0.2554  0.3432
 7581SOL    HW123427   3.125   4.468   3.625  1.6070 -0.3003 -0.2653
 7581SOL    HW223428   3.087   4.470   3.772 -1.0160  0.8995 -0.9137
 7582SOL     OW23429   4.657   4.379   6.134 -0.0105 -0.3154 -1.0167
 7582SOL    HW123430   4.746   4.383   6.167 -0.2300  0.8934 -0.5021
 7582SOL    HW223431   4.659   4.428   6.052 -0.8112  2.6543  0.5983
 7583SOL     OW23432   4.331   6.053   1.340 -0.1571 -0.0353  0.0689
 7583SOL    HW123433   4.250   6.066   1.390 -0.4812  0.8055 -0.6465
 7583SOL    HW223434   4.303   6.056   1.249  0.5421 -0.7597 -0.1723
 7584SOL     OW23435   5.393   3.537   5.584  1.1341  0.5048 -0.0824
 7584SOL    HW123436   5.470   3.559   5.531 -0.3418 -1.8906 -3.6048
 7584SOL    HW223437   5.321   3.581   5.540 -0.3177 -2.4622 -0.9072
 7585SOL     OW23438   3.187   6.284   4.213  0.6783 -0.1592 -0.4185
 7585SOL    HW123439   3.246   6.329   4.152  2.0693  0.1128  1.0589
 7585SOL    HW223440   3.164   6.351   4.277  1.0818 -0.9952  0.6313
 7586SOL     OW23441   3.948   2.940   2.241 -0.3890  0.2106  0.3894
 7586SOL    HW123442   3.936   2.906   2.152  1.3652  0.6594 -0.0516
 7586SOL    HW223443   3.911   3.028   2.239  0.4191  0.5405 -0.1416
 7587SOL     OW23444   0.938   1.921   2.542  0.0702  0.3603 -0.4359
 7587SOL    HW123445   1.021   1.954   2.506  1.4833 -0.5043  1.8386
 7587SOL    HW223446   0.896   1.998   2.580  0.1990  0.6540 -0.8710
 7588SOL     OW23447   5.485   3.978   1.492 -0.0085 -0.5767 -0.0864
 7588SOL    HW123448   5.429   3.958   1.567  1.6757  0.3410  1.4914
 7588SOL    HW223449   5.425   4.012   1.425 -1.3564  0.2038  1.4705
 7589SOL     OW23450   4.063   1.690   5.081  0.2701  0.2216  0.4304
 7589SOL    HW123451   4.074   1.679   4.986  1.1645  1.0882  0.4199
 7589SOL    HW223452   3.976   1.654   5.099  1.2179 -2.7183 -0.2317
 7590SOL     OW23453   4.564   1.669   4.904 -0.1060 -0.0582 -0.4294
 7590SOL    HW123454   4.653   1.673   4.870  0.6411  0.6086  1.4938
 7590SOL    HW223455   4.551   1.753   4.948 -2.1424  0.3553 -1.6861
 7591SOL     OW23456   5.696   4.989   0.936  0.4277  1.1053  0.1639
 7591SOL    HW123457   5.785   4.966   0.912  0.3405  1.3857 -0.4567
 7591SOL    HW223458   5.689   4.967   1.028  0.7917  0.0209 -0.0580
 7592SOL     OW23459   0.116   4.693   6.161  0.1436  0.1460 -0.1110
 7592SOL    HW123460   0.080   4.746   6.089  0.6029  0.4149 -0.1468
 7592SOL    HW223461   0.101   4.602   6.134  0.1795  0.2476 -0.4746
 7593SOL     OW23462   5.968   5.110   6.056 -0.0468 -0.3164 -0.4797
 7593SOL    HW123463   5.926   5.043   6.111  0.7592  1.4884  2.6214
 7593SOL    HW223464   5.900   5.177   6.045  0.1890 -0.0927 -0.5653
 7594SOL     OW23465   1.057   5.530   2.320 -0.4138 -0.0357 -0.2476
 7594SOL    HW123466   0.985   5.593   2.324 -1.5444 -1.2816 -0.4321
 7594SOL    HW223467   1.079   5.523   2.227  1.3099  1.7727 -0.0589
 7595SOL     OW23468   5.565   1.419   3.324  0.5620  0.3941  0.3453
 7595SOL    HW123469   5.568   1.419   3.420  1.9014 -0.2111  0.3324
 7595SOL    HW223470   5.652   1.449   3.298  0.3325  0.1953 -0.6833
 7596SOL     OW23471   5.191   3.428   3.784 -0.2543  0.0199  0.2806
 7596SOL    HW123472   5.239   3.348   3.803  0.3514  0.2250 -0.3597
 7596SOL    HW223473   5.190   3.476   3.867  0.1306 -0.2587  0.4463
 7597SOL     OW23474   5.932   0.826   5.761  0.0650 -0.0049 -0.0180
 7597SOL    HW123475   5.872   0.888   5.720  1.1175  0.8446 -0.3319
 7597SOL    HW223476   5.895   0.740   5.742 -2.0149  0.5250  1.3522
 7598SOL     OW23477   2.142   4.280   0.994  0.0750 -0.0482  0.1587
 7598SOL    HW123478   2.052   4.312   0.981  0.8200  1.9069 -0.7000
 7598SOL    HW223479   2.189   4.310   0.916  1.3698 -1.5292  0.3195
 7599SOL     OW23480   4.321   3.079   4.642 -0.6413  0.2463 -0.0799
 7599SOL    HW123481   4.367   3.135   4.705 -0.6401  0.0753  0.0715
 7599SOL    HW223482   4.314   2.994   4.686 -1.6726  0.4475  0.1576
 7600SOL     OW23483   5.801   6.005   2.525 -0.2557  0.5217 -0.1314
 7600SOL    HW123484   5.761   6.076   2.475 -0.9645  0.2549  0.0342
 7600SOL    HW223485   5.893   6.006   2.500 -0.7332 -0.1326 -2.0773
 7601SOL     OW23486   1.984   0.989   2.538  0.1666 -0.2766  0.1776
 7601SOL    HW123487   1.960   1.015   2.449  1.7905  0.6182 -0.0447
 7601SOL    HW223488   2.036   1.063   2.571  0.9442 -1.2807  1.2827
 7602SOL     OW23489   6.238   5.381   4.244 -0.0928  0.3004  0.5949
 7602SOL    HW123490   6.217   5.287   4.251  1.7012 -0.3267 -1.3273
 7602SOL    HW223491   6.202   5.407   4.159  1.1691  0.8036  0.1914
 7603SOL     OW23492   2.621   4.187   4.276 -0.0262 -0.0071  0.0434
 7603SOL    HW123493   2.680   4.234   4.217 -0.4398  0.8060  0.2504
 7603SOL    HW223494   2.590   4.255   4.337  2.0967 -1.1872  2.6491
 7604SOL     OW23495   2.530   4.966   0.554  0.7073  0.2074 -0.2334
 7604SOL    HW123496   2.457   5.028   0.553  1.0007  0.6212  1.3254
 7604SOL    HW223497   2.557   4.962   0.646  3.4400  1.0346 -0.9091
 7605SOL     OW23498   1.087   2.305   0.577 -0.1997 -0.0837 -0.4303
 7605SOL    HW123499   1.076   2.296   0.482  0.9078 -0.9437 -0.5010
 7605SOL    HW223500   1.079   2.216   0.611  0.7672  0.0171  0.1116
 7606SOL     OW23501   3.435   1.660   2.739  0.4021 -0.2034  0.2076
 7606SOL    HW123502   3.410   1.609   2.816  1.4374  1.1335  1.4844
 7606SOL    HW223503   3.530   1.665   2.743  0.2952  3.2960  1.2045
 7607SOL     OW23504   0.654   1.195   1.121  0.9238 -0.0628 -0.8278
 7607SOL    HW123505   0.683   1.205   1.212 -0.9310  0.8477 -0.2839
 7607SOL    HW223506   0.715   1.132   1.083  2.0189 -0.1201  0.9116
 7608SOL     OW23507   1.817   0.551   1.747 -0.4101 -0.0469  0.3243
 7608SOL    HW123508   1.892   0.494   1.730  1.6041  2.2996  0.7258
 7608SOL    HW223509   1.787   0.526   1.835 -0.2755 -1.1551  0.0755
 7609SOL     OW23510   1.606   1.914   5.287  0.4472 -0.4975 -0.4092
 7609SOL    HW123511   1.569   1.996   5.255  0.8425 -0.4018 -0.6367
 7609SOL    HW223512   1.661   1.939   5.361  1.8517 -0.3219 -1.4522
 7610SOL     OW23513   2.249   2.215   5.985 -0.1824 -0.2706 -0.4146
 7610SOL    HW123514   2.307   2.174   5.921 -1.0236 -1.6090 -0.3333
 7610SOL    HW223515   2.249   2.156   6.060 -0.7838  0.2788  0.0369
 7611SOL     OW23516   5.799   3.598   5.944 -0.7110 -0.2083  0.1618
 7611SOL    HW123517   5.859   3.650   5.998 -0.0118  0.5689 -1.3243
 7611SOL    HW223518   5.802   3.511   5.984 -0.4420  0.4016  1.5476
 7612SOL     OW23519   5.807   5.043   0.216  0.0179 -0.5926  0.3291
 7612SOL    HW123520   5.746   5.103   0.258  0.5902 -0.9872  1.7948
 7612SOL    HW223521   5.889   5.054   0.265  0.1602 -2.4802  0.5918
 7613SOL     OW23522   3.392   2.050   2.543 -0.2606  0.0940 -0.0733
 7613SOL    HW123523   3.351   2.132   2.572 -0.6525 -0.2138  0.2574
 7613SOL    HW223524   3.347   2.030   2.461 -1.4010 -0.6850  0.7086
 7614SOL     OW23525   3.596   1.297   3.453  0.3976 -0.0736  0.0902
 7614SOL    HW123526   3.502   1.312   3.442  0.8079  1.9612 -1.2303
 7614SOL    HW223527   3.627   1.376   3.497  1.6920 -0.0804 -0.7738
 7615SOL     OW23528   4.323   6.110   4.176  0.5781  0.2855 -0.0734
 7615SOL    HW123529   4.240   6.117   4.222 -0.3596 -0.1681 -1.6169
 7615SOL    HW223530   4.335   6.194   4.133  0.6413  0.1797 -0.2680
 7616SOL     OW23531   4.491   4.440   3.214 -0.5232  0.5540 -0.2848
 7616SOL    HW123532   4.504   4.512   3.152  1.0384 -0.2184 -0.9183
 7616SOL    HW223533   4.397   4.442   3.233 -1.0157  1.0166 -2.4350
 7617SOL     OW23534   3.610   2.619   2.332  0.1817  0.1967  0.0820
 7617SOL    HW123535   3.698   2.634   2.366  0.2146 -0.5192  0.3219
 7617SOL    HW223536   3.601   2.524   2.330 -0.8473  0.2751  0.7246
 7618SOL     OW23537   4.787   0.529   6.296  0.3414 -0.6123 -0.4137
 7618SOL    HW123538   4.703   0.551   6.256  0.4028 -0.1788 -0.3099
 7618SOL    HW223539   4.764   0.487   6.379  0.2025  1.8820  0.9199
 7619SOL     OW23540   6.411   1.279   2.720  0.0439  0.2195 -0.0309
 7619SOL    HW123541   6.352   1.221   2.767  1.0974  0.4291  1.6064
 7619SOL    HW223542   6.498   1.241   2.732  0.5193  1.1098 -0.5371
 7620SOL     OW23543   5.722   4.820   3.390  0.2380  0.6048 -0.2241
 7620SOL    HW123544   5.626   4.821   3.392  0.2475  0.2639  0.6286
 7620SOL    HW223545   5.747   4.744   3.441  0.9585 -0.2540 -1.7743
 7621SOL     OW23546   6.028   4.392   3.846 -0.0551 -0.1545  0.4679
 7621SOL    HW123547   6.010   4.389   3.940 -1.3925  0.5991  0.2755
 7621SOL    HW223548   5.994   4.309   3.812  2.4286 -1.4425  0.8950
 7622SOL     OW23549   6.391   5.660   0.095  0.6324 -0.6974  0.0204
 7622SOL    HW123550   6.422   5.576   0.061  0.2953 -0.9542  0.3335
 7622SOL    HW223551   6.410   5.656   0.189 -1.8303 -1.5795  0.5640
 7623SOL     OW23552   3.536   2.618   1.330  0.3947  0.4658 -0.3121
 7623SOL    HW123553   3.592   2.557   1.377  0.2370  0.1370 -0.5463
 7623SOL    HW223554   3.507   2.681   1.396  0.2777  0.0823 -0.0034
 7624SOL     OW23555   1.007   5.101   0.889  0.1548  0.2136  0.1886
 7624SOL    HW123556   1.075   5.075   0.951 -1.7090  0.4096  2.4517
 7624SOL    HW223557   0.942   5.030   0.894 -0.5252  0.7521 -0.7336
 7625SOL     OW23558   3.615   2.746   3.887 -0.2172  0.0835 -0.1103
 7625SOL    HW123559   3.671   2.807   3.934  1.0140 -1.5127  0.5827
 7625SOL    HW223560   3.529   2.753   3.929 -0.1785  1.5085 -0.2417
 7626SOL     OW23561   1.487   1.665   5.242  0.0856  0.0292 -0.2262
 7626SOL    HW123562   1.531   1.747   5.263  1.0086 -0.6212  0.4601
 7626SOL    HW223563   1.542   1.625   5.174  0.6332 -0.8165  0.6800
 7627SOL     OW23564   2.434   2.634   1.066  0.5843 -0.1228  0.1053
 7627SOL    HW123565   2.346   2.602   1.046  0.7783 -0.6726  0.1201
 7627SOL    HW223566   2.419   2.715   1.115  0.0921  1.0190 -1.8142
 7628SOL     OW23567   6.213   6.308   5.944 -0.4080 -0.2137 -0.3512
 7628SOL    HW123568   6.229   6.384   5.888 -0.3207 -0.8247 -1.1854
 7628SOL    HW223569   6.125   6.322   5.979  0.3742  1.2473  1.1247
 7629SOL     OW23570   5.126   3.066   3.125  0.4698 -0.5124  0.6662
 7629SOL    HW123571   5.049   3.122   3.119  1.1015  0.4416  1.2830
 7629SOL    HW223572   5.095   2.980   3.096  0.3556  0.8929 -4.3563
 7630SOL     OW23573   5.136   3.252   1.066 -0.4771  0.1859 -0.5185
 7630SOL    HW123574   5.226   3.271   1.039 -0.5789  1.5177  0.0240
 7630SOL    HW223575   5.117   3.167   1.027  0.8695  0.0833 -0.9964
 7631SOL     OW23576   3.757   1.135   6.215  0.1603  0.0139 -0.2348
 7631SOL    HW123577   3.741   1.228   6.230 -0.8809 -0.0297 -0.9530
 7631SOL    HW223578   3.830   1.113   6.273 -0.1237  1.0856  0.5547
 7632SOL     OW23579   0.821   0.264   3.896 -0.6296  0.0345 -0.1081
 7632SOL    HW123580   0.831   0.293   3.987 -1.7541 -0.2021  0.1028
 7632SOL    HW223581   0.875   0.185   3.890  1.1969  1.2307 -0.2624
 7633SOL     OW23582   1.692   3.931   2.266 -0.2297  0.2084  0.1479
 7633SOL    HW123583   1.784   3.905   2.262 -0.7504 -1.9901  0.8686
 7633SOL    HW223584   1.692   4.011   2.318  1.3761  1.0223 -1.0150
 7634SOL     OW23585   4.898   2.299   0.395 -0.0080  0.0564 -0.0777
 7634SOL    HW123586   4.868   2.217   0.433  0.9585 -0.2322  0.0832
 7634SOL    HW223587   4.817   2.349   0.378 -0.7059 -1.4644 -1.4801
 7635SOL     OW23588   4.256   0.975   3.627  0.7941  0.1457  0.1535
 7635SOL    HW123589   4.273   0.915   3.700 -1.0663 -1.6882 -0.8418
 7635SOL    HW223590   4.279   0.925   3.549 -2.1411  0.1083 -0.8028
 7636SOL     OW23591   3.727   4.814   4.290  0.1317  0.4718 -0.4277
 7636SOL    HW123592   3.768   4.800   4.375  0.6328  0.8215 -0.6085
 7636SOL    HW223593   3.633   4.814   4.308  0.2413  2.6052  0.4720
 7637SOL     OW23594   3.034   5.565   1.347 -0.0787  0.3543 -0.1431
 7637SOL    HW123595   3.115   5.580   1.298 -0.9838  2.6131 -1.0549
 7637SOL    HW223596   3.017   5.648   1.392 -1.1473 -0.5422  1.1980
 7638SOL     OW23597   5.221   1.740   0.789  0.5723  0.0183  0.7161
 7638SOL    HW123598   5.191   1.747   0.698 -1.3736 -4.2741  0.7604
 7638SOL    HW223599   5.269   1.657   0.792  0.7925  0.1522  3.5592
 7639SOL     OW23600   2.254   4.881   0.317  0.4319  0.6607  0.3543
 7639SOL    HW123601   2.265   4.807   0.377 -1.3048  0.8758  1.0072
 7639SOL    HW223602   2.314   4.863   0.245 -0.5709 -1.8738  0.0490
 7640SOL     OW23603   5.275   2.247   1.656 -0.1120 -0.1268  0.0396
 7640SOL    HW123604   5.235   2.305   1.721 -1.5692 -0.4180 -0.5442
 7640SOL    HW223605   5.226   2.264   1.575 -0.6993 -2.2499 -0.1110
 7641SOL     OW23606   3.155   4.075   0.800  0.2769 -0.1569  0.2871
 7641SOL    HW123607   3.093   4.103   0.733 -0.2180 -0.3580  0.6534
 7641SOL    HW223608   3.204   4.004   0.758  0.5929  0.3299 -0.1709
 7642SOL     OW23609   0.592   0.542   2.260 -0.3063 -0.0111  0.0364
 7642SOL    HW123610   0.523   0.491   2.217  0.6421 -0.7291 -0.6696
 7642SOL    HW223611   0.655   0.477   2.290  0.1456  0.6498  0.5498
 7643SOL     OW23612   5.261   3.162   5.830 -0.3029 -0.5883  0.3369
 7643SOL    HW123613   5.297   3.250   5.842 -0.5433  0.0214 -2.6283
 7643SOL    HW223614   5.181   3.176   5.778  0.6116 -2.6291 -1.7677
 7644SOL     OW23615   0.322   0.229   2.570  0.0533 -0.0167  0.2048
 7644SOL    HW123616   0.279   0.178   2.502  0.3798  0.7756 -0.6153
 7644SOL    HW223617   0.330   0.169   2.644 -0.8892 -0.6907 -0.2307
 7645SOL     OW23618   5.845   3.998   3.497 -0.1154 -0.7739  0.0650
 7645SOL    HW123619   5.924   3.964   3.540  0.6863  0.9550  0.0525
 7645SOL    HW223620   5.871   4.084   3.463 -2.0829 -0.0252  0.3017
 7646SOL     OW23621   1.654   1.396   2.086  0.1947  0.0797  0.3981
 7646SOL    HW123622   1.602   1.355   2.155  0.7164  0.2252  0.8927
 7646SOL    HW223623   1.657   1.331   2.016 -0.1094 -0.1850  0.6294
 7647SOL     OW23624   0.895   5.878   1.932  0.4371  0.4122 -0.2189
 7647SOL    HW123625   0.938   5.819   1.993 -0.1535 -0.0038 -0.2000
 7647SOL    HW223626   0.855   5.945   1.987  0.6054  0.4991 -0.2023
 7648SOL     OW23627   6.515   4.695   4.764  0.4372 -0.4396 -0.0775
 7648SOL    HW123628   6.458   4.763   4.726  0.4965 -0.7106 -0.6573
 7648SOL    HW223629   6.490   4.615   4.719 -0.8722 -1.1972  1.8310
 7649SOL     OW23630   3.418   1.165   0.000  0.8747  0.4125  0.1861
 7649SOL    HW123631   3.446   1.142  -0.088  0.7125 -0.8215  0.4436
 7649SOL    HW223632   3.472   1.241   0.023  2.5533 -0.6253 -0.1241
 7650SOL     OW23633   3.757   4.951   5.842 -0.1834 -0.2194 -0.1227
 7650SOL    HW123634   3.710   5.006   5.780 -0.1979 -2.1065 -1.9098
 7650SOL    HW223635   3.795   4.882   5.788 -0.9267 -2.4793  2.0666
 7651SOL     OW23636   2.306   4.846   2.219 -0.0212 -0.0568  0.3082
 7651SOL    HW123637   2.290   4.920   2.277  1.4137  1.3623 -1.0262
 7651SOL    HW223638   2.241   4.855   2.149 -0.4092 -0.5781  0.5934
 7652SOL     OW23639   0.952   3.991   3.437 -0.2678 -0.1660 -0.1259
 7652SOL    HW123640   0.935   4.085   3.444 -1.8333 -0.3680 -0.7792
 7652SOL    HW223641   0.974   3.977   3.345  0.5077 -0.3688  0.0846
 7653SOL     OW23642   4.842   1.223   2.005  0.0261 -0.2712  0.1232
 7653SOL    HW123643   4.830   1.177   1.922 -1.0352  0.2363 -0.0160
 7653SOL    HW223644   4.839   1.316   1.982 -0.5949 -0.1229  0.7611
 7654SOL     OW23645   4.600   4.197   0.472  0.1351  0.0767  0.1793
 7654SOL    HW123646   4.639   4.142   0.404  1.6320 -0.7737  1.6400
 7654SOL    HW223647   4.640   4.283   0.459 -0.3466  0.1870 -0.6115
 7655SOL     OW23648   5.711   5.045   2.589 -0.4653  0.3569  0.0643
 7655SOL    HW123649   5.780   5.095   2.632 -0.2978 -0.1269  0.3784
 7655SOL    HW223650   5.630   5.075   2.629 -0.4167  0.7803 -0.1570
 7656SOL     OW23651   4.399   0.125   0.424  0.5856  0.5565  0.4106
 7656SOL    HW123652   4.326   0.146   0.482  0.1080  2.1219 -0.6814
 7656SOL    HW223653   4.477   0.151   0.473  0.5421 -1.8084  1.8817
 7657SOL     OW23654   6.033   2.643   0.369  0.1160  0.0472  0.5062
 7657SOL    HW123655   6.091   2.567   0.354 -1.1001 -0.9236  0.5788
 7657SOL    HW223656   6.054   2.671   0.458  0.6574 -0.1338  0.4420
 7658SOL     OW23657   2.757   5.077   3.062  0.2826 -0.1823 -0.2583
 7658SOL    HW123658   2.666   5.055   3.045 -0.3889  0.7433  1.8418
 7658SOL    HW223659   2.773   5.156   3.010 -0.0033 -0.5114 -0.8581
 7659SOL     OW23660   3.194   0.504   2.683  0.0398 -0.4202  0.7499
 7659SOL    HW123661   3.144   0.567   2.734 -0.9865 -0.8663  0.3260
 7659SOL    HW223662   3.141   0.424   2.684  0.0256 -0.4772 -0.9043
 7660SOL     OW23663   1.377   2.056   2.229  0.0859 -0.1194 -0.4803
 7660SOL    HW123664   1.326   1.979   2.251 -0.1497  0.6190  1.7285
 7660SOL    HW223665   1.323   2.104   2.167 -0.7361 -0.6399 -0.1742
 7661SOL     OW23666   6.236   6.264   2.222  0.1276  0.4332 -0.3430
 7661SOL    HW123667   6.168   6.197   2.214 -1.0039  1.5611 -0.5527
 7661SOL    HW223668   6.255   6.268   2.316 -0.5346  0.4981 -0.2052
 7662SOL     OW23669   3.286   2.850   0.962  0.2818  0.2777 -0.4046
 7662SOL    HW123670   3.304   2.767   1.005  2.4930  0.6988 -0.4365
 7662SOL    HW223671   3.287   2.915   1.032  0.3044  0.5125 -0.6180
 7663SOL     OW23672   3.488   5.633   5.872 -0.1849 -0.1751  0.2433
 7663SOL    HW123673   3.501   5.545   5.835  1.3838  0.4095 -0.6736
 7663SOL    HW223674   3.425   5.620   5.942 -1.3390 -1.7625 -1.0030
 7664SOL     OW23675   3.197   0.730   0.611 -0.0359 -0.4487 -0.4969
 7664SOL    HW123676   3.139   0.769   0.546  0.1804 -1.7276 -1.4867
 7664SOL    HW223677   3.257   0.801   0.635  0.2780 -0.1097 -2.1557
 7665SOL     OW23678   2.243   0.666   0.988 -0.0285  0.1868  0.0640
 7665SOL    HW123679   2.317   0.720   1.018 -1.6025  2.5796 -0.0605
 7665SOL    HW223680   2.271   0.631   0.904  0.4285  2.4614 -0.8185
 7666SOL     OW23681   0.045   0.788   3.883 -0.1735 -0.0214 -0.5439
 7666SOL    HW123682   0.113   0.736   3.926  2.1759  1.8741 -1.7064
 7666SOL    HW223683   0.022   0.736   3.805  0.1551 -0.5607 -0.2917
 7667SOL     OW23684   4.465   6.292   4.501 -0.3314 -0.2520 -0.2216
 7667SOL    HW123685   4.438   6.210   4.459  1.0044  0.1179 -1.9224
 7667SOL    HW223686   4.553   6.274   4.534 -0.1452  0.4120 -0.3440
 7668SOL     OW23687   3.951   5.088   1.666  0.0710  0.4147 -0.0096
 7668SOL    HW123688   3.965   5.020   1.732 -0.1299 -0.6081 -1.0043
 7668SOL    HW223689   4.039   5.114   1.639  0.1432  0.2699  0.0832
 7669SOL     OW23690   3.547   1.123   5.022 -0.2046 -0.0005  0.2058
 7669SOL    HW123691   3.513   1.071   5.095  0.9077  0.5912  1.1901
 7669SOL    HW223692   3.577   1.059   4.958  3.1485 -0.7816  2.2971
 7670SOL     OW23693   2.814   1.102   5.114  0.1522 -0.1171  0.2386
 7670SOL    HW123694   2.909   1.101   5.117  0.1392 -0.1216  1.5832
 7670SOL    HW223695   2.791   1.194   5.107  0.2528 -0.1465 -0.5336
 7671SOL     OW23696   5.278   5.655   5.759  0.3056  0.3115 -0.8346
 7671SOL    HW123697   5.373   5.644   5.757  0.3641  0.8070 -0.9586
 7671SOL    HW223698   5.260   5.699   5.842  0.1497 -0.0672 -0.6645
 7672SOL     OW23699   1.726   4.438   1.386  0.1208 -0.0321 -0.4316
 7672SOL    HW123700   1.814   4.475   1.374  0.4709 -0.4119  0.8527
 7672SOL    HW223701   1.739   4.343   1.381 -0.5427 -0.0720 -2.1869
 7673SOL     OW23702   3.275   1.741   5.442 -0.1183  0.3797 -0.3138
 7673SOL    HW123703   3.369   1.749   5.425  0.0294  1.2271  0.7869
 7673SOL    HW223704   3.261   1.788   5.524 -1.2340 -1.1126  0.4063
 7674SOL     OW23705   3.018   2.399   1.411 -0.4512 -0.0946 -0.0053
 7674SOL    HW123706   2.936   2.445   1.427 -1.0533 -1.1428 -0.0097
 7674SOL    HW223707   3.085   2.468   1.415 -1.3062  0.7515  0.1148
 7675SOL     OW23708   3.508   4.112   3.370 -0.6059  0.6473  0.5269
 7675SOL    HW123709   3.483   4.110   3.278  0.0550 -0.2384  0.3442
 7675SOL    HW223710   3.479   4.027   3.405  3.0303 -1.0387 -0.0087
 7676SOL     OW23711   1.080   2.902   3.440 -0.3736 -0.4468  0.7452
 7676SOL    HW123712   1.029   2.827   3.411  0.4311 -0.2714 -1.2817
 7676SOL    HW223713   1.054   2.915   3.531 -0.9219 -2.8439  0.9943
 7677SOL     OW23714   3.207   5.327   5.381  0.1462  0.1135 -0.1779
 7677SOL    HW123715   3.144   5.380   5.332  0.1237 -1.0983 -1.5193
 7677SOL    HW223716   3.263   5.288   5.314  2.5481  1.3458  0.9770
 7678SOL     OW23717   6.499   6.102   1.619  0.1567 -0.0655 -0.3393
 7678SOL    HW123718   6.497   6.194   1.594  1.4961  0.0155 -0.2464
 7678SOL    HW223719   6.490   6.054   1.537  1.1634  0.1753 -0.6064
 7679SOL     OW23720   4.003   3.488   2.020 -0.5481  0.8243  0.0919
 7679SOL    HW123721   3.916   3.471   2.055 -0.5337  1.4916  0.4823
 7679SOL    HW223722   3.987   3.513   1.929 -0.5512 -1.3004 -0.5425
 7680SOL     OW23723   6.494   6.074   2.296  0.3918  0.2138 -0.0424
 7680SOL    HW123724   6.453   6.107   2.376  1.1132 -0.4739  0.6282
 7680SOL    HW223725   6.498   5.979   2.308  1.2559  0.1750 -0.5224
 7681SOL     OW23726   6.087   3.413   1.013 -0.1322  0.0148 -0.0835
 7681SOL    HW123727   6.053   3.468   1.084 -0.6349  1.6297 -1.5183
 7681SOL    HW223728   6.168   3.376   1.048 -0.4918  0.5799  1.4071
 7682SOL     OW23729   2.736   2.649   1.214 -0.3174  0.2413  0.0130
 7682SOL    HW123730   2.695   2.656   1.301 -2.5377  1.5356 -1.0283
 7682SOL    HW223731   2.718   2.559   1.186 -0.6825  0.1844  0.4093
 7683SOL     OW23732   2.261   5.179   0.311 -0.5353  0.0150  0.0266
 7683SOL    HW123733   2.285   5.089   0.332  0.6928  0.0737 -0.9478
 7683SOL    HW223734   2.248   5.221   0.396 -0.2372 -0.8517  0.5177
 7684SOL     OW23735   4.650   3.027   0.225 -0.3902 -0.1183 -0.4584
 7684SOL    HW123736   4.557   3.028   0.248 -0.2642 -1.6590  0.2423
 7684SOL    HW223737   4.661   2.950   0.170  0.0148  1.5220 -2.8152
 7685SOL     OW23738   3.831   3.525   4.386 -0.0701  0.6029 -0.3457
 7685SOL    HW123739   3.828   3.430   4.390  0.6792  0.6276  1.4612
 7685SOL    HW223740   3.827   3.554   4.477 -2.3706  2.3953 -0.8851
 7686SOL     OW23741   5.987   0.217   1.580  0.4751  0.1530  0.3818
 7686SOL    HW123742   5.930   0.206   1.656 -0.6612 -1.8332 -0.6632
 7686SOL    HW223743   6.076   0.209   1.614 -0.0398 -2.5040  1.3175
 7687SOL     OW23744   1.963   2.019   3.038 -0.1517  0.2987 -0.6507
 7687SOL    HW123745   2.021   1.971   3.097 -1.4038  0.2068  0.5585
 7687SOL    HW223746   2.008   2.017   2.954  0.9179 -1.0010 -0.0952
 7688SOL     OW23747   0.565   6.252   0.946  0.1442 -0.5560 -0.1690
 7688SOL    HW123748   0.491   6.242   1.006 -1.1670  2.2614 -1.1493
 7688SOL    HW223749   0.611   6.329   0.978 -0.4361  0.8622 -2.5086
 7689SOL     OW23750   6.314   1.199   5.773  0.0282  0.5175  0.1735
 7689SOL    HW123751   6.288   1.266   5.836 -0.4936  0.5938 -0.1122
 7689SOL    HW223752   6.271   1.225   5.691  1.5931  1.0568 -0.5314
 7690SOL     OW23753   1.404   1.431   6.379  0.0733 -0.4280  0.2218
 7690SOL    HW123754   1.371   1.447   6.468 -0.8067  3.8818 -0.6546
 7690SOL    HW223755   1.487   1.478   6.376 -0.6477  0.8232 -1.5996
 7691SOL     OW23756   3.719   3.287   4.785  0.2780 -0.5307  0.0079
 7691SOL    HW123757   3.744   3.372   4.821 -0.1253  0.5670 -2.1250
 7691SOL    HW223758   3.730   3.226   4.857  1.6867  1.1370  1.2900
 7692SOL     OW23759   1.383   4.781   0.726 -0.3892 -0.4244  0.2616
 7692SOL    HW123760   1.322   4.820   0.663  1.7260 -0.2526 -1.8099
 7692SOL    HW223761   1.326   4.748   0.796 -2.6337  2.1099 -0.1783
 7693SOL     OW23762   5.893   1.817   1.975 -0.0217 -0.3236  0.3653
 7693SOL    HW123763   5.852   1.769   2.046 -1.2670  1.1211  0.6830
 7693SOL    HW223764   5.876   1.764   1.897  1.3848 -1.9315  1.1064
 7694SOL     OW23765   4.999   5.103   1.419  0.1362 -0.2361  0.0946
 7694SOL    HW123766   4.954   5.087   1.502 -0.0806 -0.0814  0.0089
 7694SOL    HW223767   5.015   5.198   1.418 -0.7813 -0.0695 -0.4969
 7695SOL     OW23768   5.530   1.597   0.354 -0.0350 -0.3879  0.2667
 7695SOL    HW123769   5.601   1.587   0.417 -0.0258  0.0642  0.3296
 7695SOL    HW223770   5.512   1.507   0.324  1.1304 -0.4266 -0.3818
 7696SOL     OW23771   0.065   4.369   4.885 -0.0587 -0.0026 -0.2636
 7696SOL    HW123772   0.055   4.377   4.790 -0.6820 -3.6189 -0.6513
 7696SOL    HW223773  -0.025   4.370   4.919 -0.0767 -1.7897 -0.1462
 7697SOL     OW23774   3.361   0.580   1.735 -0.3782  0.3434  0.6738
 7697SOL    HW123775   3.270   0.555   1.717 -0.1551 -0.8872  1.1652
 7697SOL    HW223776   3.363   0.601   1.829 -0.2773  0.9875  0.5361
 7698SOL     OW23777   4.290   6.350   0.708  0.7678 -0.8609  0.3623
 7698SOL    HW123778   4.353   6.401   0.757  1.1030 -0.2638 -0.6584
 7698SOL    HW223779   4.276   6.271   0.761 -0.8766  0.8671  2.7125
 7699SOL     OW23780   0.451   1.960   2.634 -0.4393  0.7408 -0.4295
 7699SOL    HW123781   0.395   1.889   2.603  2.5804 -2.5870  1.0137
 7699SOL    HW223782   0.502   1.987   2.557 -0.0509 -0.2584 -0.5257
 7700SOL     OW23783   4.144   5.834   3.451 -0.1915  0.0106 -0.2047
 7700SOL    HW123784   4.094   5.794   3.380 -0.7710  1.7167 -0.8081
 7700SOL    HW223785   4.226   5.863   3.410  1.3509 -2.6344  0.7451
 7701SOL     OW23786   1.133   2.241   2.136 -0.3926 -0.0895  0.0012
 7701SOL    HW123787   1.129   2.276   2.225 -1.2933  2.1159 -0.8249
 7701SOL    HW223788   1.053   2.273   2.094 -1.2148 -3.0865 -0.9574
 7702SOL     OW23789   0.266   2.275   6.198 -0.4285 -0.4418 -0.1102
 7702SOL    HW123790   0.213   2.195   6.199 -0.4247 -0.4449  0.4726
 7702SOL    HW223791   0.239   2.322   6.277 -1.6806  0.9835 -1.3376
 7703SOL     OW23792   6.376   5.586   1.416 -0.1545  0.3049  0.0823
 7703SOL    HW123793   6.468   5.560   1.415 -0.0360  0.6282  1.1124
 7703SOL    HW223794   6.329   5.506   1.439 -0.0482  0.3217  0.3694
 7704SOL     OW23795   0.479   1.357   2.284  0.2306 -0.2269  0.0598
 7704SOL    HW123796   0.520   1.443   2.294 -1.4243  0.5065  0.9663
 7704SOL    HW223797   0.409   1.372   2.221  0.4991 -1.1503 -0.4724
 7705SOL     OW23798   0.186   1.786   4.432 -0.7197  0.8143  0.2589
 7705SOL    HW123799   0.272   1.779   4.473 -1.5184  1.2048  2.0656
 7705SOL    HW223800   0.124   1.765   4.502 -2.1102  0.5551 -1.0049
 7706SOL     OW23801   2.447   4.792   1.324  0.0998  0.8026 -0.5236
 7706SOL    HW123802   2.527   4.844   1.326 -0.0681  1.1590 -1.9736
 7706SOL    HW223803   2.376   4.856   1.326 -0.1264  0.5632 -0.6979
 7707SOL     OW23804   6.377   4.329   5.850  0.0600 -0.1543 -0.7729
 7707SOL    HW123805   6.459   4.333   5.899 -1.1825  2.7184  1.3803
 7707SOL    HW223806   6.394   4.378   5.770  0.5672  0.0406 -0.5491
 7708SOL     OW23807   4.837   4.249   5.820  0.0410  0.0052 -0.5764
 7708SOL    HW123808   4.810   4.168   5.865 -0.1192  0.4599  0.1677
 7708SOL    HW223809   4.755   4.294   5.801  0.1462  0.1377 -0.7129
 7709SOL     OW23810   2.202   5.616   1.772 -0.2287 -0.2539  0.2730
 7709SOL    HW123811   2.154   5.573   1.702 -0.0099 -4.1616  2.1806
 7709SOL    HW223812   2.294   5.594   1.755 -0.1434 -0.9899  1.4976
 7710SOL     OW23813   4.076   3.602   1.178  0.0879 -0.4324  0.3115
 7710SOL    HW123814   4.092   3.597   1.083  0.8742 -0.3911  0.4325
 7710SOL    HW223815   4.026   3.523   1.198  0.1024 -0.5497 -0.1079
 7711SOL     OW23816   2.380   2.268   3.758 -0.0058  0.4397 -0.2313
 7711SOL    HW123817   2.372   2.243   3.850 -0.1420 -0.5528 -0.5001
 7711SOL    HW223818   2.472   2.295   3.748  0.3514 -0.6873 -0.0898
 7712SOL     OW23819   3.810   3.414   3.631 -0.1577 -0.2703 -0.6227
 7712SOL    HW123820   3.903   3.396   3.617 -0.3042 -0.2746 -1.6683
 7712SOL    HW223821   3.809   3.481   3.699  0.6251 -0.1129 -0.7513
 7713SOL     OW23822   4.967   2.918   5.348 -0.4873 -0.1586 -0.2665
 7713SOL    HW123823   4.898   2.853   5.334 -1.3827  0.3864  1.2701
 7713SOL    HW223824   5.023   2.878   5.416  1.1162 -0.8485 -1.8979
 7714SOL     OW23825   5.924   3.152   5.213  0.1135  0.4998 -0.4787
 7714SOL    HW123826   5.944   3.081   5.153  0.2580  1.6766 -1.8748
 7714SOL    HW223827   5.974   3.132   5.293  0.7781 -0.5269 -1.1370
 7715SOL     OW23828   5.615   2.425   5.004  0.1525 -0.0284 -0.1776
 7715SOL    HW123829   5.583   2.356   5.061 -0.4609 -0.9260 -1.5506
 7715SOL    HW223830   5.542   2.487   4.997  0.5526  0.5751  0.7079
 7716SOL     OW23831   4.912   1.888   1.003  0.2863 -0.4290  0.1909
 7716SOL    HW123832   4.997   1.844   1.005  0.5700  0.0881 -0.1881
 7716SOL    HW223833   4.920   1.952   0.932 -0.0160  0.4277  0.9126
 7717SOL     OW23834   6.468   5.454   1.125 -0.0926 -0.8725 -0.5585
 7717SOL    HW123835   6.445   5.423   1.212 -1.6763 -0.0200 -0.6373
 7717SOL    HW223836   6.550   5.502   1.137 -0.7941  0.0668  0.6419
 7718SOL     OW23837   3.582   5.236   1.859 -0.6508 -0.1916  0.0578
 7718SOL    HW123838   3.567   5.184   1.937 -1.1049 -0.7598 -0.4043
 7718SOL    HW223839   3.625   5.315   1.891  0.2603 -0.9456  0.7353
 7719SOL     OW23840   1.409   3.349   0.157  0.0599  0.5531  0.2343
 7719SOL    HW123841   1.334   3.306   0.117  0.6596 -1.7852  1.4295
 7719SOL    HW223842   1.470   3.363   0.084  0.0640 -1.2067 -0.1444
 7720SOL     OW23843   5.964   0.071   3.423  0.1516 -1.2243  0.8835
 7720SOL    HW123844   5.903   0.128   3.376 -0.3698 -3.5687 -1.5263
 7720SOL    HW223845   5.922   0.056   3.508  0.3258  1.8469  1.6589
 7721SOL     OW23846   0.512   3.555   3.685 -0.0778 -0.1572 -0.0776
 7721SOL    HW123847   0.496   3.587   3.597 -1.7676  0.1993  0.3236
 7721SOL    HW223848   0.555   3.470   3.672  0.9129  0.4831 -1.1972
 7722SOL     OW23849   0.536   5.965   5.496 -0.0157  0.2041 -0.5752
 7722SOL    HW123850   0.472   5.941   5.428 -0.3092  0.1509 -0.2828
 7722SOL    HW223851   0.618   5.924   5.468 -0.7384 -2.1321  0.4700
 7723SOL     OW23852   5.313   0.825   1.348  0.1994 -1.0555 -0.1696
 7723SOL    HW123853   5.392   0.860   1.306 -1.1737  0.1261 -1.8998
 7723SOL    HW223854   5.274   0.901   1.391 -0.8542 -1.2657 -0.7428
 7724SOL     OW23855   4.154   4.500   2.933 -0.6037 -0.0540  0.0023
 7724SOL    HW123856   4.222   4.469   2.874  0.3948  0.8725  0.6314
 7724SOL    HW223857   4.076   4.508   2.878 -0.0363 -0.4501 -0.8807
 7725SOL     OW23858   3.853   2.987   5.711  0.2840  0.1899  0.1786
 7725SOL    HW123859   3.814   2.931   5.643 -1.3602 -1.5452  2.3976
 7725SOL    HW223860   3.874   3.068   5.665 -1.3218 -0.6480 -2.2668
 7726SOL     OW23861   4.129   3.488   0.456  0.5330  0.1066  0.1364
 7726SOL    HW123862   4.052   3.479   0.400  1.3843  1.8168 -1.4105
 7726SOL    HW223863   4.146   3.399   0.487 -0.6227 -0.7353 -1.4461
 7727SOL     OW23864   5.994   4.081   2.262 -0.2913  0.7235  0.5825
 7727SOL    HW123865   6.087   4.083   2.284  0.1475 -0.0955 -1.1011
 7727SOL    HW223866   5.976   4.168   2.228  0.0130  0.6793  0.3050
 7728SOL     OW23867   4.342   2.087   3.652 -0.0136  0.0905  0.2247
 7728SOL    HW123868   4.292   2.043   3.584 -1.2040  0.7877  0.6255
 7728SOL    HW223869   4.427   2.042   3.653 -1.2377 -2.3599  0.8103
 7729SOL     OW23870   2.813   5.568   1.561  0.3512  0.2562  0.3490
 7729SOL    HW123871   2.829   5.498   1.625 -1.9696 -1.0535 -0.3731
 7729SOL    HW223872   2.898   5.610   1.550  1.4965 -1.4367  2.0053
 7730SOL     OW23873   2.593   6.303   0.023 -0.1217  0.1421  0.5165
 7730SOL    HW123874   2.586   6.389  -0.017  0.8337 -0.3306 -0.7321
 7730SOL    HW223875   2.686   6.281   0.019  0.1686  0.2879  3.5754
 7731SOL     OW23876   0.689   4.744   5.141 -0.5469 -0.2843 -0.0480
 7731SOL    HW123877   0.761   4.803   5.165  1.2788 -2.5329  0.3235
 7731SOL    HW223878   0.618   4.803   5.115  0.4798  2.1238  2.1213
 7732SOL     OW23879   5.885   4.806   3.166 -0.3866  0.4401  0.3013
 7732SOL    HW123880   5.973   4.776   3.188 -0.5052  0.7319  1.2223
 7732SOL    HW223881   5.842   4.818   3.251 -0.2135  3.5906  0.0622
 7733SOL     OW23882   6.250   3.196   4.864  0.4907 -0.2519  0.1245
 7733SOL    HW123883   6.279   3.211   4.774 -0.0428  0.3087  0.0385
 7733SOL    HW223884   6.276   3.275   4.911  1.1571 -0.7228  0.5737
 7734SOL     OW23885   2.677   0.112   1.815  0.0656 -0.5666 -0.0943
 7734SOL    HW123886   2.634   0.039   1.771 -0.3401 -1.0690  1.0764
 7734SOL    HW223887   2.681   0.085   1.907 -1.1067  1.3208  0.5792
 7735SOL     OW23888   5.252   5.284   3.155  0.0780  0.1121 -0.3280
 7735SOL    HW123889   5.318   5.218   3.134 -0.7357 -0.0832 -2.4793
 7735SOL    HW223890   5.261   5.297   3.250  2.9394 -0.1628 -0.4653
 7736SOL     OW23891   4.283   0.366   4.821  0.2068 -0.1456  0.0520
 7736SOL    HW123892   4.203   0.330   4.858 -0.5439  1.3907 -0.0162
 7736SOL    HW223893   4.328   0.290   4.783 -1.9932 -0.8367 -1.3717
 7737SOL     OW23894   1.532   0.799   1.658  0.6095  0.4370  0.0842
 7737SOL    HW123895   1.489   0.771   1.577  0.3809 -1.3960  0.7867
 7737SOL    HW223896   1.505   0.735   1.723  1.0383  1.6925  1.5623
 7738SOL     OW23897   4.202   5.179   3.829  0.7302 -0.4703  0.0376
 7738SOL    HW123898   4.261   5.248   3.799  1.4900 -0.7482  0.8358
 7738SOL    HW223899   4.167   5.211   3.912  0.3487 -0.6405 -0.0550
 7739SOL     OW23900   4.983   2.610   4.216 -0.2351  0.1667  0.0171
 7739SOL    HW123901   5.072   2.602   4.183 -0.5695 -0.3504 -0.7658
 7739SOL    HW223902   4.990   2.672   4.289  0.5494  1.1608 -0.8691
 7740SOL     OW23903   4.489   6.222   2.376 -0.2556  0.2648 -0.4400
 7740SOL    HW123904   4.502   6.143   2.429  0.9260  0.5422 -0.2799
 7740SOL    HW223905   4.529   6.201   2.291 -0.7443  0.3752 -0.7002
 7741SOL     OW23906   6.326   4.380   1.157  0.3892 -0.1003  0.1783
 7741SOL    HW123907   6.298   4.446   1.095  0.2848 -1.7591 -1.6235
 7741SOL    HW223908   6.356   4.307   1.103  1.2499 -1.2336  2.0744
 7742SOL     OW23909   0.467   2.741   5.036 -0.6268  0.1562 -0.0668
 7742SOL    HW123910   0.436   2.787   4.957 -0.2144  1.2315  0.3761
 7742SOL    HW223911   0.552   2.705   5.010 -0.2459  0.9613  0.0324
 7743SOL     OW23912   0.326   3.842   6.103 -0.1775  0.2176  0.0462
 7743SOL    HW123913   0.297   3.796   6.182  0.9484 -1.9176 -0.6926
 7743SOL    HW223914   0.247   3.851   6.050 -0.5044 -0.5702  0.3754
 7744SOL     OW23915   1.671   6.163   5.097  0.2123  0.3965 -0.1916
 7744SOL    HW123916   1.666   6.252   5.062  0.9077  0.9977  1.1570
 7744SOL    HW223917   1.586   6.124   5.074  0.6906  0.6338 -2.6828
 7745SOL     OW23918   0.838   1.249   0.107 -0.0686 -0.3356  0.3100
 7745SOL    HW123919   0.893   1.234   0.030  0.5260 -1.4925  0.9238
 7745SOL    HW223920   0.900   1.261   0.179 -0.5452  3.1409  0.2978
 7746SOL     OW23921   5.925   1.556   1.510  0.1018  1.1362 -0.2955
 7746SOL    HW123922   5.833   1.543   1.489 -0.5935  0.8818  2.4959
 7746SOL    HW223923   5.969   1.478   1.475 -1.5219 -1.1199  2.3030
 7747SOL     OW23924   0.803   0.885   6.458 -0.9099  0.2600  0.4184
 7747SOL    HW123925   0.790   0.810   6.515 -0.4870  0.6209  1.0094
 7747SOL    HW223926   0.717   0.926   6.452 -1.2066 -0.4372 -0.1572
 7748SOL     OW23927   4.248   6.373   5.118  0.4378 -0.5853 -0.4155
 7748SOL    HW123928   4.209   6.324   5.045  0.8084 -1.2505 -0.1742
 7748SOL    HW223929   4.177   6.380   5.182  0.2625 -0.4500 -0.6212
 7749SOL     OW23930   1.518   5.407   2.864  0.3009  0.3665  0.1374
 7749SOL    HW123931   1.597   5.390   2.813  0.8583  1.2843  0.6670
 7749SOL    HW223932   1.513   5.333   2.925  1.4913  0.9276  0.9642
 7750SOL     OW23933   4.020   0.446   3.194 -0.9398  0.1048  0.1655
 7750SOL    HW123934   4.112   0.421   3.202 -1.4601 -1.5393  1.7992
 7750SOL    HW223935   4.016   0.535   3.228  0.6197  1.9220 -3.7375
 7751SOL     OW23936   4.739   1.272   4.273  1.1843  0.3534 -0.1248
 7751SOL    HW123937   4.768   1.216   4.202  2.0359 -1.2107  1.3770
 7751SOL    HW223938   4.767   1.360   4.248 -0.5482  0.2553 -2.7328
 7752SOL     OW23939   0.372   6.201   0.445 -0.4694  0.0190 -0.3066
 7752SOL    HW123940   0.426   6.249   0.508  2.6413 -1.0966 -1.8807
 7752SOL    HW223941   0.346   6.122   0.492 -4.8480  2.4576  1.9836
 7753SOL     OW23942   4.304   2.201   1.775  0.0248 -0.1204  0.0484
 7753SOL    HW123943   4.293   2.249   1.693  0.1349 -0.8036 -0.3758
 7753SOL    HW223944   4.328   2.112   1.748  0.0913 -0.3473  0.8208
 7754SOL     OW23945   1.507   3.613   4.536  0.2262  0.4700 -0.5874
 7754SOL    HW123946   1.431   3.585   4.586 -0.4044  0.8156 -1.3270
 7754SOL    HW223947   1.565   3.537   4.535 -0.4755 -0.0764 -0.7029
 7755SOL     OW23948   1.823   6.497   6.454 -0.5321 -0.4302 -0.3040
 7755SOL    HW123949   1.752   6.545   6.496 -2.7720 -3.5769 -0.1454
 7755SOL    HW223950   1.853   6.435   6.521  2.0943  0.4761 -0.5390
 7756SOL     OW23951   2.354   2.953   4.993  0.3735 -0.5092  0.3348
 7756SOL    HW123952   2.348   3.012   5.069 -2.8542  0.8719 -0.8300
 7756SOL    HW223953   2.304   2.875   5.020  0.0377 -0.4174 -0.0162
 7757SOL     OW23954   4.418   3.756   1.807  0.6959  0.1340 -0.2559
 7757SOL    HW123955   4.447   3.682   1.753  0.0267 -0.2278 -0.1283
 7757SOL    HW223956   4.489   3.820   1.799  1.1874 -0.4305 -0.5422
 7758SOL     OW23957   6.467   1.230   3.220 -0.2897  0.1797  0.0164
 7758SOL    HW123958   6.400   1.251   3.154 -0.1192  0.3325 -0.1081
 7758SOL    HW223959   6.419   1.232   3.303 -0.1480  1.7454  0.0905
 7759SOL     OW23960   1.832   0.151   0.635 -0.1101 -0.3239  0.1480
 7759SOL    HW123961   1.768   0.181   0.571  0.9784 -2.3509 -2.0190
 7759SOL    HW223962   1.843   0.058   0.617  1.0982 -0.7449  2.5906
 7760SOL     OW23963   0.390   0.961   2.097 -0.3539  0.2839 -0.5829
 7760SOL    HW123964   0.304   0.991   2.127  0.3852  1.4419  0.5380
 7760SOL    HW223965   0.407   0.882   2.148 -1.1352 -0.5129 -1.5137
 7761SOL     OW23966   5.573   2.491   6.337  0.0825 -0.0476 -0.1728
 7761SOL    HW123967   5.638   2.421   6.330 -0.5476 -0.4793 -2.2710
 7761SOL    HW223968   5.539   2.502   6.248 -1.3866  1.4542  0.5158
 7762SOL     OW23969   0.478   2.110   6.276  0.4566  0.0469 -0.0887
 7762SOL    HW123970   0.489   2.089   6.183  1.5930 -2.3757  0.5349
 7762SOL    HW223971   0.414   2.182   6.276  1.3914  1.0226 -2.7946
 7763SOL     OW23972   6.052   0.285   1.199  0.1367 -0.2844  0.0116
 7763SOL    HW123973   5.992   0.356   1.175 -0.6102 -0.8694  0.0910
 7763SOL    HW223974   5.995   0.218   1.236  0.1210 -2.8159 -4.0221
 7764SOL     OW23975   4.290   1.345   4.245  0.1787 -0.3907  0.9211
 7764SOL    HW123976   4.360   1.409   4.234  1.4097 -1.3999  2.4759
 7764SOL    HW223977   4.258   1.360   4.334 -1.1061 -0.4660  0.5051
 7765SOL     OW23978   0.931   4.992   2.474 -0.8444 -0.3219 -0.4000
 7765SOL    HW123979   0.989   5.064   2.449  0.8661 -0.4592  2.5963
 7765SOL    HW223980   0.912   5.008   2.566 -1.2977 -3.0953  0.0763
 7766SOL     OW23981   1.088   4.793   0.258  0.3700  0.4049  0.4855
 7766SOL    HW123982   1.130   4.863   0.209  2.3719 -1.2867 -0.3624
 7766SOL    HW223983   1.147   4.718   0.249 -1.7980 -1.4948  1.0925
 7767SOL     OW23984   1.996   3.208   3.772  0.4254 -0.1139  0.4094
 7767SOL    HW123985   1.938   3.171   3.839 -0.1963 -0.1146 -0.1222
 7767SOL    HW223986   2.061   3.257   3.822  0.4817 -0.8373  1.0528
 7768SOL     OW23987   4.473   4.772   2.790 -0.2004 -0.0551  0.2066
 7768SOL    HW123988   4.463   4.845   2.730 -1.4845  0.2554  0.7638
 7768SOL    HW223989   4.478   4.695   2.734  0.0735  0.3561 -0.3415
 7769SOL     OW23990   4.725   0.908   4.858 -0.4692 -0.5693  0.4059
 7769SOL    HW123991   4.703   0.823   4.896  2.4146 -3.1685 -3.0129
 7769SOL    HW223992   4.645   0.934   4.811 -1.8145 -0.6390  2.5159
 7770SOL     OW23993   3.168   4.346   0.159  0.2469  0.1066  0.1997
 7770SOL    HW123994   3.210   4.424   0.123  0.5516 -0.9893 -2.0002
 7770SOL    HW223995   3.227   4.317   0.229  0.1976  1.7235  0.9654
 7771SOL     OW23996   0.090   0.105   1.759 -0.1372 -0.0677  0.2551
 7771SOL    HW123997   0.058   0.038   1.820  1.6345 -0.5670  0.7006
 7771SOL    HW223998   0.082   0.187   1.807  0.1223 -0.3095  0.7214
 7772SOL     OW23999   1.702   0.594   1.991 -0.3257  0.8626 -0.1860
 7772SOL    HW124000   1.776   0.577   2.049 -0.8189 -0.0078  0.2082
 7772SOL    HW224001   1.629   0.612   2.049 -1.0012 -0.7609 -0.4837
 7773SOL     OW24002   3.922   6.321   2.820 -0.4684 -0.3859 -0.2114
 7773SOL    HW124003   3.870   6.354   2.747 -0.0177 -1.3734 -1.0061
 7773SOL    HW224004   4.004   6.372   2.816 -0.4332 -0.4573 -0.4141
 7774SOL     OW24005   5.777   4.126   6.368  0.2388  0.3625  0.3188
 7774SOL    HW124006   5.835   4.191   6.326  1.2419 -0.4197  0.4529
 7774SOL    HW224007   5.837   4.070   6.417  0.2970 -4.0799 -4.0285
 7775SOL     OW24008   3.744   2.310   2.501  0.5082 -0.0008 -0.1378
 7775SOL    HW124009   3.750   2.243   2.570  2.0544 -0.2191 -0.4645
 7775SOL    HW224010   3.821   2.365   2.515  0.6668  0.1372 -1.5042
 7776SOL     OW24011   1.860   1.632   2.942  0.0696  0.1144  0.2905
 7776SOL    HW124012   1.818   1.548   2.961  0.6322 -0.6085 -1.4497
 7776SOL    HW224013   1.900   1.658   3.024  0.0441 -1.4221  0.8232
 7777SOL     OW24014   3.346   0.858   0.910 -0.1140 -0.6694 -0.0080
 7777SOL    HW124015   3.317   0.925   0.847 -0.2854 -0.2691  0.4898
 7777SOL    HW224016   3.379   0.787   0.855 -0.7820 -0.5652 -0.5673
 7778SOL     OW24017   2.598   3.631   4.746 -0.0013 -0.5207  0.0731
 7778SOL    HW124018   2.585   3.725   4.743  1.8149 -0.2059  0.5930
 7778SOL    HW224019   2.652   3.612   4.669  1.0291 -0.8531  0.8466
 7779SOL     OW24020   0.229   4.567   3.463  0.0815 -0.7860 -0.1927
 7779SOL    HW124021   0.311   4.572   3.414 -0.4143 -2.4289 -1.2838
 7779SOL    HW224022   0.255   4.573   3.555  0.9892  2.8742 -0.5210
 7780SOL     OW24023   2.107   6.448   3.143 -0.3121  0.5776 -0.0285
 7780SOL    HW124024   2.154   6.365   3.152 -1.1131  0.0574 -0.5884
 7780SOL    HW224025   2.113   6.488   3.230 -1.8583 -1.1127  0.9152
 7781SOL     OW24026   4.819   4.178   1.867  0.2105 -0.1034 -0.3173
 7781SOL    HW124027   4.760   4.116   1.823 -0.6676 -0.8531  1.7796
 7781SOL    HW224028   4.788   4.264   1.838 -1.1709 -0.5312 -0.2191
 7782SOL     OW24029   1.725   0.888   4.016 -0.1407 -0.1779  0.4930
 7782SOL    HW124030   1.793   0.920   4.076  0.1020  0.2036  0.0156
 7782SOL    HW224031   1.727   0.949   3.942  0.9580 -1.7965 -0.8858
 7783SOL     OW24032   1.609   0.056   2.279 -0.1746  0.2547 -0.4055
 7783SOL    HW124033   1.699   0.049   2.247  0.6179  1.1683  1.4333
 7783SOL    HW224034   1.588   0.149   2.273 -0.4947  0.2471  0.4214
 7784SOL     OW24035   1.610   5.259   1.384  0.8967  0.1362 -0.2797
 7784SOL    HW124036   1.645   5.170   1.383 -0.1892 -0.3142 -0.1721
 7784SOL    HW224037   1.525   5.250   1.429  0.3040  1.0365 -1.1841
 7785SOL     OW24038   4.468   2.772   5.723  0.1646 -0.5823  0.2708
 7785SOL    HW124039   4.557   2.739   5.734  0.3964 -0.5424 -1.3101
 7785SOL    HW224040   4.438   2.734   5.641 -0.2384  1.6173 -0.6587
 7786SOL     OW24041   0.119   1.606   2.883  0.2515 -0.1271  0.2411
 7786SOL    HW124042   0.031   1.635   2.904  0.7318  0.8761  0.9306
 7786SOL    HW224043   0.106   1.528   2.828 -1.0503 -0.9945  1.7105
 7787SOL     OW24044   6.488   6.266   3.865 -0.1675 -0.2862  0.0113
 7787SOL    HW124045   6.528   6.215   3.795 -2.1581 -1.5497 -0.2818
 7787SOL    HW224046   6.558   6.280   3.928  1.3873 -0.0619 -1.6971
 7788SOL     OW24047   5.103   6.426   5.587 -0.3459  0.3422  0.1307
 7788SOL    HW124048   5.158   6.497   5.555  3.8850 -1.2247  2.9488
 7788SOL    HW224049   5.102   6.363   5.516  0.0524  1.1835 -0.6362
 7789SOL     OW24050   3.607   5.039   3.524 -0.2547  0.2396 -0.6368
 7789SOL    HW124051   3.688   5.033   3.473 -0.8130 -0.7190 -1.4433
 7789SOL    HW224052   3.539   5.012   3.463 -1.1917  1.0620  0.0261
 7790SOL     OW24053   4.745   5.867   0.315 -0.2659  0.4607  0.4591
 7790SOL    HW124054   4.753   5.960   0.292 -1.0439  1.0812  2.4651
 7790SOL    HW224055   4.651   5.851   0.318 -0.1318 -0.4188  0.0533
 7791SOL     OW24056   2.695   5.806   4.603  0.3096  0.6330 -0.0199
 7791SOL    HW124057   2.704   5.843   4.691  2.0435 -0.6833  0.4052
 7791SOL    HW224058   2.612   5.758   4.606  0.6117  0.1405  1.1007
 7792SOL     OW24059   0.306   4.575   4.913 -0.0900  0.1494 -0.4231
 7792SOL    HW124060   0.317   4.670   4.901 -0.1630  0.3648  1.0069
 7792SOL    HW224061   0.214   4.559   4.892 -0.0666  0.3917 -0.7122
 7793SOL     OW24062   1.448   5.072   5.934 -0.6711  0.3398 -0.2571
 7793SOL    HW124063   1.511   5.089   6.004  2.3027 -1.8017 -2.1820
 7793SOL    HW224064   1.446   4.977   5.925 -3.8888  0.3132 -0.7204
 7794SOL     OW24065   4.968   5.488   4.875 -0.1513  0.5019  0.3181
 7794SOL    HW124066   5.027   5.541   4.928 -0.1238 -1.0589  1.9455
 7794SOL    HW224067   5.006   5.490   4.787  3.0132 -1.2534  1.4890
 7795SOL     OW24068   4.079   5.946   3.691  0.4859  0.4221 -0.1202
 7795SOL    HW124069   4.128   5.880   3.739 -1.0552 -0.2455  0.5923
 7795SOL    HW224070   4.109   5.937   3.600  0.9164 -0.6640  0.1193
 7796SOL     OW24071   2.603   4.932   3.825  0.2740  0.3383  0.5978
 7796SOL    HW124072   2.682   4.926   3.879  1.3565 -1.4875 -1.0584
 7796SOL    HW224073   2.563   4.846   3.832  0.4122  0.0639 -1.3965
 7797SOL     OW24074   4.959   0.026   1.548  0.2006  0.4669  0.3810
 7797SOL    HW124075   5.037  -0.005   1.595  0.7614 -0.4937 -1.1189
 7797SOL    HW224076   4.993   0.057   1.464 -1.0941 -0.5380 -0.5421
 7798SOL     OW24077   4.913   4.179   4.020 -0.7435  0.7328  0.5984
 7798SOL    HW124078   4.976   4.240   3.982 -0.5196 -0.0874 -0.4033
 7798SOL    HW224079   4.921   4.191   4.114  1.9445 -0.2966  0.5877
 7799SOL     OW24080   2.710   1.115   5.860  0.4804  0.2888 -0.0728
 7799SOL    HW124081   2.801   1.121   5.890  0.9856 -1.0394 -1.1984
 7799SOL    HW224082   2.660   1.089   5.937  1.0434  1.0414  0.5611
 7800SOL     OW24083   3.422   4.568   0.261 -0.8546 -0.2211 -0.7485
 7800SOL    HW124084   3.390   4.552   0.173 -1.2378 -0.7586 -0.5106
 7800SOL    HW224085   3.492   4.503   0.274  0.8318  1.3426 -1.5027
 7801SOL     OW24086   5.998   4.810   4.186 -0.2268  0.2128  0.3064
 7801SOL    HW124087   5.933   4.873   4.155  0.6970  1.5610  1.0330
 7801SOL    HW224088   6.064   4.807   4.116  0.6783  1.5120  1.0535
 7802SOL     OW24089   4.773   3.773   0.968 -0.5142  0.3120 -0.0615
 7802SOL    HW124090   4.848   3.742   1.018 -0.1424  0.4096 -0.5517
 7802SOL    HW224091   4.708   3.703   0.976 -1.1328  1.0578  1.9744
 7803SOL     OW24092   1.266   5.316   1.125  0.0458  0.0377 -0.0642
 7803SOL    HW124093   1.302   5.241   1.174  0.2187  1.1110  1.5311
 7803SOL    HW224094   1.174   5.319   1.150 -0.1275 -0.0527 -0.6816
 7804SOL     OW24095   5.751   0.972   4.005  0.0504  0.2038  0.1900
 7804SOL    HW124096   5.810   1.011   4.068 -0.6271 -0.5100  1.2967
 7804SOL    HW224097   5.705   0.903   4.053 -0.6160 -0.2504 -1.0245
 7805SOL     OW24098   2.288   0.181   6.005  0.2622  0.2013  0.2945
 7805SOL    HW124099   2.349   0.109   6.023 -0.8902 -1.1984 -1.1129
 7805SOL    HW224100   2.326   0.257   6.050  1.7395 -1.1768  1.4785
 7806SOL     OW24101   4.469   2.810   4.059  0.2343  0.4718 -0.0970
 7806SOL    HW124102   4.554   2.770   4.076  0.6885  1.1515 -0.6930
 7806SOL    HW224103   4.453   2.866   4.135 -0.4153 -0.8120  0.7521
 7807SOL     OW24104   3.228   0.189   6.167  0.6886  0.7544 -0.0726
 7807SOL    HW124105   3.296   0.198   6.233 -0.0348  0.0256  0.7995
 7807SOL    HW224106   3.239   0.265   6.110 -0.1347  2.7176  2.2292
 7808SOL     OW24107   6.106   5.615   6.109 -0.1726 -0.3195  0.3963
 7808SOL    HW124108   6.134   5.604   6.019  1.1419  0.1286  0.7208
 7808SOL    HW224109   6.107   5.710   6.124 -0.9647 -0.3493  0.7155
 7809SOL     OW24110   6.246   4.820   5.363  0.0561 -0.3177 -0.2077
 7809SOL    HW124111   6.278   4.847   5.449  1.9569  0.2289 -1.0301
 7809SOL    HW224112   6.152   4.807   5.376  0.1185  0.6882  1.7123
 7810SOL     OW24113   2.867   3.656   1.575 -0.0586  0.6198  0.0600
 7810SOL    HW124114   2.892   3.675   1.485 -0.0229 -0.2725 -0.1339
 7810SOL    HW224115   2.887   3.736   1.624 -0.7049  1.3544 -0.8416
 7811SOL     OW24116   5.423   4.710   4.726 -0.0270 -0.1831 -0.6300
 7811SOL    HW124117   5.423   4.672   4.638  1.0999  2.0239 -1.6596
 7811SOL    HW224118   5.349   4.771   4.726 -0.9605 -1.2703  0.5173
 7812SOL     OW24119   5.457   5.142   1.443 -0.2378 -0.1757 -0.0853
 7812SOL    HW124120   5.538   5.164   1.396  0.1134 -0.0540  0.5756
 7812SOL    HW224121   5.390   5.139   1.374  0.3750 -0.5417 -0.6702
 7813SOL     OW24122   0.349   2.484   0.425 -0.6811  0.0647 -0.1392
 7813SOL    HW124123   0.292   2.521   0.493 -0.8976  0.1814 -0.3800
 7813SOL    HW224124   0.305   2.507   0.343 -2.2886 -3.0020 -0.2914
 7814SOL     OW24125   5.885   0.277   2.373 -0.0307 -0.0292  0.2738
 7814SOL    HW124126   5.895   0.263   2.279  0.9808  1.5504  0.1123
 7814SOL    HW224127   5.959   0.232   2.413 -0.3991 -0.6063  0.3151
 7815SOL     OW24128   4.888   1.269   1.065  0.0357  0.3312  0.1787
 7815SOL    HW124129   4.822   1.205   1.091 -0.2078  0.6295  0.2989
 7815SOL    HW224130   4.915   1.241   0.977 -0.1909  0.1628  0.1616
 7816SOL     OW24131   2.099   2.400   1.493  0.4867 -0.3812 -0.4749
 7816SOL    HW124132   2.046   2.480   1.500 -0.5418 -1.1174  0.7569
 7816SOL    HW224133   2.083   2.368   1.404  0.0550  0.2148 -0.6173
 7817SOL     OW24134   5.502   0.718   1.728 -0.0858 -0.4537 -0.0470
 7817SOL    HW124135   5.563   0.660   1.684 -0.1873 -0.7991  0.2596
 7817SOL    HW224136   5.457   0.662   1.792  0.4268  0.1351  0.8540
 7818SOL     OW24137   4.021   3.821   4.046  0.2815  0.8049 -0.2283
 7818SOL    HW124138   3.978   3.814   4.131 -0.9062  1.0075 -0.7993
 7818SOL    HW224139   4.040   3.915   4.037  0.4116  0.7828 -0.1875
 7819SOL     OW24140   3.993   6.085   6.262 -0.2945  0.1440  0.2687
 7819SOL    HW124141   4.071   6.045   6.223 -1.1476 -1.4817  0.1240
 7819SOL    HW224142   3.935   6.102   6.188 -0.7742 -0.3052  0.5322
 7820SOL     OW24143   1.351   0.848   0.567  0.2741  0.2396  0.0555
 7820SOL    HW124144   1.364   0.782   0.499 -0.2833  0.4874 -0.2992
 7820SOL    HW224145   1.431   0.844   0.619 -0.0593 -1.2666  0.5255
 7821SOL     OW24146   1.209   5.625   0.422 -0.1179 -0.0660 -0.1387
 7821SOL    HW124147   1.195   5.694   0.487  1.5124 -0.6828  0.9273
 7821SOL    HW224148   1.233   5.548   0.474  0.4228 -0.7890 -1.4258
 7822SOL     OW24149   0.835   1.784   6.188 -0.7664  0.5792  0.1777
 7822SOL    HW124150   0.820   1.692   6.166 -0.9164  0.4630  0.7521
 7822SOL    HW224151   0.893   1.816   6.118  0.8407 -0.4501  0.9624
 7823SOL     OW24152   0.638   2.918   5.770  0.0068 -0.2744  0.5057
 7823SOL    HW124153   0.630   2.842   5.827  0.6767  1.0153  2.4274
 7823SOL    HW224154   0.709   2.969   5.808 -1.7412  2.3138  0.5647
 7824SOL     OW24155   0.688   1.737   5.864 -0.3317  0.6329  0.0955
 7824SOL    HW124156   0.660   1.784   5.786  0.7750  2.8728  0.9606
 7824SOL    HW224157   0.628   1.767   5.933 -0.0677  0.2112  0.5110
 7825SOL     OW24158   2.390   0.336   2.723 -0.0956 -0.4151  0.7301
 7825SOL    HW124159   2.354   0.311   2.637  2.6696 -0.5962 -0.4928
 7825SOL    HW224160   2.368   0.262   2.780 -1.1149 -0.7601 -0.0788
 7826SOL     OW24161   1.470   1.227   1.306 -0.7836  0.7813 -0.1883
 7826SOL    HW124162   1.546   1.280   1.281 -0.1488 -0.5255 -1.1881
 7826SOL    HW224163   1.412   1.288   1.350  1.5414  1.4937  2.1552
 7827SOL     OW24164   1.213   2.006   1.313 -0.3590 -0.6686  0.2728
 7827SOL    HW124165   1.245   1.917   1.327  0.9747  0.1842  3.6211
 7827SOL    HW224166   1.276   2.044   1.252  1.0729 -1.0877  1.4233
 7828SOL     OW24167   5.540   5.850   0.712  0.1457 -0.0376  0.1287
 7828SOL    HW124168   5.626   5.828   0.748 -0.2899 -1.3232  0.4766
 7828SOL    HW224169   5.555   5.925   0.655  1.2391  0.7013  1.3244
 7829SOL     OW24170   5.868   1.281   5.853  0.0246  0.5019 -0.4782
 7829SOL    HW124171   5.798   1.281   5.919  0.4075 -1.5732  0.0044
 7829SOL    HW224172   5.929   1.214   5.883 -0.1108 -1.0171 -3.2816
 7830SOL     OW24173   2.794   4.572   2.757  0.0755  0.1655  0.2803
 7830SOL    HW124174   2.735   4.647   2.758 -0.5930 -0.3551  0.4550
 7830SOL    HW224175   2.881   4.609   2.739 -0.3892  0.8772 -0.5468
 7831SOL     OW24176   6.121   5.185   1.119  0.0040  0.6053 -0.3948
 7831SOL    HW124177   6.171   5.128   1.178  0.9672  0.0728 -1.6553
 7831SOL    HW224178   6.135   5.273   1.153  0.5344  0.3094  0.1798
 7832SOL     OW24179   0.939   3.796   2.311  0.4403  0.1424 -0.2165
 7832SOL    HW124180   0.902   3.857   2.375  0.8495  0.0118  0.1479
 7832SOL    HW224181   0.965   3.851   2.237 -0.1475  0.2790 -0.3263
 7833SOL     OW24182   1.590   2.769   0.667  0.4956 -0.3098 -0.2367
 7833SOL    HW124183   1.572   2.791   0.575 -0.0638  0.0812 -0.0412
 7833SOL    HW224184   1.544   2.837   0.717  2.0873  0.4069  0.3095
 7834SOL     OW24185   2.836   4.243   5.188  0.0317  0.3283  0.3237
 7834SOL    HW124186   2.785   4.277   5.114  0.9588  0.8005 -0.1190
 7834SOL    HW224187   2.906   4.192   5.147  0.2447  0.1604  0.8922
 7835SOL     OW24188   5.693   2.003   2.493 -0.0624 -0.2305  0.3113
 7835SOL    HW124189   5.605   2.008   2.530 -0.4599 -0.9994 -0.4803
 7835SOL    HW224190   5.679   2.012   2.398  0.7566  0.0660  0.2121
 7836SOL     OW24191   5.954   5.740   2.454 -0.0966  0.8221 -0.0410
 7836SOL    HW124192   5.962   5.787   2.538 -0.7391  0.6499  0.1192
 7836SOL    HW224193   5.947   5.648   2.479  3.1511  0.3430 -0.4082
 7837SOL     OW24194   5.005   0.542   2.843 -0.8618 -0.2911  0.4091
 7837SOL    HW124195   4.912   0.559   2.861 -0.4947  0.7571  1.4209
 7837SOL    HW224196   5.029   0.604   2.775 -0.1111  1.8278  2.4726
 7838SOL     OW24197   2.577   3.136   5.087  0.4125  0.4042  0.2916
 7838SOL    HW124198   2.662   3.112   5.125 -0.6839 -1.5939  1.6910
 7838SOL    HW224199   2.559   3.066   5.024 -0.4346  0.4876  0.4292
 7839SOL     OW24200   1.027   0.311   0.838 -0.2916  0.1610  0.0209
 7839SOL    HW124201   1.056   0.240   0.781  1.6399  0.3656  0.6743
 7839SOL    HW224202   1.029   0.389   0.782  2.6541  0.5579  0.5203
 7840SOL     OW24203   3.808   0.654   1.850  0.0662  0.6101 -0.0729
 7840SOL    HW124204   3.809   0.588   1.920 -0.5822 -3.6352 -3.6203
 7840SOL    HW224205   3.901   0.676   1.837  0.3834 -0.2031  0.7085
 7841SOL     OW24206   4.899   2.633   2.300  0.5354  0.5244 -0.2271
 7841SOL    HW124207   4.941   2.551   2.326  0.1318 -0.5442 -2.6743
 7841SOL    HW224208   4.958   2.702   2.330  2.3973 -0.7912 -0.7409
 7842SOL     OW24209   3.451   6.269   1.583  0.0759 -0.2480  0.5043
 7842SOL    HW124210   3.531   6.217   1.580 -0.0808 -0.5913  1.8123
 7842SOL    HW224211   3.440   6.292   1.675 -0.9015  0.4793  0.2271
 7843SOL     OW24212   2.772   3.989   4.801 -0.0351 -0.2798 -0.4374
 7843SOL    HW124213   2.822   3.954   4.728 -1.7363 -2.4880 -0.6444
 7843SOL    HW224214   2.680   3.975   4.777 -0.6594 -1.9336  2.4244
 7844SOL     OW24215   3.868   6.240   1.367 -0.4022  0.4052  0.2090
 7844SOL    HW124216   3.820   6.179   1.310 -0.0299  0.4755 -0.1884
 7844SOL    HW224217   3.885   6.315   1.311  0.2041  0.3660  0.3329
 7845SOL     OW24218   1.860   6.168   0.749 -0.4348 -0.4014 -0.5662
 7845SOL    HW124219   1.767   6.168   0.774 -0.5272  1.4225 -0.7655
 7845SOL    HW224220   1.859   6.164   0.653 -0.3477  0.4408 -0.6082
 7846SOL     OW24221   5.257   0.262   6.039  0.4200  0.0260  0.0668
 7846SOL    HW124222   5.228   0.238   6.127  0.1981  0.0311 -0.0054
 7846SOL    HW224223   5.216   0.346   6.022  0.8502  0.2562  0.1478
 7847SOL     OW24224   4.183   1.423   1.581  0.1246 -0.4138 -0.5792
 7847SOL    HW124225   4.205   1.410   1.674 -0.7356 -0.1018 -0.3156
 7847SOL    HW224226   4.227   1.351   1.536  0.2782 -0.7695  0.1145
 7848SOL     OW24227   3.723   6.097   0.561  0.0741  0.1495 -0.0372
 7848SOL    HW124228   3.783   6.147   0.506 -0.5370 -0.0173 -0.8905
 7848SOL    HW224229   3.768   6.088   0.645  1.1053  0.2794 -0.5616
 7849SOL     OW24230   0.038   4.017   2.586  0.8703 -0.1097  0.2793
 7849SOL    HW124231  -0.014   3.941   2.561 -0.8234  0.6119  1.4561
 7849SOL    HW224232   0.010   4.037   2.675  1.8275  1.4559  0.2650
 7850SOL     OW24233   0.338   4.638   2.294 -0.2250  0.0050 -0.1363
 7850SOL    HW124234   0.287   4.716   2.314  1.8136  0.9561  1.7105
 7850SOL    HW224235   0.341   4.589   2.377  0.4223 -0.9008 -0.6744
 7851SOL     OW24236   5.688   4.907   5.042 -0.1956  0.5797 -0.3660
 7851SOL    HW124237   5.778   4.926   5.014  0.2868 -1.0695 -0.0317
 7851SOL    HW224238   5.660   4.834   4.987 -0.6650 -0.0923  0.7245
 7852SOL     OW24239   2.996   3.622   6.327 -0.0738 -0.1393  0.1947
 7852SOL    HW124240   3.045   3.644   6.406 -0.7887  0.8067  0.4048
 7852SOL    HW224241   3.008   3.528   6.316  1.0667 -0.0699  0.7125
 7853SOL     OW24242   4.728   3.838   4.415  0.4010  0.2716  1.1901
 7853SOL    HW124243   4.695   3.881   4.336  1.1492  1.7112  1.6245
 7853SOL    HW224244   4.823   3.835   4.403  0.3508 -2.1013  0.7998
 7854SOL     OW24245   4.746   1.047   2.509  0.9403 -0.3002  0.2163
 7854SOL    HW124246   4.806   1.108   2.551  0.2959 -0.6698  1.7281
 7854SOL    HW224247   4.665   1.055   2.559  0.3347 -1.2341 -0.5708
 7855SOL     OW24248   4.972   3.367   3.596 -0.4119 -0.2465  0.0537
 7855SOL    HW124249   5.028   3.408   3.662  0.0520 -0.5829 -0.1301
 7855SOL    HW224250   4.956   3.279   3.629 -2.7596  0.5604  1.2728
 7856SOL     OW24251   0.377   2.609   3.689 -0.0225 -0.1369 -0.1506
 7856SOL    HW124252   0.426   2.596   3.770  0.2219 -4.0939 -0.7659
 7856SOL    HW224253   0.300   2.660   3.715  0.1014 -1.2041  2.5444
 7857SOL     OW24254   1.584   4.664   2.406  0.0112 -0.0803  0.4805
 7857SOL    HW124255   1.627   4.588   2.367  0.2635 -0.3841  1.3157
 7857SOL    HW224256   1.505   4.629   2.446 -2.0252  0.7287 -2.5046
 7858SOL     OW24257   2.623   2.727   1.472  0.7459 -0.1781  0.3237
 7858SOL    HW124258   2.550   2.676   1.438  1.3936 -1.5820  0.9670
 7858SOL    HW224259   2.608   2.815   1.437 -0.4995 -0.7407 -0.6782
 7859SOL     OW24260   0.696   2.463   2.005 -0.2057 -0.3349  0.2398
 7859SOL    HW124261   0.766   2.522   1.977  0.1144 -0.1860  1.3036
 7859SOL    HW224262   0.616   2.501   1.968 -0.1857  1.5593  1.9776
 7860SOL     OW24263   1.445   4.382   2.831  0.0346 -0.3538  0.4328
 7860SOL    HW124264   1.480   4.349   2.913  0.3384 -0.1416  0.3886
 7860SOL    HW224265   1.404   4.465   2.854  0.5271 -0.0668  0.2903
 7861SOL     OW24266   4.365   1.096   4.516 -0.0692  0.2931  0.1469
 7861SOL    HW124267   4.352   1.022   4.457 -2.3778  0.2227  0.6312
 7861SOL    HW224268   4.443   1.140   4.483 -0.5746 -0.4314 -2.2153
 7862SOL     OW24269   6.305   3.609   4.583 -0.6241  0.3417 -0.1460
 7862SOL    HW124270   6.332   3.520   4.559  2.2261  0.2690  2.6191
 7862SOL    HW224271   6.344   3.665   4.516 -0.6148 -0.3470 -0.7244
 7863SOL     OW24272   4.878   3.306   3.983 -0.7176 -0.1238  0.0234
 7863SOL    HW124273   4.877   3.366   3.909 -0.4051 -0.4160 -0.2199
 7863SOL    HW224274   4.797   3.324   4.030 -0.2637  1.0644  0.4100
 7864SOL     OW24275   3.881   0.244   5.200 -0.1984  0.3945  0.3660
 7864SOL    HW124276   3.841   0.256   5.287 -1.4649 -0.9944  0.0166
 7864SOL    HW224277   3.974   0.260   5.214 -0.1418 -1.1877  2.3326
 7865SOL     OW24278   4.100   3.214   1.302 -0.1551  0.0375 -0.3159
 7865SOL    HW124279   4.188   3.187   1.277  0.3325  1.2730 -0.0165
 7865SOL    HW224280   4.088   3.178   1.390  1.1079  2.0064  0.7446
 7866SOL     OW24281   3.920   2.010   4.285 -0.1994  0.2342  0.6394
 7866SOL    HW124282   3.917   2.034   4.193 -0.1694 -0.5155  0.4351
 7866SOL    HW224283   3.831   1.982   4.306  0.1236 -0.9685  0.4470
 7867SOL     OW24284   5.316   3.212   1.888 -0.5222 -0.1106 -0.3426
 7867SOL    HW124285   5.268   3.148   1.941  0.4965  0.7376  1.6860
 7867SOL    HW224286   5.335   3.284   1.948  0.0672  1.2381 -2.0629
 7868SOL     OW24287   4.920   2.006   2.046 -0.6972  0.6795 -1.1796
 7868SOL    HW124288   4.905   1.922   2.088  0.7698  0.1483 -1.6435
 7868SOL    HW224289   4.860   2.007   1.972  0.0816 -0.5065 -1.8631
 7869SOL     OW24290   0.221   5.480   0.467 -0.1592  0.4627  0.4415
 7869SOL    HW124291   0.179   5.565   0.476  1.5000  1.6413 -1.8586
 7869SOL    HW224292   0.277   5.472   0.544  0.6470  2.1097  0.0741
 7870SOL     OW24293   0.420   2.058   2.148 -0.0356 -1.0237 -0.4924
 7870SOL    HW124294   0.482   2.114   2.102 -0.3051  0.1507  0.5296
 7870SOL    HW224295   0.368   2.117   2.202 -1.8390 -2.0209 -1.0505
 7871SOL     OW24296   3.621   6.265   3.283  0.2368 -0.0937  0.6947
 7871SOL    HW124297   3.655   6.179   3.311  0.8197 -0.0864  0.0303
 7871SOL    HW224298   3.683   6.294   3.216 -1.8454 -0.7472 -1.6620
 7872SOL     OW24299   5.451   2.798   5.837  0.0331  0.2302 -0.6118
 7872SOL    HW124300   5.398   2.854   5.895 -1.4825  0.3664 -2.0410
 7872SOL    HW224301   5.457   2.848   5.756 -1.0577 -1.4849 -1.8205
 7873SOL     OW24302   4.510   1.093   1.718 -0.3782  0.3219  0.1080
 7873SOL    HW124303   4.519   1.175   1.669 -1.0960  0.9525  0.9973
 7873SOL    HW224304   4.509   1.120   1.810 -1.3437 -0.6098  0.3953
 7874SOL     OW24305   5.162   2.180   1.345 -0.2867 -0.0775 -0.7854
 7874SOL    HW124306   5.098   2.252   1.347 -0.5339 -0.2637 -1.6273
 7874SOL    HW224307   5.109   2.101   1.334  0.0429 -0.2981 -0.7935
 7875SOL     OW24308   5.132   5.796   2.448 -0.0612 -0.3366 -0.2459
 7875SOL    HW124309   5.192   5.842   2.507  0.7937 -0.5973 -0.8931
 7875SOL    HW224310   5.082   5.738   2.506 -0.6931  0.9072  0.4821
 7876SOL     OW24311   1.728   0.288   2.645 -0.2371 -0.1161 -0.2832
 7876SOL    HW124312   1.813   0.325   2.622 -0.6356 -0.6624 -2.9983
 7876SOL    HW224313   1.744   0.194   2.651 -0.1510 -0.0072  1.9999
 7877SOL     OW24314   2.532   5.655   0.917 -0.1556  0.2671  0.0903
 7877SOL    HW124315   2.478   5.700   0.852 -1.1920 -0.0303  0.7156
 7877SOL    HW224316   2.572   5.726   0.968  2.0017  0.5608 -1.8468
 7878SOL     OW24317   5.804   2.380   5.615 -0.2239 -0.1070 -0.1472
 7878SOL    HW124318   5.716   2.417   5.619 -1.2782 -2.1078 -2.3635
 7878SOL    HW224319   5.796   2.292   5.652  1.1379  0.0867  0.6959
 7879SOL     OW24320   0.574   4.574   5.315 -0.2907  0.0112  0.3818
 7879SOL    HW124321   0.631   4.624   5.256 -0.7391 -0.0768 -0.1442
 7879SOL    HW224322   0.514   4.640   5.351 -0.5355 -0.0544  0.1045
 7880SOL     OW24323   2.435   0.100   2.862 -0.4964 -0.3367 -0.1715
 7880SOL    HW124324   2.495   0.048   2.808  0.4086  1.0354 -0.5342
 7880SOL    HW224325   2.469   0.089   2.951  1.2631  1.5611 -0.5207
 7881SOL     OW24326   0.228   0.157   0.704 -0.5437 -0.7857 -0.4760
 7881SOL    HW124327   0.288   0.120   0.768 -0.3288 -1.6026 -1.1242
 7881SOL    HW224328   0.249   0.250   0.701  1.2663 -1.1733 -1.2710
 7882SOL     OW24329   5.653   2.629   5.948  0.2265 -0.0768 -0.6663
 7882SOL    HW124330   5.687   2.680   6.022 -1.5060 -1.8736  1.5291
 7882SOL    HW224331   5.598   2.690   5.901  2.4140  1.4825 -1.3574
 7883SOL     OW24332   1.227   6.476   0.941 -0.5643  0.2334  0.3439
 7883SOL    HW124333   1.274   6.550   0.901  1.0747 -0.5754  0.6998
 7883SOL    HW224334   1.216   6.414   0.870 -1.0143  0.3712  0.2899
 7884SOL     OW24335   6.461   1.626   4.292 -0.4928 -0.0900  0.2042
 7884SOL    HW124336   6.454   1.705   4.346 -1.3266 -0.0759  0.0841
 7884SOL    HW224337   6.397   1.638   4.222  0.7559  0.0060 -0.9595
 7885SOL     OW24338   6.443   2.066   1.041 -0.6207 -0.3330 -0.4942
 7885SOL    HW124339   6.536   2.083   1.023 -0.3698 -0.7154  0.3872
 7885SOL    HW224340   6.397   2.104   0.966  0.0516  2.2739  0.2999
 7886SOL     OW24341   6.365   0.873   1.868 -0.7902  0.2139 -0.3579
 7886SOL    HW124342   6.307   0.877   1.944 -0.0704  0.7507  0.1784
 7886SOL    HW224343   6.316   0.917   1.798 -0.9768  0.7830  0.1245
 7887SOL     OW24344   0.548   1.049   6.203 -0.3347 -0.1642 -0.4345
 7887SOL    HW124345   0.601   1.089   6.134  0.2239  1.0086  0.6501
 7887SOL    HW224346   0.458   1.071   6.180 -0.0802  1.1902 -0.2092
 7888SOL     OW24347   2.569   1.834   2.505  0.0135 -0.2352 -0.3114
 7888SOL    HW124348   2.622   1.774   2.557  0.7765  0.5616 -0.1412
 7888SOL    HW224349   2.633   1.891   2.462 -0.6749  0.1939 -0.7924
 7889SOL     OW24350   5.486   2.093   1.654  0.1156 -0.3692  0.0730
 7889SOL    HW124351   5.482   2.055   1.566 -2.0034 -0.7315  0.2712
 7889SOL    HW224352   5.419   2.161   1.653  2.7488  2.4692  0.2191
 7890SOL     OW24353   4.106   3.745   5.628  0.1550  0.1205 -0.4861
 7890SOL    HW124354   4.097   3.671   5.688 -2.1015 -0.9771 -2.0183
 7890SOL    HW224355   4.102   3.822   5.684  0.0417 -0.8914  0.9460
 7891SOL     OW24356   1.987   1.070   2.848 -0.6377  0.0455  0.0533
 7891SOL    HW124357   1.951   1.109   2.927 -0.0689 -1.3940  1.0588
 7891SOL    HW224358   2.066   1.023   2.877  0.4048  0.6640 -1.5962
 7892SOL     OW24359   6.224   3.085   0.556 -0.1605  0.5584 -0.0566
 7892SOL    HW124360   6.201   3.169   0.517  0.6902  0.5388 -0.6166
 7892SOL    HW224361   6.140   3.041   0.567 -0.7728  2.0069  1.5410
 7893SOL     OW24362   5.867   3.560   4.381  0.0110  0.2800 -0.1682
 7893SOL    HW124363   5.899   3.487   4.434  1.0038  0.3153 -0.7076
 7893SOL    HW224364   5.771   3.551   4.384  0.1069 -0.8446  0.0485
 7894SOL     OW24365   1.854   2.233   0.337  0.0900 -0.2750  0.3124
 7894SOL    HW124366   1.937   2.277   0.353  0.0563 -0.3002  0.5655
 7894SOL    HW224367   1.849   2.166   0.406  0.4318 -1.0896 -0.4348
 7895SOL     OW24368   3.491   5.518   2.988  0.1174 -0.5501 -0.0692
 7895SOL    HW124369   3.467   5.426   2.996 -0.0584 -0.7527 -2.3455
 7895SOL    HW224370   3.559   5.519   2.920  1.1986  0.8523  0.9768
 7896SOL     OW24371   1.227   0.391   2.803 -0.1613  0.7092 -0.4501
 7896SOL    HW124372   1.226   0.336   2.881  0.2803  0.9607 -0.2654
 7896SOL    HW224373   1.272   0.338   2.737  1.6519  1.4154  0.1634
 7897SOL     OW24374   4.767   2.348   5.447  0.1235 -0.2968  0.3664
 7897SOL    HW124375   4.850   2.325   5.489  0.1929 -0.8903 -0.0778
 7897SOL    HW224376   4.785   2.341   5.354  0.3310  2.2605  0.1536
 7898SOL     OW24377   0.706   5.264   0.614 -0.0801  0.2497 -0.0106
 7898SOL    HW124378   0.618   5.229   0.598  0.4353 -0.3655 -1.7499
 7898SOL    HW224379   0.691   5.353   0.646 -1.3419  0.3725 -0.8680
 7899SOL     OW24380   3.952   1.651   2.134 -0.5161  1.0117 -0.6159
 7899SOL    HW124381   4.042   1.618   2.144 -1.1652 -0.4363  0.8565
 7899SOL    HW224382   3.926   1.621   2.047  0.0034  0.3497 -0.5547
 7900SOL     OW24383   3.787   6.041   5.666  0.3893 -0.4226 -0.4704
 7900SOL    HW124384   3.723   5.970   5.674  1.7871 -1.5029  2.5404
 7900SOL    HW224385   3.866   5.997   5.634  0.0249  0.7482 -3.2906
 7901SOL     OW24386   3.080   4.361   4.197  0.4098  0.0179  0.8165
 7901SOL    HW124387   3.141   4.322   4.260 -0.0754 -1.7962  0.2184
 7901SOL    HW224388   3.130   4.368   4.116  0.3931  0.3551  0.8336
 7902SOL     OW24389   0.377   3.344   5.888 -1.0599 -0.4682 -0.2479
 7902SOL    HW124390   0.410   3.254   5.887 -3.5403 -1.4388  0.0233
 7902SOL    HW224391   0.416   3.382   5.967 -0.8752 -1.6580  0.2639
 7903SOL     OW24392   2.470   6.476   2.079 -0.3208  0.4237  0.0559
 7903SOL    HW124393   2.565   6.483   2.089 -0.1911 -0.1274 -0.6787
 7903SOL    HW224394   2.456   6.476   1.985 -0.9591 -0.4719  0.1344
 7904SOL     OW24395   1.834   3.013   6.471  0.4822  0.6709  0.4564
 7904SOL    HW124396   1.887   2.937   6.496 -0.8928 -0.8226 -0.9186
 7904SOL    HW224397   1.891   3.064   6.413  0.3244 -1.1919 -1.4407
 7905SOL     OW24398   5.396   5.126   6.235 -0.0367 -0.7090 -0.7479
 7905SOL    HW124399   5.305   5.110   6.209  0.1276 -0.3695 -1.5840
 7905SOL    HW224400   5.408   5.076   6.315 -0.8931 -0.9481 -0.7635
 7906SOL     OW24401   2.338   2.586   2.700  0.2793 -0.5939  0.5003
 7906SOL    HW124402   2.274   2.592   2.771  0.8718 -0.2630  1.0173
 7906SOL    HW224403   2.364   2.494   2.699 -0.5235 -0.8261 -0.0088
 7907SOL     OW24404   3.337   3.692   4.709 -0.0387 -0.0927  0.4841
 7907SOL    HW124405   3.313   3.599   4.701  0.4811 -0.0887 -2.0728
 7907SOL    HW224406   3.425   3.696   4.672  1.4226  0.9292  3.7270
 7908SOL     OW24407   0.264   0.156   3.258  0.1119  0.2531 -0.1677
 7908SOL    HW124408   0.255   0.249   3.277 -2.0234 -0.1333  0.9884
 7908SOL    HW224409   0.265   0.114   3.344  0.9070 -0.8248 -0.6798
 7909SOL     OW24410   2.155   5.718   3.638  0.1012 -0.0082  0.1983
 7909SOL    HW124411   2.169   5.765   3.720  1.2150 -0.4411  0.2675
 7909SOL    HW224412   2.242   5.693   3.609 -0.1899  0.8525 -1.5584
 7910SOL     OW24413   4.066   2.837   5.600  1.0330  0.2113 -0.1687
 7910SOL    HW124414   4.140   2.899   5.602  0.3891  0.9905  1.9002
 7910SOL    HW224415   4.027   2.843   5.687 -0.9829 -0.8101 -0.9357
 7911SOL     OW24416   0.943   2.133   5.572  0.2098  0.0949 -0.4292
 7911SOL    HW124417   1.005   2.201   5.546  0.1961  0.3009  0.0541
 7911SOL    HW224418   0.997   2.055   5.586  0.6892  0.7366  1.8435
 7912SOL     OW24419   6.045   5.174   2.345  0.1840  0.1288  0.3444
 7912SOL    HW124420   6.109   5.167   2.416  0.2779  0.8420  0.3384
 7912SOL    HW224421   6.077   5.245   2.290  1.4324 -1.9333 -1.8022
 7913SOL     OW24422   3.055   1.402   2.695 -0.1633  0.7870 -0.1606
 7913SOL    HW124423   2.984   1.340   2.707  0.1960  0.2739 -0.6384
 7913SOL    HW224424   3.071   1.402   2.601 -0.4669  1.9556 -0.2266
 7914SOL     OW24425   1.337   3.537   2.567 -0.2871  0.0017 -0.0615
 7914SOL    HW124426   1.354   3.594   2.491  0.8552  1.4807  1.2270
 7914SOL    HW224427   1.423   3.502   2.590 -0.6080 -0.3664  0.5977
 7915SOL     OW24428   4.795   5.736   2.826  0.3679 -0.6154  0.4305
 7915SOL    HW124429   4.803   5.809   2.888 -1.8872 -0.7924  1.0262
 7915SOL    HW224430   4.837   5.662   2.871  0.9015 -0.1696  0.6849
 7916SOL     OW24431   2.451   4.243   3.590 -0.4423  0.2263 -0.2262
 7916SOL    HW124432   2.523   4.296   3.559 -0.4097 -0.1056 -0.7375
 7916SOL    HW224433   2.491   4.160   3.616 -0.6861 -0.1479 -0.9911
 7917SOL     OW24434   5.221   1.296   1.017 -0.1976  0.3687 -0.1675
 7917SOL    HW124435   5.226   1.216   1.069  1.1155  0.5808  0.0569
 7917SOL    HW224436   5.129   1.301   0.990 -0.6181 -0.4431  1.0262
 7918SOL     OW24437   3.863   1.322   0.855 -0.2700 -0.1768  0.1152
 7918SOL    HW124438   3.812   1.398   0.883  1.1524  1.0836 -0.5458
 7918SOL    HW224439   3.866   1.265   0.932 -0.3258  1.0232  1.0421
 7919SOL     OW24440   4.682   2.807   2.357  0.3987 -0.1898  0.1304
 7919SOL    HW124441   4.627   2.750   2.410 -1.9030 -0.0212 -1.9211
 7919SOL    HW224442   4.768   2.764   2.356 -0.5434 -2.1801  0.8335
 7920SOL     OW24443   1.450   6.318   1.021  0.3076 -0.3745  0.6274
 7920SOL    HW124444   1.465   6.302   0.928  1.8580  0.8387  0.6398
 7920SOL    HW224445   1.384   6.387   1.023 -0.3309 -0.9667  0.4607
 7921SOL     OW24446   0.300   5.265   6.436 -0.1570 -0.7116  0.3185
 7921SOL    HW124447   0.367   5.293   6.498  0.6933 -0.2003 -0.7918
 7921SOL    HW224448   0.255   5.346   6.413  2.3563 -0.0339 -2.9684
 7922SOL     OW24449   4.336   0.312   0.217 -0.1309  0.9050  0.5366
 7922SOL    HW124450   4.281   0.257   0.161  0.8569  0.8271 -0.4003
 7922SOL    HW224451   4.363   0.255   0.288  1.0683  0.0599 -0.5414
 7923SOL     OW24452   0.972   0.217   2.085 -0.5273 -0.2179 -0.6399
 7923SOL    HW124453   0.996   0.139   2.134 -0.2914  1.0565  1.3750
 7923SOL    HW224454   0.957   0.186   1.996 -0.3157 -2.5138  0.0755
 7924SOL     OW24455   0.618   0.041   3.656 -0.6954 -0.5267  0.2375
 7924SOL    HW124456   0.659  -0.045   3.664 -0.6248 -0.5381 -0.2341
 7924SOL    HW224457   0.570   0.052   3.738 -1.2538 -1.3095  0.0318
 7925SOL     OW24458   1.321   3.500   5.311  0.4109 -0.0573 -0.6153
 7925SOL    HW124459   1.242   3.505   5.258  0.1060  0.5263 -0.1279
 7925SOL    HW224460   1.341   3.592   5.332 -0.1771 -0.3085  1.2665
 7926SOL     OW24461   4.591   3.027   1.686  0.0483 -0.4617 -0.0482
 7926SOL    HW124462   4.608   3.013   1.593  0.1777 -1.6556  0.1390
 7926SOL    HW224463   4.666   3.076   1.718  1.3304 -2.3689 -0.0252
 7927SOL     OW24464   5.889   0.480   0.420  0.5194  0.3249  0.3145
 7927SOL    HW124465   5.855   0.503   0.333  0.0713 -0.6865  0.2156
 7927SOL    HW224466   5.978   0.515   0.420  0.1835  1.2186 -0.1735
 7928SOL     OW24467   5.791   1.111   2.090 -0.3342  0.2787 -0.2114
 7928SOL    HW124468   5.807   1.060   2.169  0.5135  1.1500  0.2107
 7928SOL    HW224469   5.861   1.086   2.030 -0.2311  0.5383 -0.2030
 7929SOL     OW24470   2.628   6.383   1.673  0.6677  0.0160  0.0551
 7929SOL    HW124471   2.550   6.328   1.676  0.2883  0.5886  1.4780
 7929SOL    HW224472   2.700   6.321   1.689  0.4488 -0.4093 -0.5768
 7930SOL     OW24473   6.255   4.992   1.262 -0.6391  0.2041 -0.4943
 7930SOL    HW124474   6.313   5.008   1.336 -1.0704 -0.4842  0.0009
 7930SOL    HW224475   6.301   4.927   1.209 -0.2337  0.8530 -0.9529
 7931SOL     OW24476   4.593   1.700   5.399 -0.4149 -0.0141 -0.0723
 7931SOL    HW124477   4.509   1.671   5.365 -0.5469 -0.6867  0.8061
 7931SOL    HW224478   4.599   1.661   5.486  0.7344  0.1486 -0.0594
 7932SOL     OW24479   0.096   6.501   1.242  0.3873  0.3640  0.0329
 7932SOL    HW124480   0.154   6.461   1.306  1.9816  0.4404 -1.2735
 7932SOL    HW224481   0.037   6.431   1.215  2.7586 -1.0933 -1.8043
 7933SOL     OW24482   1.434   6.467   2.971 -0.1244  0.2484  0.0187
 7933SOL    HW124483   1.515   6.513   2.992  0.8072 -1.5133  0.5250
 7933SOL    HW224484   1.382   6.472   3.051 -0.3635  1.0626 -0.1834
 7934SOL     OW24485   1.212   0.235   4.763  0.3876  0.2716 -0.2558
 7934SOL    HW124486   1.290   0.289   4.752  1.0823 -0.7662 -0.5059
 7934SOL    HW224487   1.158   0.255   4.686  0.9201  0.1480 -0.6606
 7935SOL     OW24488   4.745   3.973   5.967 -0.0520 -0.1929  0.0451
 7935SOL    HW124489   4.729   3.881   5.984 -0.3700 -0.0420  0.5982
 7935SOL    HW224490   4.668   4.002   5.918 -0.0765 -0.1577  0.1046
 7936SOL     OW24491   4.648   0.128   0.587  0.6759  0.5799 -0.6438
 7936SOL    HW124492   4.690   0.139   0.502  1.7450 -0.4259 -0.2747
 7936SOL    HW224493   4.713   0.155   0.650  0.4749 -0.1793 -0.0915
 7937SOL     OW24494   4.057   2.672   2.141  0.2692 -0.5377  0.2215
 7937SOL    HW124495   4.114   2.737   2.183 -1.0334 -0.5859  2.1869
 7937SOL    HW224496   4.039   2.608   2.209 -0.0685 -1.9289 -1.1198
 7938SOL     OW24497   2.885   0.209   5.376 -0.2578 -0.0498 -0.7164
 7938SOL    HW124498   2.842   0.143   5.430  1.4569 -1.0389 -0.4755
 7938SOL    HW224499   2.814   0.262   5.340 -1.5126  1.1518  3.0429
 7939SOL     OW24500   4.256   1.982   0.977  0.0108 -0.3399  0.7133
 7939SOL    HW124501   4.204   1.937   0.911  0.2338  0.1158  0.2219
 7939SOL    HW224502   4.339   2.001   0.934  0.7568 -1.4128  1.6064
 7940SOL     OW24503   6.239   3.998   2.017  0.2659 -0.0064 -0.0041
 7940SOL    HW124504   6.310   4.018   2.079 -1.7010  1.0914  2.0788
 7940SOL    HW224505   6.200   3.918   2.051  0.8826 -0.9820 -1.5303
 7941SOL     OW24506   1.368   0.253   2.537  1.0799  0.6864  0.5326
 7941SOL    HW124507   1.456   0.288   2.552  1.8149 -0.3307 -1.0791
 7941SOL    HW224508   1.355   0.262   2.442 -0.7829  1.2795  0.8028
 7942SOL     OW24509   3.321   2.953   1.820  0.1494 -0.3813  0.0194
 7942SOL    HW124510   3.233   2.945   1.782 -0.5855  2.5645  0.8098
 7942SOL    HW224511   3.306   2.955   1.914  1.3500 -1.8638  0.2816
 7943SOL     OW24512   2.784   1.142   0.550  0.0683 -0.2346  0.1317
 7943SOL    HW124513   2.867   1.096   0.560 -0.3222 -1.0568 -0.3339
 7943SOL    HW224514   2.795   1.193   0.469 -0.3956 -1.5096 -0.7631
 7944SOL     OW24515   6.148   5.803   0.646  0.5684 -0.3655  0.5489
 7944SOL    HW124516   6.086   5.841   0.708  0.1754  0.7484 -0.5077
 7944SOL    HW224517   6.234   5.822   0.685  0.3149 -2.2220  2.1927
 7945SOL     OW24518   1.372   2.699   4.894  0.0643  0.3416  0.0447
 7945SOL    HW124519   1.437   2.652   4.842 -1.3487 -0.2086 -1.3045
 7945SOL    HW224520   1.421   2.770   4.935  1.9906 -1.4741  1.0659
 7946SOL     OW24521   2.369   4.189   3.097  0.3016  0.4079 -0.4755
 7946SOL    HW124522   2.418   4.180   3.178  1.8176  0.3508 -1.3698
 7946SOL    HW224523   2.397   4.274   3.061  1.4993 -0.6280 -2.1089
 7947SOL     OW24524   2.873   0.778   0.450  0.2236  0.0915 -0.0116
 7947SOL    HW124525   2.845   0.710   0.388 -0.0373 -0.0435  0.2481
 7947SOL    HW224526   2.792   0.803   0.496  0.2766  0.7413 -0.2591
 7948SOL     OW24527   3.601   0.693   6.371  0.2868 -0.4824  0.1002
 7948SOL    HW124528   3.508   0.708   6.353  0.0594  0.3333  1.8533
 7948SOL    HW224529   3.604   0.604   6.406  0.4197 -1.1405 -1.4794
 7949SOL     OW24530   0.650   4.386   4.051  0.2193 -0.3014  0.2710
 7949SOL    HW124531   0.593   4.318   4.088 -0.7900 -0.3618 -1.3171
 7949SOL    HW224532   0.712   4.339   3.996  0.0359 -0.0219 -0.1837
 7950SOL     OW24533   2.249   0.840   5.212  0.3646  0.4539  0.6943
 7950SOL    HW124534   2.265   0.827   5.119  1.1044  0.8720  0.7601
 7950SOL    HW224535   2.335   0.860   5.249  0.8921 -3.5704  2.1497
 7951SOL     OW24536   2.757   5.938   1.302  0.5314  0.4376  0.1932
 7951SOL    HW124537   2.707   5.859   1.282 -0.7184  0.8334  1.6313
 7951SOL    HW224538   2.705   6.010   1.265  1.0301  0.6978 -0.0112
 7952SOL     OW24539   6.207   1.212   1.246 -0.1307  0.5911 -0.5243
 7952SOL    HW124540   6.182   1.141   1.187 -0.9995  0.2121  0.2754
 7952SOL    HW224541   6.288   1.246   1.209  2.1993 -2.9502  0.8438
 7953SOL     OW24542   5.049   6.157   2.005 -0.0071 -0.0742  0.3023
 7953SOL    HW124543   5.137   6.154   2.043 -0.2954  0.9707  1.1292
 7953SOL    HW224544   5.015   6.069   2.016  1.0103 -0.5488 -0.2240
 7954SOL     OW24545   3.542   6.441   2.076 -0.0240 -0.4176 -0.6610
 7954SOL    HW124546   3.613   6.496   2.111  0.0495 -0.2422 -1.0656
 7954SOL    HW224547   3.498   6.406   2.153 -0.2432  0.4359 -0.3900
 7955SOL     OW24548   3.224   5.048   5.255 -0.1489  0.4300  0.0956
 7955SOL    HW124549   3.252   5.038   5.164 -0.5623  0.8054 -0.0788
 7955SOL    HW224550   3.272   4.980   5.303  0.9641  0.9844 -0.2033
 7956SOL     OW24551   4.861   1.948   2.411 -0.0161  0.7491 -0.4992
 7956SOL    HW124552   4.776   1.906   2.404  0.1365  0.3515 -0.0304
 7956SOL    HW224553   4.850   2.034   2.369 -0.4463  0.4179 -1.0685
 7957SOL     OW24554   0.815   6.412   2.101  0.2759 -0.0063  0.0075
 7957SOL    HW124555   0.891   6.441   2.050  0.2419  0.5896  0.2859
 7957SOL    HW224556   0.853   6.364   2.175  0.3287 -0.7838 -0.5159
 7958SOL     OW24557   6.150   1.135   3.109 -0.3307 -0.1267  0.0323
 7958SOL    HW124558   6.141   1.120   3.203  1.7684 -1.3868  0.1168
 7958SOL    HW224559   6.136   1.049   3.070 -2.4027  0.6106 -0.9762
 7959SOL     OW24560   5.935   4.855   0.828  0.3190 -0.1548 -0.0760
 7959SOL    HW124561   6.000   4.878   0.895  0.9814  1.7032 -1.2618
 7959SOL    HW224562   5.985   4.808   0.761  0.5137  1.3397 -1.0246
 7960SOL     OW24563   2.328   2.612   6.266 -0.3830  0.2194  0.4057
 7960SOL    HW124564   2.322   2.638   6.357 -0.0930  0.7759  0.2663
 7960SOL    HW224565   2.413   2.646   6.236  0.3820 -1.5416  0.4393
 7961SOL     OW24566   6.284   4.661   0.729 -0.0133 -0.0593 -0.1108
 7961SOL    HW124567   6.199   4.630   0.697 -1.2546  1.2128  1.7320
 7961SOL    HW224568   6.280   4.756   0.717  0.4397  0.1845  1.5219
 7962SOL     OW24569   4.414   3.341   5.551  0.7236  0.1702 -0.2214
 7962SOL    HW124570   4.354   3.267   5.541  1.6985 -0.4195 -1.9761
 7962SOL    HW224571   4.494   3.302   5.584 -0.1570  1.1375  3.5602
 7963SOL     OW24572   3.875   0.535   5.782  0.2354 -0.7534 -0.3768
 7963SOL    HW124573   3.883   0.621   5.824 -0.6096 -1.0272  0.3824
 7963SOL    HW224574   3.947   0.532   5.720 -0.6773  1.1641 -1.6159
 7964SOL     OW24575   5.464   2.486   6.067 -0.2734 -0.1326 -0.1663
 7964SOL    HW124576   5.401   2.474   5.996 -0.2445  0.6464 -0.3336
 7964SOL    HW224577   5.538   2.531   6.026  1.7676 -3.5954 -0.6984
 7965SOL     OW24578   5.417   0.984   1.690  0.3332 -0.0497  0.0661
 7965SOL    HW124579   5.464   0.904   1.664  1.6020  0.5892  0.3117
 7965SOL    HW224580   5.410   0.978   1.785  2.7918  1.3017  0.4255
 7966SOL     OW24581   5.453   5.290   4.281  0.5120  0.1444 -0.4847
 7966SOL    HW124582   5.413   5.268   4.365 -2.2911  1.6141 -1.3061
 7966SOL    HW224583   5.479   5.381   4.290 -0.7162  0.6156 -1.4861
 7967SOL     OW24584   0.407   1.450   1.411  0.2842 -0.1725 -0.1835
 7967SOL    HW124585   0.452   1.369   1.435  0.9969  0.1708 -0.3366
 7967SOL    HW224586   0.420   1.458   1.316 -1.7614 -1.0613 -0.5975
 7968SOL     OW24587   1.631   5.539   4.273 -0.4642  0.0344  0.3109
 7968SOL    HW124588   1.553   5.540   4.216 -0.0125  0.4568 -0.3158
 7968SOL    HW224589   1.600   5.502   4.355 -1.1901 -0.3721 -0.1351
 7969SOL     OW24590   3.184   2.402   3.189  0.2399  0.3475 -0.0334
 7969SOL    HW124591   3.218   2.313   3.186  2.1160  1.0385 -0.8139
 7969SOL    HW224592   3.163   2.423   3.097  1.4521  1.2670 -0.1296
 7970SOL     OW24593   1.840   3.949   1.516 -0.8811 -0.1162 -0.1477
 7970SOL    HW124594   1.864   3.860   1.492 -0.8747 -0.0184 -0.5122
 7970SOL    HW224595   1.893   4.005   1.459  0.0152  0.1485  0.9091
 7971SOL     OW24596   5.090   0.134   5.864  0.8714  0.0059 -0.2689
 7971SOL    HW124597   5.009   0.184   5.876  1.2008  0.8580 -1.4896
 7971SOL    HW224598   5.158   0.188   5.905  0.9271 -0.4471  0.2580
 7972SOL     OW24599   3.504   0.149   1.247  0.6205  0.0605 -0.5433
 7972SOL    HW124600   3.409   0.155   1.233  0.3126  1.5125  1.7223
 7972SOL    HW224601   3.540   0.135   1.159 -1.5487  1.3370 -1.7138
 7973SOL     OW24602   2.194   5.860   1.316 -0.5029 -0.7766 -0.4535
 7973SOL    HW124603   2.213   5.860   1.222  0.1016 -2.9340 -0.3975
 7973SOL    HW224604   2.144   5.779   1.330  1.2642 -1.6426  1.3526
 7974SOL     OW24605   2.000   3.011   5.582 -0.6558 -0.3605 -0.3615
 7974SOL    HW124606   2.010   2.922   5.616  1.1059  0.0931  0.3979
 7974SOL    HW224607   1.981   3.064   5.659 -0.7329  0.0665 -0.6717
 7975SOL     OW24608   5.351   4.578   0.958 -0.1399 -0.0137  0.8292
 7975SOL    HW124609   5.440   4.612   0.948 -0.0588 -0.1015  1.2328
 7975SOL    HW224610   5.312   4.632   1.026 -0.1770 -0.3914  1.1147
 7976SOL     OW24611   1.421   0.149   0.806 -0.4140 -0.1242  0.0146
 7976SOL    HW124612   1.499   0.098   0.826 -0.5151 -0.6377 -0.8405
 7976SOL    HW224613   1.453   0.236   0.783 -0.1830 -0.0230  0.6939
 7977SOL     OW24614   5.695   5.833   3.919  0.1400 -0.4197 -0.0903
 7977SOL    HW124615   5.673   5.791   3.836  0.9937  0.9421 -1.0392
 7977SOL    HW224616   5.785   5.806   3.937 -0.1087 -0.8710  0.5064
 7978SOL     OW24617   3.913   2.603   5.739 -0.2524  0.2904  0.3612
 7978SOL    HW124618   3.926   2.595   5.645 -0.8950 -1.0089  0.3520
 7978SOL    HW224619   3.961   2.681   5.764  2.6670 -1.1063 -0.5112
 7979SOL     OW24620   2.451   4.719   0.448 -0.3340 -0.3196  0.2437
 7979SOL    HW124621   2.519   4.658   0.422  0.5395  0.1735  1.2654
 7979SOL    HW224622   2.497   4.803   0.455 -1.1703  0.1303  0.4039
 7980SOL     OW24623   4.603   5.523   1.524  0.3208  0.3774 -0.9580
 7980SOL    HW124624   4.617   5.525   1.429 -1.0579 -0.0476 -1.1832
 7980SOL    HW224625   4.668   5.460   1.556 -2.0608 -2.9558 -2.1817
 7981SOL     OW24626   0.976   6.412   4.062 -0.2581  0.2287  0.2521
 7981SOL    HW124627   0.947   6.322   4.075  0.6015 -0.1272 -0.2157
 7981SOL    HW224628   1.070   6.405   4.047 -0.4815  1.0064 -1.7606
 7982SOL     OW24629   5.439   2.595   2.377 -0.1307  0.0662  0.2842
 7982SOL    HW124630   5.378   2.577   2.306  1.2182  0.0475 -0.9218
 7982SOL    HW224631   5.486   2.513   2.390  0.8392  0.5512 -0.0401
 7983SOL     OW24632   5.857   2.645   0.808 -0.2431 -0.1543  0.4901
 7983SOL    HW124633   5.817   2.722   0.768 -0.3980 -0.3888  0.1935
 7983SOL    HW224634   5.846   2.660   0.902 -1.4930 -0.4398  0.4143
 7984SOL     OW24635   5.739   5.442   3.416 -0.0460  0.2388  1.0242
 7984SOL    HW124636   5.702   5.426   3.330 -1.9533  0.6987  1.7216
 7984SOL    HW224637   5.829   5.468   3.399 -0.1707 -0.3862 -0.7646
 7985SOL     OW24638   1.501   0.166   1.896  0.1899  0.0040  0.1698
 7985SOL    HW124639   1.518   0.089   1.950 -0.5131 -0.3115 -0.0483
 7985SOL    HW224640   1.425   0.207   1.937 -0.5256 -0.3960 -0.7360
 7986SOL     OW24641   2.086   5.856   0.415  0.2831 -0.0309  0.7435
 7986SOL    HW124642   2.021   5.898   0.471 -0.4384 -0.1641  0.0444
 7986SOL    HW224643   2.138   5.928   0.380 -0.4354  0.2281  0.1743
 7987SOL     OW24644   1.891   0.749   4.336 -0.6006  0.3240 -0.4863
 7987SOL    HW124645   1.876   0.842   4.315  1.4555  0.2335 -2.8809
 7987SOL    HW224646   1.891   0.706   4.251  4.4608 -0.8362 -0.2037
 7988SOL     OW24647   4.662   0.274   2.901  0.2224 -0.7277  0.1625
 7988SOL    HW124648   4.648   0.289   2.807  0.0430  0.1522  0.3132
 7988SOL    HW224649   4.585   0.224   2.929 -1.4929  1.8708  0.4724
 7989SOL     OW24650   5.106   2.768   3.183  0.1900 -0.0273 -0.5599
 7989SOL    HW124651   5.144   2.705   3.244  0.2258  0.3898 -0.1473
 7989SOL    HW224652   5.020   2.732   3.162  0.0987 -0.0765 -0.1119
 7990SOL     OW24653   3.348   4.279   0.746 -0.1698 -0.5305 -0.4129
 7990SOL    HW124654   3.281   4.211   0.748 -0.9016  0.1846  0.0788
 7990SOL    HW224655   3.320   4.337   0.675  0.3342 -0.6211 -0.6899
 7991SOL     OW24656   5.059   4.136   1.707  0.2538 -0.5919 -0.2126
 7991SOL    HW124657   5.001   4.160   1.780 -1.0347 -1.0551 -1.0525
 7991SOL    HW224658   5.086   4.220   1.669 -0.6044 -0.3755 -0.3650
 7992SOL     OW24659   1.984   0.774   2.748 -0.7057  0.5783  0.1698
 7992SOL    HW124660   1.998   0.734   2.834 -0.8969 -0.4236 -0.2544
 7992SOL    HW224661   2.059   0.746   2.696 -1.2999  0.0284 -0.3991
 7993SOL     OW24662   3.872   3.961   4.661  0.4644  0.2913  0.2806
 7993SOL    HW124663   3.809   3.915   4.717  0.9122 -0.8085 -0.0910
 7993SOL    HW224664   3.953   3.912   4.671  0.4996 -0.0560 -1.4931
 7994SOL     OW24665   3.680   0.976   0.736  0.3963 -0.4741 -0.4278
 7994SOL    HW124666   3.703   0.944   0.823  0.0434  1.1608  0.3139
 7994SOL    HW224667   3.756   1.028   0.709  0.8505 -1.6380 -1.4762
 7995SOL     OW24668   2.590   4.289   0.444 -0.8559  0.1705 -0.4520
 7995SOL    HW124669   2.643   4.253   0.373  0.8569 -0.5265  1.1195
 7995SOL    HW224670   2.528   4.219   0.466 -1.1181  0.2364 -0.9543
 7996SOL     OW24671   1.718   5.125   3.669 -0.0149 -0.1255 -0.3046
 7996SOL    HW124672   1.748   5.175   3.746 -0.1621 -0.0589 -0.2895
 7996SOL    HW224673   1.652   5.065   3.704 -1.8139  1.4823 -0.7094
 7997SOL     OW24674   4.201   2.157   1.165 -0.4580 -0.1205 -0.3903
 7997SOL    HW124675   4.280   2.161   1.220 -1.3108 -3.1746  1.2713
 7997SOL    HW224676   4.229   2.111   1.086 -0.0819  0.9555 -0.9057
 7998SOL     OW24677   3.695   2.442   1.493 -0.3619  0.0297  0.7221
 7998SOL    HW124678   3.721   2.360   1.451 -0.0177 -0.7731  2.4375
 7998SOL    HW224679   3.772   2.469   1.543 -0.6550  1.1198  0.6076
 7999SOL     OW24680   4.205   2.685   1.639 -0.4758 -0.3641 -0.4754
 7999SOL    HW124681   4.241   2.768   1.670  0.4839 -0.1714 -2.0269
 7999SOL    HW224682   4.189   2.635   1.719  0.1700  0.8188  0.4225
 8000SOL     OW24683   1.572   2.033   6.217  0.5134  0.5115  0.3134
 8000SOL    HW124684   1.511   2.106   6.207 -1.0967 -0.7900  0.2315
 8000SOL    HW224685   1.518   1.960   6.246  1.5234 -1.4570 -2.3532
 8001SOL     OW24686   2.417   3.020   5.253 -0.1103  0.5969  0.1131
 8001SOL    HW124687   2.479   3.060   5.192 -0.7609  1.0327 -0.2808
 8001SOL    HW224688   2.466   2.949   5.294  0.5288  0.6857 -0.4698
 8002SOL     OW24689   0.240   1.510   2.161 -0.0487 -0.0389 -0.4604
 8002SOL    HW124690   0.211   1.570   2.229  0.8626  0.1243 -0.1983
 8002SOL    HW224691   0.159   1.478   2.121 -0.5705  0.5428  0.1032
 8003SOL     OW24692   5.320   6.394   5.025  0.3641  0.3499 -0.0581
 8003SOL    HW124693   5.229   6.416   5.002 -0.0494 -0.1522  1.0313
 8003SOL    HW224694   5.340   6.452   5.098  0.3571 -0.6403  0.7507
 8004SOL     OW24695   5.278   5.315   5.009  0.3964 -0.2405 -0.0873
 8004SOL    HW124696   5.196   5.340   5.051  0.2489  1.0341 -1.0665
 8004SOL    HW224697   5.299   5.389   4.952  2.3662 -0.4437  0.3339
 8005SOL     OW24698   2.121   1.905   5.851  0.5517  0.3896 -0.0286
 8005SOL    HW124699   2.061   1.980   5.847  1.0651  0.8239  0.3676
 8005SOL    HW224700   2.187   1.923   5.784  1.7805  1.2692  1.3574
 8006SOL     OW24701   4.013   0.558   4.592  0.0692 -0.7817 -0.1127
 8006SOL    HW124702   3.986   0.613   4.519 -0.6519 -0.8232  0.1131
 8006SOL    HW224703   4.094   0.597   4.623  0.1620 -0.5194 -0.6712
 8007SOL     OW24704   4.080   5.210   1.224 -0.5817  0.6547  0.7296
 8007SOL    HW124705   4.082   5.152   1.149 -1.4011 -1.4326  2.2373
 8007SOL    HW224706   4.016   5.278   1.200 -2.5177 -1.2072  0.3487
 8008SOL     OW24707   3.672   4.283   4.114  0.1372  0.1688  0.3044
 8008SOL    HW124708   3.638   4.340   4.044 -0.0733 -0.3478 -0.0213
 8008SOL    HW224709   3.766   4.299   4.114 -0.0618  1.5176  1.1208
 8009SOL     OW24710   6.233   0.264   4.153 -0.3534  0.0918  0.2498
 8009SOL    HW124711   6.253   0.188   4.099 -0.9499 -1.3049  1.8827
 8009SOL    HW224712   6.138   0.276   4.143 -0.6626 -0.8260  1.6800
 8010SOL     OW24713   1.844   0.100   2.151  0.2044  0.3305 -0.0205
 8010SOL    HW124714   1.845   0.190   2.118 -1.4570  0.9271  1.3970
 8010SOL    HW224715   1.928   0.064   2.125  0.9069  2.2964 -0.6455
 8011SOL     OW24716   5.881   2.445   6.235  0.0542 -0.1465 -0.1506
 8011SOL    HW124717   5.930   2.407   6.307 -0.1637  0.4104  0.3059
 8011SOL    HW224718   5.913   2.535   6.229 -0.4084  0.0134 -0.3022
 8012SOL     OW24719   0.374   0.955   3.195 -0.3628  0.3035  0.1551
 8012SOL    HW124720   0.402   0.864   3.203  1.6558  0.9475  0.9158
 8012SOL    HW224721   0.375   0.972   3.101 -0.7637 -0.4299  0.0046
 8013SOL     OW24722   6.282   5.134   0.874 -0.3231 -0.5363 -0.2120
 8013SOL    HW124723   6.368   5.119   0.914 -0.4122 -0.6367 -0.0583
 8013SOL    HW224724   6.243   5.203   0.928 -0.8951 -1.4377  0.5586
 8014SOL     OW24725   2.079   2.457   4.468  0.5690  0.6412 -0.4776
 8014SOL    HW124726   2.089   2.551   4.486  1.3753  0.2638  1.2798
 8014SOL    HW224727   2.153   2.435   4.411 -0.0775  1.2036 -1.5694
 8015SOL     OW24728   5.854   0.364   0.075  0.3687 -0.4124  0.2705
 8015SOL    HW124729   5.847   0.453   0.111  0.4182 -0.1064 -0.4662
 8015SOL    HW224730   5.775   0.320   0.106 -0.1328  0.1816 -0.1435
 8016SOL     OW24731   4.581   0.140   3.711 -0.2177  0.0321 -0.2634
 8016SOL    HW124732   4.522   0.091   3.769  0.3125 -1.8241 -1.1926
 8016SOL    HW224733   4.551   0.118   3.623  0.9762  0.1861 -0.7242
 8017SOL     OW24734   1.167   4.445   5.588  0.4173  0.1223  0.0538
 8017SOL    HW124735   1.232   4.426   5.656  0.1260  1.5435  0.7748
 8017SOL    HW224736   1.114   4.516   5.625 -1.7082 -1.1354 -0.4184
 8018SOL     OW24737   1.638   2.906   5.508  0.1678 -0.3969 -0.4451
 8018SOL    HW124738   1.644   2.814   5.533 -0.6380 -0.4977 -0.5964
 8018SOL    HW224739   1.656   2.954   5.589  0.2592 -0.6887 -0.2902
 8019SOL     OW24740   0.717   6.486   4.182 -0.1464 -0.0204  0.5647
 8019SOL    HW124741   0.743   6.578   4.179 -1.2613  0.3112  0.4915
 8019SOL    HW224742   0.783   6.440   4.130 -0.8723  1.0781 -1.4158
 8020SOL     OW24743   1.467   0.058   4.648  0.3169  0.4229  0.3102
 8020SOL    HW124744   1.531   0.015   4.705 -1.5993 -2.5896  0.3964
 8020SOL    HW224745   1.383   0.044   4.692 -0.7386  1.7597 -1.1833
 8021SOL     OW24746   5.561   5.849   0.003 -0.8682  0.4839  0.5556
 8021SOL    HW124747   5.597   5.816   0.085  1.5163  2.6519  0.5050
 8021SOL    HW224748   5.481   5.895   0.029 -0.8768 -0.0078  1.4538
 8022SOL     OW24749   3.899   4.072   5.705 -0.0284  0.0688 -0.0909
 8022SOL    HW124750   3.987   4.104   5.726 -0.0056 -0.4557  0.6926
 8022SOL    HW224751   3.890   3.993   5.759 -1.1079  0.3065  0.0967
 8023SOL     OW24752   2.153   4.913   5.270 -0.1747  0.2291  0.0882
 8023SOL    HW124753   2.166   4.818   5.277 -1.0624  0.1782  1.6481
 8023SOL    HW224754   2.239   4.950   5.290  0.1199 -0.2379 -0.2783
 8024SOL     OW24755   5.824   3.706   1.003 -0.9915  0.2036  0.4874
 8024SOL    HW124756   5.892   3.716   1.070 -1.8745  0.6918  1.3501
 8024SOL    HW224757   5.764   3.641   1.041 -1.0978 -0.0900 -0.1824
 8025SOL     OW24758   4.399   5.998   4.761 -0.6878  0.1597  0.6198
 8025SOL    HW124759   4.325   6.053   4.734 -0.9523 -0.9954 -1.1449
 8025SOL    HW224760   4.397   5.924   4.701  1.2145 -0.4996  1.3006
 8026SOL     OW24761   2.412   0.576   4.974  0.0717 -0.1854  0.2085
 8026SOL    HW124762   2.384   0.532   5.054 -1.0042  0.3828  0.1607
 8026SOL    HW224763   2.339   0.563   4.913  0.7421 -0.3411 -0.5864
 8027SOL     OW24764   3.785   4.624   5.395 -0.0951  0.3522 -0.1179
 8027SOL    HW124765   3.861   4.590   5.443 -0.0082  0.1802 -0.3693
 8027SOL    HW224766   3.818   4.701   5.349  0.0546  0.0063 -0.6032
 8028SOL     OW24767   0.989   1.880   5.324 -0.5237 -0.7173 -0.5385
 8028SOL    HW124768   1.023   1.964   5.296 -0.3742 -0.9428 -1.0432
 8028SOL    HW224769   1.040   1.858   5.402 -1.5269  0.3174  0.4451
 8029SOL     OW24770   0.732   0.458   0.874  0.1007 -0.5309 -0.0199
 8029SOL    HW124771   0.711   0.548   0.848 -1.8586 -0.5951  1.1272
 8029SOL    HW224772   0.765   0.418   0.793  2.8898  1.6460 -0.1323
 8030SOL     OW24773   5.868   6.477   3.776 -0.0483  0.2516  0.1001
 8030SOL    HW124774   5.936   6.467   3.843 -0.4904  0.6526  0.6198
 8030SOL    HW224775   5.880   6.403   3.717  0.2323 -0.2044  0.7313
 8031SOL     OW24776   6.433   0.578   0.035  0.0875  0.4022  0.8397
 8031SOL    HW124777   6.417   0.649  -0.028  0.9678 -0.2019 -0.0983
 8031SOL    HW224778   6.511   0.604   0.082  0.9082 -0.2941 -0.0844
 8032SOL     OW24779   6.368   0.570   2.424 -0.2926  0.0664  0.4027
 8032SOL    HW124780   6.356   0.636   2.492 -1.8714  0.5024 -0.2513
 8032SOL    HW224781   6.280   0.536   2.408  0.0132  0.0616 -1.5049
 8033SOL     OW24782   4.081   0.455   6.148  0.1009 -0.0980  0.0409
 8033SOL    HW124783   4.068   0.360   6.150 -0.1891 -0.0543  1.2458
 8033SOL    HW224784   4.006   0.491   6.196 -0.1500  0.7961 -0.9714
 8034SOL     OW24785   5.778   6.173   4.089 -0.6404  0.0226  0.0201
 8034SOL    HW124786   5.835   6.155   4.014 -0.0990  0.4687  0.3176
 8034SOL    HW224787   5.722   6.245   4.061 -0.2099  0.4165  0.1473
 8035SOL     OW24788   5.947   3.682   1.872 -0.5348 -0.2415 -0.3704
 8035SOL    HW124789   5.923   3.769   1.904  2.0994  0.4156  0.0710
 8035SOL    HW224790   5.870   3.628   1.887 -0.9282  1.0589  3.1505
 8036SOL     OW24791   5.820   3.270   1.874  0.5195 -0.3446 -0.1347
 8036SOL    HW124792   5.872   3.224   1.940  1.3167  0.2211 -0.3504
 8036SOL    HW224793   5.881   3.286   1.802 -0.5974 -1.8946 -1.4863
 8037SOL     OW24794   5.857   5.790   3.605  0.8354  0.2465  0.0377
 8037SOL    HW124795   5.919   5.859   3.582 -0.5642  1.2573 -0.8611
 8037SOL    HW224796   5.782   5.805   3.548  0.9617 -2.8078 -1.1105
 8038SOL     OW24797   1.506   1.521   2.876  0.1897 -0.5868 -0.2710
 8038SOL    HW124798   1.412   1.509   2.892 -0.1727  2.1279  0.1713
 8038SOL    HW224799   1.541   1.551   2.960  0.8246  1.2767 -1.1256
 8039SOL     OW24800   1.353   2.982   3.780  0.4526 -0.7973 -0.1473
 8039SOL    HW124801   1.433   3.004   3.732  0.5578  0.0049  0.3894
 8039SOL    HW224802   1.306   3.065   3.788  0.1505 -1.0360  0.6136
 8040SOL     OW24803   4.633   0.517   3.430 -0.2348  0.1640 -0.1920
 8040SOL    HW124804   4.651   0.481   3.517  1.9971  3.1396  0.7608
 8040SOL    HW224805   4.697   0.476   3.373  0.5078  0.5819  0.3174
 8041SOL     OW24806   5.626   0.459   2.915  0.6750  0.3333 -0.2164
 8041SOL    HW124807   5.555   0.424   2.969  0.9267 -0.1194 -0.1752
 8041SOL    HW224808   5.706   0.435   2.962  0.8360  1.6875  0.2528
 8042SOL     OW24809   3.648   0.800   5.747  0.0597 -0.0087 -0.2903
 8042SOL    HW124810   3.720   0.848   5.707  0.8347 -0.6700  0.2641
 8042SOL    HW224811   3.680   0.779   5.835 -0.2311 -1.5670 -0.5283
 8043SOL     OW24812   2.770   0.762   3.339 -0.1137 -0.6657  0.0813
 8043SOL    HW124813   2.837   0.745   3.273 -0.3035 -0.2017 -0.2435
 8043SOL    HW224814   2.687   0.755   3.290 -0.2531 -0.2796  0.2601
 8044SOL     OW24815   4.069   2.356   4.592 -0.2452  0.2641 -0.1142
 8044SOL    HW124816   4.051   2.317   4.678 -2.5274  0.9332 -0.2257
 8044SOL    HW224817   4.059   2.283   4.531 -0.9243  0.2640 -0.0082
 8045SOL     OW24818   1.173   5.570   1.899 -0.7295  0.0510  0.2852
 8045SOL    HW124819   1.128   5.580   1.815  1.3119  1.4209 -0.7312
 8045SOL    HW224820   1.253   5.621   1.890 -0.3262  0.0784  3.0245
 8046SOL     OW24821   3.413   3.851   2.128 -0.3619  0.3152 -0.5029
 8046SOL    HW124822   3.462   3.933   2.131 -1.7136  1.1470 -0.4622
 8046SOL    HW224823   3.365   3.848   2.211  0.9923 -1.4101  0.3043
 8047SOL     OW24824   1.581   1.904   2.669 -0.0398  0.2658 -0.6448
 8047SOL    HW124825   1.532   1.986   2.672  2.3753  1.7669  1.3062
 8047SOL    HW224826   1.610   1.890   2.759  1.4680 -1.5745 -1.3454
 8048SOL     OW24827   5.771   3.457   4.748  0.7588  0.2657  0.1845
 8048SOL    HW124828   5.838   3.407   4.701 -1.5859 -0.0444 -3.1454
 8048SOL    HW224829   5.792   3.548   4.728  0.5113  0.2027 -0.3562
 8049SOL     OW24830   4.790   0.135   4.784  0.0042  0.0285 -0.5353
 8049SOL    HW124831   4.702   0.152   4.750 -0.0256  0.5263 -0.2158
 8049SOL    HW224832   4.776   0.083   4.863  0.0493 -0.6993 -0.9963
 8050SOL     OW24833   1.396   5.764   4.431  0.0627  0.1481  0.9110
 8050SOL    HW124834   1.483   5.803   4.430  1.0488 -1.7914 -2.0972
 8050SOL    HW224835   1.398   5.698   4.362 -3.0006 -1.8375  2.4855
 8051SOL     OW24836   2.527   0.850   6.135 -0.4760  0.2341  0.1627
 8051SOL    HW124837   2.618   0.826   6.120 -0.4239  0.1221  0.6552
 8051SOL    HW224838   2.522   0.941   6.107  0.2010  0.7793  1.7199
 8052SOL     OW24839   1.272   4.874   3.740  0.0818 -0.2352  0.0059
 8052SOL    HW124840   1.252   4.884   3.833  0.3008 -0.8599  0.1238
 8052SOL    HW224841   1.187   4.874   3.697 -0.2069 -2.3331  0.4496
 8053SOL     OW24842   6.489   1.945   5.416 -0.7030 -0.1076  0.0547
 8053SOL    HW124843   6.446   1.898   5.345 -2.2176  2.2908 -0.7265
 8053SOL    HW224844   6.519   2.026   5.377 -0.4370  0.7282  1.8769
 8054SOL     OW24845   5.390   3.264   6.123 -0.1273  0.5992  0.0887
 8054SOL    HW124846   5.328   3.193   6.139  1.2508 -0.9192 -0.9297
 8054SOL    HW224847   5.336   3.341   6.109 -1.6698 -0.1329  1.6410
 8055SOL     OW24848   0.883   3.621   4.700 -0.5216  0.2881 -0.0575
 8055SOL    HW124849   0.932   3.656   4.775  1.7456 -2.4788 -0.0631
 8055SOL    HW224850   0.926   3.660   4.624 -1.7466  1.7965 -0.0326
 8056SOL     OW24851   5.564   4.971   5.345 -0.2281 -0.2512 -0.4975
 8056SOL    HW124852   5.596   5.032   5.279  1.0756  0.4262  0.6984
 8056SOL    HW224853   5.606   4.888   5.323 -0.8550 -0.3694 -1.2818
 8057SOL     OW24854   2.476   4.879   4.122  0.1665 -0.3838 -0.0861
 8057SOL    HW124855   2.446   4.829   4.198  0.8035 -0.3496  0.1970
 8057SOL    HW224856   2.481   4.815   4.052 -0.6819 -0.3638 -0.1789
 8058SOL     OW24857   3.966   1.294   2.311 -0.4420  0.2134  0.3103
 8058SOL    HW124858   3.882   1.334   2.336  0.1445  2.2949 -0.8408
 8058SOL    HW224859   3.957   1.276   2.217  0.2181 -0.0909  0.3008
 8059SOL     OW24860   2.766   2.941   4.642 -0.3705 -0.3321  0.1679
 8059SOL    HW124861   2.860   2.954   4.647 -0.5947  1.6262  0.1929
 8059SOL    HW224862   2.745   2.952   4.549 -0.9303  2.7683  0.5547
 8060SOL     OW24863   2.236   6.483   5.489 -0.3177 -0.0384 -0.0681
 8060SOL    HW124864   2.237   6.393   5.456 -0.7101 -0.6265  1.4474
 8060SOL    HW224865   2.170   6.483   5.558  0.4556  1.1404  0.7127
 8061SOL     OW24866   0.960   0.532   1.918  0.2405 -0.1435 -0.1152
 8061SOL    HW124867   0.915   0.610   1.949 -1.3160 -0.5983 -1.1198
 8061SOL    HW224868   0.890   0.470   1.898  1.4303 -1.9349  0.9341
 8062SOL     OW24869   1.459   1.120   5.639 -0.2140 -0.2032  0.0939
 8062SOL    HW124870   1.496   1.033   5.625  1.6487 -0.2418  4.1159
 8062SOL    HW224871   1.379   1.105   5.689 -0.3683  0.4013  0.0409
 8063SOL     OW24872   3.193   1.064   5.924 -0.1166 -0.6331  0.1985
 8063SOL    HW124873   3.248   1.008   5.868 -1.1732  0.2164 -1.7743
 8063SOL    HW224874   3.248   1.141   5.941 -0.0820 -0.5245 -0.3783
 8064SOL     OW24875   5.054   1.687   3.826  0.0987  0.4872 -0.0003
 8064SOL    HW124876   5.121   1.710   3.762 -1.4551  0.4656 -1.7151
 8064SOL    HW224877   5.089   1.610   3.871  0.7156 -0.2761 -1.7089
 8065SOL     OW24878   1.104   0.867   0.707  0.0385  0.0600 -0.6300
 8065SOL    HW124879   1.102   0.939   0.771 -1.6572 -1.9110  1.7544
 8065SOL    HW224880   1.184   0.882   0.657 -0.5443  3.9047 -0.7134
 8066SOL     OW24881   5.723   1.345   1.500  0.6079 -0.3661  0.1180
 8066SOL    HW124882   5.785   1.310   1.435 -1.2438  0.3533 -2.1671
 8066SOL    HW224883   5.648   1.374   1.448  0.2841  3.1667  2.2878
 8067SOL     OW24884   0.707   2.231   3.805 -0.1430  0.1594  0.2186
 8067SOL    HW124885   0.663   2.146   3.807 -0.0559  0.1156  0.2559
 8067SOL    HW224886   0.786   2.217   3.754 -0.3197  0.3112 -0.0991
 8068SOL     OW24887   4.733   3.841   4.874 -0.1661  0.7257  0.0691
 8068SOL    HW124888   4.726   3.789   4.794 -0.8924  1.7261 -0.5350
 8068SOL    HW224889   4.734   3.777   4.944  0.2646 -0.1609 -0.7272
 8069SOL     OW24890   2.412   6.270   1.043  0.4620  0.1489 -0.1611
 8069SOL    HW124891   2.390   6.227   0.960  0.9950 -0.0133 -0.2178
 8069SOL    HW224892   2.436   6.359   1.018  0.9818 -0.0071 -0.2221
 8070SOL     OW24893   3.835   4.068   5.096 -0.0001  0.1703 -0.4417
 8070SOL    HW124894   3.755   4.056   5.147 -1.5715 -0.1015 -2.8176
 8070SOL    HW224895   3.880   4.141   5.138 -0.8801 -0.3957  1.6230
 8071SOL     OW24896   0.097   1.984   0.788 -0.2407  0.2899  0.4212
 8071SOL    HW124897   0.144   2.021   0.863  0.0775  0.6713  0.0349
 8071SOL    HW224898   0.164   1.940   0.737 -0.1055  1.6456 -0.6351
 8072SOL     OW24899   2.795   3.200   6.460  0.1724  0.5114 -0.1484
 8072SOL    HW124900   2.849   3.132   6.502  1.2218  2.4246  1.8452
 8072SOL    HW224901   2.813   3.190   6.366  1.4337 -1.0151  0.2002
 8073SOL     OW24902   1.914   1.150   3.103  0.1840  0.3771 -0.1483
 8073SOL    HW124903   1.997   1.115   3.136 -0.7870 -1.0625  0.8999
 8073SOL    HW224904   1.847   1.106   3.156 -1.2853  0.9331 -1.4773
 8074SOL     OW24905   3.870   4.757   5.668 -0.0254  0.2943 -0.0694
 8074SOL    HW124906   3.816   4.679   5.651 -0.1944  0.3279  0.3131
 8074SOL    HW224907   3.959   4.722   5.678 -0.3759 -0.0932  2.0492
 8075SOL     OW24908   0.189   4.833   0.173  0.1717  0.3776  0.2586
 8075SOL    HW124909   0.119   4.895   0.196  0.6444  0.5179  1.3581
 8075SOL    HW224910   0.187   4.830   0.077 -1.4140  0.2993  0.2573
 8076SOL     OW24911   1.106   4.918   6.303 -0.2649 -0.0434  0.2016
 8076SOL    HW124912   1.190   4.942   6.265 -0.4940  0.9997  0.3288
 8076SOL    HW224913   1.119   4.829   6.337  0.5924 -0.1265 -0.3277
 8077SOL     OW24914   2.833   2.145   1.529  0.7079  0.1305 -0.0807
 8077SOL    HW124915   2.858   2.054   1.549  0.5827  0.3878  1.3244
 8077SOL    HW224916   2.866   2.159   1.441  1.3702 -1.0565 -0.0499
 8078SOL     OW24917   4.334   3.103   1.159  0.2189  0.1520 -0.4242
 8078SOL    HW124918   4.404   3.155   1.197 -0.4121  1.2031 -0.6542
 8078SOL    HW224919   4.305   3.154   1.083 -0.9720 -0.1206 -0.1713
 8079SOL     OW24920   2.533   5.494   0.711  0.8354  0.6168  0.1837
 8079SOL    HW124921   2.530   5.526   0.801  4.0707 -1.6064  1.2753
 8079SOL    HW224922   2.491   5.408   0.716  0.2674  0.8339 -0.6779
 8080SOL     OW24923   1.699   2.196   4.844  0.6418  0.3766  0.1829
 8080SOL    HW124924   1.766   2.203   4.912 -1.1799  0.5110  2.0468
 8080SOL    HW224925   1.731   2.127   4.786  2.9592  1.2748  0.3011
 8081SOL     OW24926   4.612   3.511   2.949  0.5199  0.3547  0.1845
 8081SOL    HW124927   4.701   3.516   2.914  0.0570  0.5054 -1.0087
 8081SOL    HW224928   4.593   3.600   2.980  1.1757  0.0676  1.5038
 8082SOL     OW24929   0.686   6.395   5.075 -0.2312  0.0429  0.0937
 8082SOL    HW124930   0.645   6.448   5.143  0.3352 -1.3750  1.6182
 8082SOL    HW224931   0.615   6.340   5.040 -0.2437 -0.2589  0.5871
 8083SOL     OW24932   5.621   2.783   1.383  0.3005 -0.7690  0.3192
 8083SOL    HW124933   5.626   2.729   1.304  2.1226  0.1063 -0.2376
 8083SOL    HW224934   5.633   2.722   1.455  0.3039 -1.3594 -0.1718
 8084SOL     OW24935   1.278   3.808   4.673  0.0892  0.2470 -0.7316
 8084SOL    HW124936   1.250   3.741   4.736  0.2933 -0.7018 -1.6274
 8084SOL    HW224937   1.207   3.814   4.610 -0.6780  2.0949  0.2164
 8085SOL     OW24938   2.103   3.824   5.071 -0.1641 -0.2741  0.4675
 8085SOL    HW124939   2.040   3.754   5.058 -1.3838  0.8811 -0.0449
 8085SOL    HW224940   2.124   3.855   4.983 -0.9089  1.0702  0.7360
 8086SOL     OW24941   6.287   0.849   5.080 -0.2049  0.0217 -0.2186
 8086SOL    HW124942   6.282   0.910   5.154  0.2689 -1.2941  0.9283
 8086SOL    HW224943   6.195   0.832   5.057 -0.3641  0.3258  0.1710
 8087SOL     OW24944   1.528   2.568   4.721  0.1186 -0.2435  1.2309
 8087SOL    HW124945   1.467   2.578   4.647  0.4314  1.9525  1.2161
 8087SOL    HW224946   1.583   2.493   4.696  0.0745  0.3021 -0.6796
 8088SOL     OW24947   3.245   0.030   1.281 -0.8278  0.1959 -0.0687
 8088SOL    HW124948   3.184  -0.044   1.277  0.1130 -0.5396 -2.0866
 8088SOL    HW224949   3.203   0.091   1.342 -2.2271 -1.4422  0.7370
 8089SOL     OW24950   3.123   2.370   1.155  0.1077 -0.0722  0.2060
 8089SOL    HW124951   3.112   2.275   1.160 -0.0929 -0.2778 -2.6214
 8089SOL    HW224952   3.135   2.398   1.246 -1.0008 -2.6390  1.2182
 8090SOL     OW24953   2.644   6.382   4.694 -0.6557  0.0654 -0.4105
 8090SOL    HW124954   2.699   6.388   4.616  0.5149  0.2722  0.4116
 8090SOL    HW224955   2.624   6.472   4.717 -0.4686  0.0306 -0.1056
 8091SOL     OW24956   5.568   5.360   2.039 -0.8433  0.2628 -0.5161
 8091SOL    HW124957   5.538   5.429   2.098  0.8926  0.0482  0.6610
 8091SOL    HW224958   5.587   5.405   1.957 -1.0084  0.9578 -0.1781
 8092SOL     OW24959   1.481   1.003   2.139  0.4230  0.0971 -0.0146
 8092SOL    HW124960   1.507   1.041   2.055 -0.4250  1.9788  0.5069
 8092SOL    HW224961   1.397   0.961   2.121 -0.4575  1.6990  0.1179
 8093SOL     OW24962   4.292   4.801   2.992 -0.9153 -0.0023  0.0568
 8093SOL    HW124963   4.267   4.709   2.981 -2.6246  0.5113 -0.8850
 8093SOL    HW224964   4.357   4.817   2.924 -0.4030 -0.5658  0.4032
 8094SOL     OW24965   0.953   0.276   5.929  0.3020 -0.1240  0.6086
 8094SOL    HW124966   0.912   0.334   5.993  0.1185  0.2247  0.1772
 8094SOL    HW224967   0.965   0.194   5.976  1.1325  0.4372  1.4317
 8095SOL     OW24968   6.466   0.374   3.250 -0.4180 -0.4664 -0.1663
 8095SOL    HW124969   6.459   0.384   3.155  2.4741  0.9118 -0.3325
 8095SOL    HW224970   6.461   0.280   3.265 -0.6390 -0.7235 -1.7083
 8096SOL     OW24971   3.545   6.428   0.352 -0.3327  0.1246 -0.2418
 8096SOL    HW124972   3.628   6.476   0.347 -0.0574 -0.2924  0.2467
 8096SOL    HW224973   3.511   6.431   0.263  0.5899 -0.3663 -0.6219
 8097SOL     OW24974   3.592   3.854   5.657 -0.0016 -0.2503 -0.8582
 8097SOL    HW124975   3.645   3.883   5.582  1.9204  1.4753  1.0392
 8097SOL    HW224976   3.549   3.934   5.688 -0.4959 -0.8688  0.1004
 8098SOL     OW24977   0.733   5.451   4.398 -0.3998 -0.0626 -0.9502
 8098SOL    HW124978   0.720   5.356   4.398  4.5326 -1.0252 -0.6921
 8098SOL    HW224979   0.726   5.477   4.490 -0.1047 -0.5396 -0.7883
 8099SOL     OW24980   2.024   6.073   1.898  0.7671  0.5492 -0.0124
 8099SOL    HW124981   2.113   6.096   1.873  1.1204 -0.2019  0.4812
 8099SOL    HW224982   2.024   5.977   1.900 -0.0937  0.5394 -0.1568
 8100SOL     OW24983   4.799   0.629   5.963  0.1935  0.1850  0.2576
 8100SOL    HW124984   4.806   0.709   5.910  0.7406 -0.2993 -0.4329
 8100SOL    HW224985   4.714   0.592   5.939 -0.3636  0.9002  1.0875
 8101SOL     OW24986   1.094   2.383   4.643  0.5953  0.0945 -0.3240
 8101SOL    HW124987   1.075   2.477   4.642 -0.9561 -0.1891  0.4478
 8101SOL    HW224988   1.009   2.341   4.628  0.9824 -1.2123  0.9292
 8102SOL     OW24989   2.705   0.382   1.861  0.0017 -0.0499  0.7999
 8102SOL    HW124990   2.681   0.295   1.830 -0.2122  0.5668 -0.8877
 8102SOL    HW224991   2.685   0.381   1.955  0.7570 -2.0571  0.9960
 8103SOL     OW24992   4.943   0.061   6.375  0.4419  0.3442 -0.1766
 8103SOL    HW124993   4.915   0.070   6.466  1.0831  0.9137 -0.0261
 8103SOL    HW224994   4.899   0.132   6.329 -0.3565 -0.3107 -0.4308
 8104SOL     OW24995   3.991   1.912   3.885 -0.1995  0.6445 -0.1552
 8104SOL    HW124996   3.988   1.849   3.813 -1.2223  1.7771 -1.1443
 8104SOL    HW224997   4.083   1.933   3.895 -0.0704  0.7626 -1.4092
 8105SOL     OW24998   5.153   2.958   2.177  0.6610  0.5218 -0.2829
 8105SOL    HW124999   5.134   2.911   2.096 -0.4022 -1.6574  1.1111
 8105SOL    HW225000   5.247   2.945   2.192  0.7357  0.4165 -0.8483
 8106SOL     OW25001   0.151   5.066   2.826  0.8730 -0.0838 -0.1229
 8106SOL    HW125002   0.195   5.077   2.910 -0.5991 -2.1255  1.0161
 8106SOL    HW225003   0.062   5.097   2.840  0.6751 -0.2190 -0.9919
 8107SOL     OW25004   4.422   2.067   3.233  0.1656 -0.1715 -0.1342
 8107SOL    HW125005   4.486   2.015   3.184 -0.3659 -0.6151 -0.3686
 8107SOL    HW225006   4.475   2.124   3.288  0.8036  0.6866 -1.5659
 8108SOL     OW25007   1.527   4.734   2.767 -0.0750  0.7566  0.4399
 8108SOL    HW125008   1.497   4.794   2.835  0.2393  2.7586 -1.1103
 8108SOL    HW225009   1.459   4.666   2.764 -1.1990  1.7934  1.2990
 8109SOL     OW25010   2.835   5.171   1.982 -0.1326  0.4773 -0.4251
 8109SOL    HW125011   2.879   5.209   2.058  0.9343 -0.6458 -0.4571
 8109SOL    HW225012   2.904   5.158   1.917 -0.3673 -1.7529 -0.3134
 8110SOL     OW25013   4.356   1.979   1.402 -0.3300 -0.4968 -0.3313
 8110SOL    HW125014   4.432   2.036   1.395 -0.3407 -0.4154  0.1896
 8110SOL    HW225015   4.361   1.942   1.490 -2.6567  2.0380  1.0091
 8111SOL     OW25016   5.007   4.214   0.636  0.1887 -0.1467 -0.0274
 8111SOL    HW125017   5.088   4.238   0.681  1.0881 -0.3750 -1.4824
 8111SOL    HW225018   5.013   4.120   0.623 -0.2029 -0.1262 -0.3808
 8112SOL     OW25019   2.961   2.527   4.110  0.2593 -0.1543  0.5314
 8112SOL    HW125020   3.026   2.550   4.177  0.2297 -0.2871  0.6069
 8112SOL    HW225021   2.897   2.474   4.157  1.0989 -1.6659  0.0507
 8113SOL     OW25022   2.032   2.115   1.936  0.7454 -0.1882 -0.0990
 8113SOL    HW125023   2.007   2.121   1.844 -0.4661 -0.5438  0.1875
 8113SOL    HW225024   1.973   2.175   1.981  0.0670 -1.3663  0.6531
 8114SOL     OW25025   6.270   3.628   3.005  0.8932  0.5829  0.8027
 8114SOL    HW125026   6.320   3.582   2.938  1.8700  0.9434  1.2610
 8114SOL    HW225027   6.233   3.559   3.060  1.1832  0.3108  0.6589
 8115SOL     OW25028   1.367   4.332   1.913 -0.0119  0.2962  0.5741
 8115SOL    HW125029   1.332   4.394   1.849  0.5818 -0.8503 -0.9181
 8115SOL    HW225030   1.321   4.353   1.994 -0.8265  1.7650 -0.2211
 8116SOL     OW25031   2.053   4.714   0.842  0.2169 -0.2597 -0.4303
 8116SOL    HW125032   2.120   4.715   0.911 -1.4073 -0.0981  1.2351
 8116SOL    HW225033   1.974   4.682   0.886 -0.8278 -0.4201 -2.3122
 8117SOL     OW25034   5.282   3.133   4.540 -0.1616 -0.0556  0.3865
 8117SOL    HW125035   5.206   3.082   4.567 -1.2176  0.8501 -0.7325
 8117SOL    HW225036   5.289   3.117   4.445  0.5248  0.5537  0.3234
 8118SOL     OW25037   5.154   3.865   0.924 -0.3422  0.1512 -0.0998
 8118SOL    HW125038   5.121   3.920   0.995 -0.3115  0.8860 -0.6539
 8118SOL    HW225039   5.092   3.792   0.920 -0.4567  0.2034  0.5403
 8119SOL     OW25040   3.868   3.326   0.500  0.1614  0.4996  0.2355
 8119SOL    HW125041   3.819   3.394   0.454  1.1835  0.6612 -0.6593
 8119SOL    HW225042   3.902   3.270   0.430  1.8646  0.8237  0.7549
 8120SOL     OW25043   0.747   5.452   0.078  0.0877  0.2699  0.2817
 8120SOL    HW125044   0.808   5.511   0.032 -0.4587  0.8515  0.2924
 8120SOL    HW225045   0.802   5.378   0.105  0.7827  0.7505  0.2297
 8121SOL     OW25046   0.958   2.397   2.774 -0.3427  0.2890  0.6345
 8121SOL    HW125047   1.021   2.385   2.845 -0.8603  2.2119  1.5026
 8121SOL    HW225048   0.883   2.441   2.816 -1.6668 -0.6622 -0.6511
 8122SOL     OW25049   4.258   5.092   3.561  0.6623 -0.6782 -0.0746
 8122SOL    HW125050   4.179   5.039   3.572 -0.3947  0.7963 -0.2656
 8122SOL    HW225051   4.271   5.133   3.647 -0.6565  1.5133 -0.8302
 8123SOL     OW25052   0.546   0.989   6.464  0.5716  0.7588  0.3733
 8123SOL    HW125053   0.451   0.976   6.472  0.8086 -0.7512  1.0784
 8123SOL    HW225054   0.563   0.985   6.370  0.0270  0.2227  0.2913
 8124SOL     OW25055   2.138   6.481   5.180 -0.5866 -0.1013  0.4983
 8124SOL    HW125056   2.086   6.413   5.221  1.5194 -1.0248  1.7771
 8124SOL    HW225057   2.176   6.439   5.103 -2.0676  0.7308 -0.7531
 8125SOL     OW25058   2.638   3.042   6.060  0.7021 -0.4348 -0.0217
 8125SOL    HW125059   2.624   3.026   5.967  0.0073 -0.7707  0.1381
 8125SOL    HW225060   2.553   3.025   6.101  1.2429 -1.2575  0.8005
 8126SOL     OW25061   2.035   5.195   0.531  0.2451  0.3667 -0.3483
 8126SOL    HW125062   2.038   5.113   0.580  0.5207  0.0446 -0.9015
 8126SOL    HW225063   1.955   5.190   0.479 -1.8864  2.1179  2.4698
 8127SOL     OW25064   3.043   4.600   1.526 -0.1054 -0.2691 -0.7664
 8127SOL    HW125065   2.955   4.633   1.543 -0.0619  0.8325 -2.3972
 8127SOL    HW225066   3.034   4.550   1.445  0.7621 -0.1699 -0.9334
 8128SOL     OW25067   1.382   1.048   2.810  0.1867 -0.1197  0.4734
 8128SOL    HW125068   1.405   1.114   2.744 -1.3685 -0.2611 -0.2583
 8128SOL    HW225069   1.429   1.075   2.888 -1.3510  2.6290  0.5883
 8129SOL     OW25070   3.301   6.399   3.974 -0.0409 -0.2866 -0.5625
 8129SOL    HW125071   3.311   6.492   3.954  0.0306 -0.1926 -0.0960
 8129SOL    HW225072   3.390   6.367   3.984 -0.0287 -0.5948 -1.5501
 8130SOL     OW25073   1.833   5.713   3.085  0.1209 -0.1080 -0.2009
 8130SOL    HW125074   1.829   5.667   3.001  1.2012 -1.2704  0.3527
 8130SOL    HW225075   1.788   5.655   3.146  1.6516 -0.5465  0.5412
 8131SOL     OW25076   3.411   6.318   1.275 -0.1756 -0.1733  0.5307
 8131SOL    HW125077   3.418   6.319   1.370 -0.9877 -0.6798  0.6036
 8131SOL    HW225078   3.334   6.373   1.256  0.1627  0.1756  0.1481
 8132SOL     OW25079   2.008   2.365   1.236  0.3874  0.6238  0.6177
 8132SOL    HW125080   2.065   2.327   1.170 -1.3407  0.1142 -0.6707
 8132SOL    HW225081   1.984   2.451   1.200 -0.7283  0.2582  0.4361
 8133SOL     OW25082   2.506   5.981   4.466 -0.3718  0.1250 -0.1291
 8133SOL    HW125083   2.452   5.909   4.433 -0.5151  0.8263 -1.4933
 8133SOL    HW225084   2.466   6.004   4.550 -1.5294 -0.0821 -0.6062
 8134SOL     OW25085   3.164   3.301   2.950  0.2230 -0.0302  0.0748
 8134SOL    HW125086   3.224   3.376   2.956 -0.7231  0.7407  0.0523
 8134SOL    HW225087   3.082   3.331   2.989 -0.1239 -1.1223  0.2428
 8135SOL     OW25088   2.771   5.245   0.480 -0.4848 -0.3039  0.0612
 8135SOL    HW125089   2.830   5.250   0.404 -1.0740  1.5038 -0.3269
 8135SOL    HW225090   2.804   5.171   0.530  1.0155 -0.4606 -1.0569
 8136SOL     OW25091   0.922   5.252   0.181 -0.3806 -0.2333  0.0667
 8136SOL    HW125092   0.919   5.224   0.272 -1.9794  1.4894  0.6236
 8136SOL    HW225093   0.955   5.177   0.133  1.1608 -0.9632  2.1367
 8137SOL     OW25094   4.735   5.978   1.478  0.3749  0.2307  0.2963
 8137SOL    HW125095   4.645   6.008   1.492  0.1877 -0.6528  1.0808
 8137SOL    HW225096   4.787   6.058   1.481 -0.1646  0.5543  1.8924
 8138SOL     OW25097   1.841   5.735   1.300 -0.0423  0.1135  0.0064
 8138SOL    HW125098   1.818   5.642   1.302  0.3055  0.0259 -0.0903
 8138SOL    HW225099   1.904   5.745   1.371  0.7160  0.0655 -0.6547
 8139SOL     OW25100   0.975   3.182   4.018 -0.4492 -0.3234  0.0590
 8139SOL    HW125101   1.051   3.140   4.060  1.3010  3.0936  0.6847
 8139SOL    HW225102   0.926   3.220   4.090  0.3038  2.0611 -0.5807
 8140SOL     OW25103   0.787   1.049   4.329 -0.1816 -0.1350 -0.0931
 8140SOL    HW125104   0.711   1.015   4.376  0.4419 -0.7983  0.4694
 8140SOL    HW225105   0.803   0.986   4.259 -0.7227  0.5186 -0.8263
 8141SOL     OW25106   0.029   0.070   0.234 -0.7939  0.4663 -0.0587
 8141SOL    HW125107  -0.019   0.131   0.290 -0.1794  1.4051 -0.5476
 8141SOL    HW225108   0.120   0.077   0.263 -0.3972  1.2757 -1.4283
 8142SOL     OW25109   0.997   3.021   4.472  0.7972 -0.1406  0.0553
 8142SOL    HW125110   1.029   3.013   4.562  0.0603  1.6550  0.5048
 8142SOL    HW225111   1.025   3.108   4.444 -0.7556  0.1546 -0.7082
 8143SOL     OW25112   3.829   3.912   2.500 -0.5309  0.1406 -0.1442
 8143SOL    HW125113   3.906   3.908   2.556  0.1006  0.8159 -0.9250
 8143SOL    HW225114   3.826   3.827   2.456  0.2424  0.3926 -0.7008
 8144SOL     OW25115   3.550   1.584   4.677  0.4421  0.1772 -0.7224
 8144SOL    HW125116   3.608   1.527   4.626 -1.0335 -0.6728 -1.5151
 8144SOL    HW225117   3.472   1.593   4.623 -0.6320  0.3794  0.8095
 8145SOL     OW25118   0.982   5.391   3.648 -0.2187  0.4465  0.3415
 8145SOL    HW125119   1.044   5.411   3.718 -0.8942 -0.4956  1.2527
 8145SOL    HW225120   0.920   5.329   3.688 -2.0879  1.7708 -0.3480
 8146SOL     OW25121   1.532   2.829   1.746 -0.1001 -0.3615 -0.0232
 8146SOL    HW125122   1.604   2.847   1.685 -0.4511  0.9131 -0.0823
 8146SOL    HW225123   1.549   2.740   1.776  2.7521  0.6137  1.6459
 8147SOL     OW25124   4.144   6.309   3.575 -0.0992 -0.4917 -0.1819
 8147SOL    HW125125   4.053   6.327   3.553 -0.2938 -1.0720  0.1276
 8147SOL    HW225126   4.143   6.293   3.669  0.3560 -0.3056 -0.1438
 8148SOL     OW25127   3.187   1.694   0.661 -0.4006 -0.6388 -0.4106
 8148SOL    HW125128   3.183   1.657   0.749 -3.6811  1.2062  0.3728
 8148SOL    HW225129   3.271   1.739   0.658 -0.8648  0.6497  2.4761
 8149SOL     OW25130   5.165   1.726   2.062  0.1509  0.2648  0.4027
 8149SOL    HW125131   5.113   1.738   1.982 -0.1532  2.4453  0.8642
 8149SOL    HW225132   5.154   1.633   2.084  0.4081 -0.4606 -2.1654
 8150SOL     OW25133   4.597   5.458   5.182  0.8007  0.2235  0.0205
 8150SOL    HW125134   4.568   5.547   5.165 -0.0276 -0.1348 -0.4873
 8150SOL    HW225135   4.531   5.421   5.240  0.6317 -0.3421 -0.5107
 8151SOL     OW25136   6.310   1.950   3.190  0.5051 -1.1065  0.0102
 8151SOL    HW125137   6.294   1.878   3.251 -0.7154 -0.9349 -0.0929
 8151SOL    HW225138   6.225   1.993   3.180  1.3369  0.7871  0.6001
 8152SOL     OW25139   2.819   5.805   4.351 -0.4532  0.3210 -0.0865
 8152SOL    HW125140   2.908   5.838   4.362  0.7349 -2.8743  0.8746
 8152SOL    HW225141   2.775   5.827   4.433  0.1073  0.0786  0.2818
 8153SOL     OW25142   1.781   1.566   5.117 -0.1860 -0.1473 -0.1230
 8153SOL    HW125143   1.762   1.632   5.051 -2.2087 -1.2233 -0.7194
 8153SOL    HW225144   1.718   1.496   5.100  1.6228 -2.1029  0.6754
 8154SOL     OW25145   4.016   4.610   1.905  0.4610 -0.2767  0.3911
 8154SOL    HW125146   4.048   4.645   1.988  2.4789  1.4491 -1.0089
 8154SOL    HW225147   4.019   4.515   1.916  3.1472 -0.1505  1.4790
 8155SOL     OW25148   1.529   4.650   3.738  0.1066  0.1539  0.0644
 8155SOL    HW125149   1.490   4.678   3.655 -0.6573  1.1588  0.7308
 8155SOL    HW225150   1.622   4.638   3.718 -0.0069  0.6949 -0.8586
 8156SOL     OW25151   4.117   1.481   6.311 -0.2676  0.3297  0.2170
 8156SOL    HW125152   4.202   1.439   6.302 -1.1747 -1.9746  1.7075
 8156SOL    HW225153   4.126   1.538   6.387 -0.0745  0.0606  0.3954
 8157SOL     OW25154   0.626   5.116   0.249  0.2382  0.1585 -0.8436
 8157SOL    HW125155   0.636   5.121   0.344 -1.6474  2.1720 -0.6770
 8157SOL    HW225156   0.698   5.060   0.221  0.7846 -0.6058  1.7634
 8158SOL     OW25157   5.993   4.451   5.071 -0.0828  0.0307  0.3033
 8158SOL    HW125158   6.016   4.358   5.076 -0.1144  0.0286  0.4240
 8158SOL    HW225159   5.996   4.481   5.162 -0.5864  0.0242  0.3244
 8159SOL     OW25160   4.468   2.286   1.237 -0.0790 -0.4358 -0.0172
 8159SOL    HW125161   4.507   2.369   1.210 -0.0469 -0.8800 -1.3952
 8159SOL    HW225162   4.535   2.245   1.292  0.5371 -0.2435 -0.6106
 8160SOL     OW25163   0.972   2.014   3.920  0.5656  0.0954 -0.7743
 8160SOL    HW125164   1.000   1.927   3.950  0.0438  0.1026 -0.2462
 8160SOL    HW225165   1.039   2.041   3.858  0.6111 -0.7951 -1.1320
 8161SOL     OW25166   2.607   0.435   2.097 -0.1883 -0.0874  0.2416
 8161SOL    HW125167   2.658   0.398   2.169  0.0180  1.2372  0.8071
 8161SOL    HW225168   2.579   0.521   2.129 -1.2703 -0.0414 -0.7402
 8162SOL     OW25169   4.401   4.384   3.678 -0.0397 -0.1516  0.0419
 8162SOL    HW125170   4.328   4.326   3.660  0.3925 -1.2899  1.6899
 8162SOL    HW225171   4.361   4.464   3.711 -0.5492 -0.7552  0.9100
 8163SOL     OW25172   0.714   3.569   2.768 -0.2641 -0.4108  0.4262
 8163SOL    HW125173   0.639   3.540   2.715 -0.5305  0.2511  0.4324
 8163SOL    HW225174   0.702   3.525   2.852 -1.0039  0.1765  0.6433
 8164SOL     OW25175   3.797   2.575   3.758 -0.2937  0.5117  0.0688
 8164SOL    HW125176   3.881   2.614   3.782 -1.2171  0.8087  3.2833
 8164SOL    HW225177   3.731   2.637   3.789 -1.7483 -1.5868  1.4458
 8165SOL     OW25178   0.379   5.320   3.483 -0.0620  0.2154  0.1369
 8165SOL    HW125179   0.342   5.348   3.399 -1.0286 -0.0456  0.4627
 8165SOL    HW225180   0.304   5.286   3.532  0.4399  0.6214  1.2164
 8166SOL     OW25181   5.791   0.549   5.773  0.2749  0.4630  0.3945
 8166SOL    HW125182   5.742   0.546   5.855  1.4472  0.7434  1.1316
 8166SOL    HW225183   5.737   0.604   5.715  0.0808  1.4241  1.4393
 8167SOL     OW25184   2.514   0.707   1.654  0.4404 -0.1080 -0.0963
 8167SOL    HW125185   2.570   0.686   1.729  0.0768 -1.2948 -0.1363
 8167SOL    HW225186   2.543   0.647   1.585  0.7270  0.9237 -0.8982
 8168SOL     OW25187   4.488   3.336   2.760 -0.4949 -0.6546  0.0095
 8168SOL    HW125188   4.536   3.374   2.833 -1.2961 -0.1321  0.2821
 8168SOL    HW225189   4.414   3.291   2.801 -1.2950  0.1646 -0.5039
 8169SOL     OW25190   4.080   3.868   4.882  0.0582  0.1201  0.2468
 8169SOL    HW125191   4.131   3.931   4.831 -1.5465  1.0406 -0.2839
 8169SOL    HW225192   4.102   3.783   4.843 -0.4325  0.7089 -1.3906
 8170SOL     OW25193   1.359   1.424   5.583  0.4585 -0.0401  0.2227
 8170SOL    HW125194   1.265   1.417   5.601  0.5178 -1.7306  0.0070
 8170SOL    HW225195   1.399   1.355   5.636  1.2636 -1.1548 -1.7211
 8171SOL     OW25196   1.479   0.082   3.479  0.4165  0.1345  0.2690
 8171SOL    HW125197   1.544   0.146   3.451  0.0746  0.7191  0.7684
 8171SOL    HW225198   1.529   0.002   3.495  1.2328  0.9072  1.8198
 8172SOL     OW25199   1.624   4.211   0.298  0.0195  0.3966  0.0226
 8172SOL    HW125200   1.670   4.289   0.331  0.7125  0.2939 -0.6764
 8172SOL    HW225201   1.677   4.182   0.224 -0.7622 -0.1865 -0.3125
 8173SOL     OW25202   4.081   5.144   4.078 -0.3277  0.0569 -0.1861
 8173SOL    HW125203   4.015   5.078   4.095 -0.4039  0.9446  3.9316
 8173SOL    HW225204   4.164   5.101   4.098 -0.1965  0.5698  0.4090
 8174SOL     OW25205   4.060   2.686   3.762 -0.5960 -0.0450 -0.3816
 8174SOL    HW125206   4.101   2.654   3.843 -0.8629 -1.2894 -0.7115
 8174SOL    HW225207   4.067   2.781   3.767 -1.8841 -0.0019  1.7955
 8175SOL     OW25208   1.123   3.033   6.029  0.6028 -0.6405 -0.4582
 8175SOL    HW125209   1.068   3.093   5.977 -2.1561 -2.4690  0.1041
 8175SOL    HW225210   1.148   3.084   6.105  1.8289  1.0180 -1.8899
 8176SOL     OW25211   0.101   4.489   4.596  0.6573 -0.3138  0.3007
 8176SOL    HW125212   0.178   4.507   4.542  1.2995  0.1555  1.3527
 8176SOL    HW225213   0.027   4.501   4.537  1.2195  2.2543 -0.0015
 8177SOL     OW25214   3.479   3.753   4.956 -0.6830 -0.4125 -0.3981
 8177SOL    HW125215   3.416   3.789   5.019 -0.6266 -1.2697  0.1522
 8177SOL    HW225216   3.426   3.733   4.879 -0.5742  1.6883 -1.0811
 8178SOL     OW25217   2.244   6.269   2.154 -0.0622 -0.6135 -0.6151
 8178SOL    HW125218   2.332   6.307   2.150 -0.1629  0.1853  2.4866
 8178SOL    HW225219   2.185   6.341   2.133 -0.0561 -0.4445 -0.0657
 8179SOL     OW25220   3.448   2.294   1.408  0.5353  0.5745 -0.4420
 8179SOL    HW125221   3.459   2.352   1.484 -1.0743 -0.4951  0.6574
 8179SOL    HW225222   3.466   2.351   1.333  4.6425  1.1267  0.6816
 8180SOL     OW25223   6.391   3.528   6.094  0.1532 -0.5846  0.0828
 8180SOL    HW125224   6.368   3.495   6.181  0.3306 -0.8909  0.0151
 8180SOL    HW225225   6.318   3.501   6.039 -0.5287  0.6174  0.3566
 8181SOL     OW25226   2.614   3.507   4.183 -0.5390  0.5896 -0.1734
 8181SOL    HW125227   2.604   3.497   4.088  1.1344 -0.9662 -0.2416
 8181SOL    HW225228   2.707   3.490   4.199 -0.9443  0.0021  1.8547
 8182SOL     OW25229   5.449   5.107   3.086  0.0001  0.4163 -0.4325
 8182SOL    HW125230   5.468   5.019   3.118 -0.9335 -0.2471 -1.6197
 8182SOL    HW225231   5.514   5.122   3.017 -0.2118  0.4188 -0.6317
 8183SOL     OW25232   1.188   0.968   2.554 -0.4168  0.4017 -0.4124
 8183SOL    HW125233   1.246   0.977   2.629 -0.1621  0.1310 -0.5783
 8183SOL    HW225234   1.225   1.026   2.487  0.1342 -0.3942 -0.8075
 8184SOL     OW25235   4.823   2.030   4.522 -0.6138  0.1445  0.2581
 8184SOL    HW125236   4.838   2.000   4.612 -1.1532  0.3316  0.4173
 8184SOL    HW225237   4.855   2.120   4.521 -0.2389  0.0133  0.1488
 8185SOL     OW25238   5.147   1.582   4.431  0.7428  0.3853 -0.2481
 8185SOL    HW125239   5.135   1.490   4.404  2.1340  0.2971 -0.6700
 8185SOL    HW225240   5.186   1.624   4.355 -0.7984  1.5962 -0.4088
 8186SOL     OW25241   2.394   2.768   0.431 -0.5551  0.0130 -0.0941
 8186SOL    HW125242   2.472   2.808   0.469 -0.7086 -0.2060  0.4625
 8186SOL    HW225243   2.330   2.839   0.426 -0.8422 -0.1582  0.9334
 8187SOL     OW25244   3.663   0.267   2.852 -0.4306  0.4507  0.1739
 8187SOL    HW125245   3.582   0.315   2.835  0.0626  1.0999 -0.3841
 8187SOL    HW225246   3.645   0.178   2.823  0.0656  1.2823 -3.0429
 8188SOL     OW25247   0.461   3.629   4.135 -0.4428  0.4650  0.4093
 8188SOL    HW125248   0.366   3.641   4.130 -0.2625  2.7523  1.2125
 8188SOL    HW225249   0.486   3.672   4.217  1.2715 -0.3060  0.3296
 8189SOL     OW25250   2.687   2.954   4.348 -0.0121 -0.8192 -0.7828
 8189SOL    HW125251   2.620   2.957   4.279 -0.0980 -1.5017 -0.7413
 8189SOL    HW225252   2.767   2.926   4.302  0.5852  1.1745 -1.0687
 8190SOL     OW25253   4.196   1.953   3.483  0.5471  0.4479 -0.4319
 8190SOL    HW125254   4.103   1.977   3.486  0.4998  0.2097  2.1467
 8190SOL    HW225255   4.219   1.958   3.390 -2.6498 -1.8786 -1.5401
 8191SOL     OW25256   4.922   0.527   2.292  0.7519 -0.3606 -0.2166
 8191SOL    HW125257   4.826   0.533   2.283  0.5954 -1.0161  0.8557
 8191SOL    HW225258   4.953   0.614   2.268 -0.2150  0.2048  0.4658
 8192SOL     OW25259   0.236   1.342   0.386 -0.4228 -0.4383  0.0898
 8192SOL    HW125260   0.197   1.418   0.342  2.0805 -0.2835 -2.1145
 8192SOL    HW225261   0.301   1.379   0.445 -0.0484 -0.8286 -0.0738
 8193SOL     OW25262   2.080   3.936   2.435  0.1938 -0.6423  0.2291
 8193SOL    HW125263   2.156   3.936   2.494  0.4501 -0.6761 -0.0984
 8193SOL    HW225264   2.015   3.883   2.480 -0.4421  1.1574  1.5469
 8194SOL     OW25265   6.491   0.870   5.383 -0.2859 -0.3152  0.5626
 8194SOL    HW125266   6.450   0.817   5.451 -1.0240 -1.2510 -0.5815
 8194SOL    HW225267   6.524   0.807   5.319  0.7910  0.5288  0.2559
 8195SOL     OW25268   5.808   3.901   2.213 -0.7186 -0.0837 -0.3421
 8195SOL    HW125269   5.846   3.813   2.211 -1.3937 -0.3972  0.5060
 8195SOL    HW225270   5.879   3.957   2.244 -0.5756 -0.4744  0.0343
 8196SOL     OW25271   1.414   3.236   3.409  0.3908 -0.2861  0.0557
 8196SOL    HW125272   1.496   3.222   3.362  0.4216  0.8899 -0.2864
 8196SOL    HW225273   1.431   3.204   3.497  1.3897  0.3538  0.1191
 8197SOL     OW25274   4.080   4.879   3.623 -0.1530  0.0042  0.6216
 8197SOL    HW125275   4.023   4.899   3.698 -1.9234 -1.5556 -0.2210
 8197SOL    HW225276   4.020   4.877   3.549  1.0721 -1.4282 -0.3660
 8198SOL     OW25277   1.202   1.114   4.092 -0.3299  0.5348  0.2181
 8198SOL    HW125278   1.236   1.047   4.152 -1.5857 -1.0592 -0.7768
 8198SOL    HW225279   1.148   1.066   4.030 -0.5333  2.3744 -1.1220
 8199SOL     OW25280   5.440   6.001   3.445 -0.0847 -0.3042  0.0074
 8199SOL    HW125281   5.531   5.975   3.431 -0.4237 -2.1202  0.8937
 8199SOL    HW225282   5.444   6.096   3.457  1.7491 -0.3967  0.4852
 8200SOL     OW25283   4.293   1.749   0.680 -0.7156  0.9037  0.1337
 8200SOL    HW125284   4.270   1.733   0.589  1.1817 -0.6297 -0.1452
 8200SOL    HW225285   4.388   1.759   0.679 -0.8095  2.4642  1.7578
 8201SOL     OW25286   1.226   5.957   5.384  0.5824 -0.2843  0.3307
 8201SOL    HW125287   1.238   5.879   5.439 -2.6783 -0.8347  0.4686
 8201SOL    HW225288   1.234   6.030   5.445 -3.0785 -0.8825  1.8054
 8202SOL     OW25289   4.393   5.188   4.208 -0.1127  0.1559 -0.3911
 8202SOL    HW125290   4.418   5.155   4.122  0.7191 -0.4647  0.0807
 8202SOL    HW225291   4.375   5.110   4.260  3.1679  0.2422  1.1399
 8203SOL     OW25292   4.872   5.686   0.494 -0.0219 -0.5793  0.8157
 8203SOL    HW125293   4.867   5.754   0.426 -0.6503 -1.4804 -0.0835
 8203SOL    HW225294   4.832   5.726   0.571 -0.4469  0.0551  0.2799
 8204SOL     OW25295   4.799   4.362   2.506  0.0158 -0.3522 -0.2994
 8204SOL    HW125296   4.736   4.340   2.438 -0.9971  0.6910  0.2696
 8204SOL    HW225297   4.884   4.351   2.464 -0.5565 -0.8776 -1.3689
 8205SOL     OW25298   3.947   3.368   1.172  0.9240  0.5137 -0.1351
 8205SOL    HW125299   3.941   3.314   1.094  0.0569  0.3911  0.0123
 8205SOL    HW225300   3.997   3.315   1.234 -1.8475 -1.1692  0.8454
 8206SOL     OW25301   4.756   0.063   5.876 -0.3316 -0.2289  0.0164
 8206SOL    HW125302   4.711  -0.014   5.910  1.4425 -0.8104  1.1777
 8206SOL    HW225303   4.725   0.136   5.930 -2.9689  0.2204 -1.8743
 8207SOL     OW25304   1.943   0.690   6.090  0.0223  0.7934 -0.3569
 8207SOL    HW125305   1.982   0.776   6.072 -1.5112  1.5306 -0.2905
 8207SOL    HW225306   1.849   0.706   6.087 -0.3267 -0.2429  2.6706
 8208SOL     OW25307   0.215   5.504   4.831  0.5856 -0.7559 -0.0628
 8208SOL    HW125308   0.242   5.503   4.739  1.6890 -0.6788  0.2389
 8208SOL    HW225309   0.277   5.445   4.875 -1.4990 -2.8398  0.2486
 8209SOL     OW25310   3.094   2.797   5.663  0.1483  0.0403  0.1311
 8209SOL    HW125311   3.140   2.881   5.664  0.9323 -0.3553 -1.1534
 8209SOL    HW225312   3.117   2.757   5.747  2.6596 -0.3749 -0.6559
 8210SOL     OW25313   2.602   2.371   3.628  0.4501 -0.4118 -0.1526
 8210SOL    HW125314   2.594   2.299   3.566  0.6222 -0.4883 -0.0877
 8210SOL    HW225315   2.577   2.449   3.579 -2.1083 -0.7872  0.4039
 8211SOL     OW25316   2.483   0.877   5.374 -0.2061  0.4494  0.1962
 8211SOL    HW125317   2.510   0.886   5.283 -0.7958  0.2620 -0.0020
 8211SOL    HW225318   2.499   0.963   5.413 -0.4647  0.6945 -0.2280
 8212SOL     OW25319   1.314   2.320   4.781 -0.1258 -0.7676  0.1306
 8212SOL    HW125320   1.388   2.341   4.724 -0.8275  3.6456  0.5028
 8212SOL    HW225321   1.237   2.332   4.726 -0.7056 -0.3128  1.0349
 8213SOL     OW25322   5.187   2.791   5.597 -0.4604 -0.6107  0.0443
 8213SOL    HW125323   5.151   2.828   5.678 -1.3721 -0.3901 -0.4442
 8213SOL    HW225324   5.251   2.855   5.567 -1.3260  0.1122 -0.2818
 8214SOL     OW25325   3.714   4.792   6.340 -0.3548 -0.1152  0.1737
 8214SOL    HW125326   3.751   4.757   6.421 -1.4010  0.9229  1.1655
 8214SOL    HW225327   3.651   4.858   6.370 -0.9068  0.1703 -1.4960
 8215SOL     OW25328   5.651   6.377   3.968 -0.3603 -0.4506  0.3238
 8215SOL    HW125329   5.572   6.382   3.914 -0.1311 -1.1578 -0.0864
 8215SOL    HW225330   5.714   6.433   3.924 -0.0334 -1.3633 -0.4027
 8216SOL     OW25331   2.783   4.741   3.361  0.2192 -0.3922  0.4835
 8216SOL    HW125332   2.825   4.659   3.335  0.9165 -0.1581  0.8499
 8216SOL    HW225333   2.807   4.752   3.453  0.6230  0.5039  0.2815
 8217SOL     OW25334   5.696   0.967   2.736 -0.0648  0.1140 -0.4395
 8217SOL    HW125335   5.713   1.054   2.700 -1.3873 -0.6932 -3.2802
 8217SOL    HW225336   5.601   0.961   2.742 -0.0115 -1.2332 -0.6036
 8218SOL     OW25337   1.109   0.972   3.885  0.2878 -0.0662 -0.8611
 8218SOL    HW125338   1.095   1.001   3.795  0.9628 -0.5293 -1.1235
 8218SOL    HW225339   1.101   0.876   3.880  0.8663 -0.1364 -0.5354
 8219SOL     OW25340   4.889   6.073   6.502  0.6223 -0.6398 -0.5496
 8219SOL    HW125341   4.976   6.037   6.515  1.5487  1.4383 -0.6463
 8219SOL    HW225342   4.898   6.134   6.428 -1.0326 -0.7744 -0.9124
 8220SOL     OW25343   3.848   3.124   3.803 -0.6649 -0.2364 -0.3056
 8220SOL    HW125344   3.925   3.077   3.835  0.2183  1.0460 -0.4522
 8220SOL    HW225345   3.877   3.215   3.796 -2.1172  0.2254 -0.6522
 8221SOL     OW25346   4.713   5.979   2.660  0.0832 -0.0701  0.0417
 8221SOL    HW125347   4.620   5.966   2.642  0.2117  0.9493 -1.5880
 8221SOL    HW225348   4.741   5.899   2.704 -1.8628  0.1944  1.9725
 8222SOL     OW25349   1.716   2.699   5.934  0.1048  0.3190 -0.5589
 8222SOL    HW125350   1.750   2.656   5.855 -1.3516  0.2739 -1.1900
 8222SOL    HW225351   1.733   2.636   6.004 -0.5653 -0.6315 -1.2208
 8223SOL     OW25352   6.346   2.181   0.813 -0.0452 -0.1560 -0.3097
 8223SOL    HW125353   6.364   2.251   0.750 -0.4432  0.4311  0.2125
 8223SOL    HW225354   6.292   2.223   0.881  1.4400 -0.4314  1.0935
 8224SOL     OW25355   1.572   5.574   3.895  0.0508 -0.2401 -0.3743
 8224SOL    HW125356   1.611   5.592   3.981  0.7159  0.1045 -0.7401
 8224SOL    HW225357   1.647   5.561   3.837 -0.3413  1.8904 -1.4301
 8225SOL     OW25358   3.921   2.478   2.609  0.1016  0.2196 -0.0069
 8225SOL    HW125359   3.910   2.536   2.684  0.1818  2.1556 -1.4104
 8225SOL    HW225360   4.001   2.429   2.627 -0.6241 -0.3656  1.7697
 8226SOL     OW25361   1.632   1.589   0.544 -0.0521  0.4040 -0.9465
 8226SOL    HW125362   1.695   1.585   0.616 -0.7516  0.6840 -0.3037
 8226SOL    HW225363   1.557   1.537   0.574  0.8704 -2.2106 -2.7737
 8227SOL     OW25364   0.011   2.448   4.957 -0.1065  0.0509  0.9609
 8227SOL    HW125365   0.055   2.532   4.939  1.7212 -0.4922  2.5673
 8227SOL    HW225366   0.082   2.384   4.961 -1.3939 -1.4705  0.5882
 8228SOL     OW25367   2.094   6.508   4.126  0.4185  0.1178  0.6349
 8228SOL    HW125368   2.179   6.549   4.140  0.1768  0.3130  1.5535
 8228SOL    HW225369   2.048   6.570   4.068  1.0676 -0.2386 -0.2953
 8229SOL     OW25370   6.031   3.681   4.569 -0.4048 -0.4426  0.1308
 8229SOL    HW125371   5.987   3.653   4.489 -0.1118 -0.3121 -0.0779
 8229SOL    HW225372   6.120   3.646   4.562 -0.8073 -1.7178  1.1018
 8230SOL     OW25373   4.448   5.026   2.116  0.9506 -0.0527 -0.1014
 8230SOL    HW125374   4.374   4.967   2.124  1.4825 -0.9922 -1.5992
 8230SOL    HW225375   4.523   4.974   2.145  1.2297  0.3711 -0.0549
 8231SOL     OW25376   4.208   6.060   0.107 -0.1130 -0.2147 -0.8300
 8231SOL    HW125377   4.269   6.013   0.050 -0.1946 -0.3805 -0.7789
 8231SOL    HW225378   4.123   6.022   0.089 -0.0084 -0.9327  0.0882
 8232SOL     OW25379   4.170   5.875   2.691  0.1060 -0.0219  0.2915
 8232SOL    HW125380   4.117   5.935   2.639 -1.1636 -1.2748  0.0658
 8232SOL    HW225381   4.179   5.797   2.636  0.7843 -0.4554  0.9988
 8233SOL     OW25382   5.299   0.183   1.562  0.2823 -0.0093 -0.0563
 8233SOL    HW125383   5.260   0.262   1.599  1.3110 -0.1903  1.4873
 8233SOL    HW225384   5.247   0.111   1.597  0.9873 -0.1590  0.6914
 8234SOL     OW25385   2.912   0.324   6.159 -0.5817 -0.0642 -0.2781
 8234SOL    HW125386   2.864   0.322   6.076 -0.6465  0.2802 -0.2494
 8234SOL    HW225387   2.867   0.259   6.213 -0.1266 -0.7706 -0.7340
 8235SOL     OW25388   0.073   3.312   4.779 -0.4364 -0.2323 -0.0419
 8235SOL    HW125389   0.039   3.402   4.776  0.1910  0.0248  0.4513
 8235SOL    HW225390   0.100   3.300   4.870 -0.0056 -0.7369 -0.2360
 8236SOL     OW25391   3.402   5.279   3.079  0.3992  0.3825  0.4613
 8236SOL    HW125392   3.345   5.269   3.003  0.6515  1.0114  0.1840
 8236SOL    HW225393   3.344   5.270   3.154  0.1296 -0.1341  0.1979
 8237SOL     OW25394   2.547   1.838   6.509  0.0525  0.3270  0.4428
 8237SOL    HW125395   2.560   1.774   6.440 -2.1002 -0.2253  0.4957
 8237SOL    HW225396   2.617   1.903   6.495 -1.1765  1.0934 -3.2032
 8238SOL     OW25397   4.173   4.929   5.466 -0.0538 -0.3822 -0.1138
 8238SOL    HW125398   4.225   4.931   5.385  0.4892 -0.5479  0.2250
 8238SOL    HW225399   4.191   5.013   5.508 -1.5600  0.3828 -0.9043
 8239SOL     OW25400   6.371   3.128   5.979 -0.0457 -0.1562 -0.9563
 8239SOL    HW125401   6.430   3.190   5.938 -0.9706  0.9988 -0.5976
 8239SOL    HW225402   6.428   3.060   6.014  0.9165 -0.0492 -2.2282
 8240SOL     OW25403   1.948   0.444   5.960  0.4662 -0.6855  0.0746
 8240SOL    HW125404   1.950   0.512   6.027  0.5108 -0.2283 -0.3924
 8240SOL    HW225405   1.918   0.488   5.881  1.1373 -1.0654 -0.3985
 8241SOL     OW25406   0.263   3.076   3.695 -0.1572  0.1482  0.0335
 8241SOL    HW125407   0.201   3.050   3.764  0.4356 -0.7408  0.2316
 8241SOL    HW225408   0.347   3.082   3.739  0.4767 -1.6731 -0.8476
 8242SOL     OW25409   2.389   4.530   1.433 -0.5675  0.1850  0.3460
 8242SOL    HW125410   2.369   4.464   1.367 -0.3348 -0.7352  1.1708
 8242SOL    HW225411   2.400   4.611   1.384 -0.6473 -0.4313 -0.7078
 8243SOL     OW25412   5.306   1.758   5.697 -0.2707 -0.0003 -0.1847
 8243SOL    HW125413   5.220   1.789   5.724 -0.0178 -0.5838  1.4332
 8243SOL    HW225414   5.342   1.716   5.776  1.2133 -0.3618 -1.0133
 8244SOL     OW25415   4.571   5.141   6.206  0.4484  0.0149  0.1173
 8244SOL    HW125416   4.601   5.225   6.170  0.4259 -0.9641 -2.3600
 8244SOL    HW225417   4.649   5.103   6.247  0.0339  2.0103  3.0625
 8245SOL     OW25418   0.547   4.618   1.837 -0.6834 -0.3481 -0.3514
 8245SOL    HW125419   0.584   4.670   1.766 -1.0417 -0.3035 -0.5069
 8245SOL    HW225420   0.585   4.655   1.916 -1.3401  0.5007 -0.4209
 8246SOL     OW25421   0.658   0.930   3.053 -0.0235 -0.2195 -0.5737
 8246SOL    HW125422   0.717   0.874   3.002 -0.0454 -0.7706 -0.0006
 8246SOL    HW225423   0.573   0.888   3.046 -0.7369  1.3783 -2.6613
 8247SOL     OW25424   4.477   6.141   1.584 -0.2333  0.3571  0.2713
 8247SOL    HW125425   4.441   6.226   1.611 -1.6369 -0.6071  1.5829
 8247SOL    HW225426   4.432   6.121   1.502 -1.1454  0.1326  0.8171
 8248SOL     OW25427   2.849   0.855   1.767 -0.6750 -0.5323  0.1479
 8248SOL    HW125428   2.805   0.931   1.729  0.5448 -1.8047 -4.4098
 8248SOL    HW225429   2.782   0.787   1.766 -0.9450 -0.3234  1.5265
 8249SOL     OW25430   2.169   2.157   0.709  0.8356 -0.0079 -0.6590
 8249SOL    HW125431   2.150   2.139   0.801  1.0301 -0.0378 -0.6226
 8249SOL    HW225432   2.260   2.129   0.698  0.3047 -1.5520 -1.2743
 8250SOL     OW25433   6.302   6.443   4.616 -0.0515 -0.3788 -0.1515
 8250SOL    HW125434   6.247   6.518   4.594  1.4212  0.6891 -0.3856
 8250SOL    HW225435   6.277   6.419   4.705 -1.0744 -0.1203 -0.3587
 8251SOL     OW25436   5.533   6.497   2.238  0.0098 -0.2904  0.1924
 8251SOL    HW125437   5.468   6.428   2.257  0.8597 -1.7325 -1.7589
 8251SOL    HW225438   5.605   6.479   2.299 -0.7203  0.3283  1.2660
 8252SOL     OW25439   1.220   3.244   3.881  0.0862 -0.1469  0.2943
 8252SOL    HW125440   1.202   3.270   3.971  0.5714  1.7232 -0.0994
 8252SOL    HW225441   1.134   3.227   3.843 -0.2154  0.2834  0.7692
 8253SOL     OW25442   1.208   4.435   4.863 -0.4422 -0.1568 -0.0989
 8253SOL    HW125443   1.294   4.442   4.821 -0.8798 -0.7431 -1.1484
 8253SOL    HW225444   1.225   4.446   4.956  0.3375  3.3639 -0.5098
 8254SOL     OW25445   4.689   6.285   1.363 -0.0073 -0.8346 -0.0305
 8254SOL    HW125446   4.751   6.235   1.416  0.0363 -0.2184  0.5194
 8254SOL    HW225447   4.683   6.370   1.407 -0.2341 -0.4269 -0.8285
 8255SOL     OW25448   2.164   4.005   0.917  0.2827 -0.4090  0.1166
 8255SOL    HW125449   2.170   3.959   1.001  1.6912 -0.2293  0.1507
 8255SOL    HW225450   2.168   4.098   0.941  1.1336 -0.3649 -0.1524
 8256SOL     OW25451   1.386   3.764   0.815  0.2503 -0.3431 -0.0062
 8256SOL    HW125452   1.367   3.690   0.873  0.4694 -1.4008 -1.2298
 8256SOL    HW225453   1.420   3.723   0.735  1.3541  1.1423 -0.3415
 8257SOL     OW25454   3.846   3.547   4.931 -0.2926 -0.2260  0.3013
 8257SOL    HW125455   3.849   3.628   4.982 -0.5161 -0.2816  0.3998
 8257SOL    HW225456   3.891   3.483   4.986 -1.5597 -0.5804  0.9477
 8258SOL     OW25457   6.284   2.851   3.430 -0.1699 -0.2065  0.1174
 8258SOL    HW125458   6.360   2.904   3.454 -0.7134 -0.3443  2.3847
 8258SOL    HW225459   6.289   2.774   3.487 -2.5384  0.2882  1.1049
 8259SOL     OW25460   3.905   4.683   2.969 -0.0979  0.5464  0.1050
 8259SOL    HW125461   3.948   4.692   2.884  1.0483 -0.7009  0.5254
 8259SOL    HW225462   3.829   4.627   2.951 -0.4081  1.0763 -0.2620
 8260SOL     OW25463   1.984   3.958   1.750 -0.1572  0.4204 -0.1459
 8260SOL    HW125464   2.032   3.892   1.700  0.8422  2.0615 -1.4454
 8260SOL    HW225465   1.910   3.982   1.694 -0.2543  0.7424  0.1166
 8261SOL     OW25466   0.394   1.986   0.703 -0.7788  0.5339 -0.1071
 8261SOL    HW125467   0.446   1.909   0.682 -1.8513 -0.6402  1.3209
 8261SOL    HW225468   0.357   2.014   0.619  0.5484  0.2034 -0.8152
 8262SOL     OW25469   2.959   6.393   6.316  0.3368 -0.1095 -0.4415
 8262SOL    HW125470   2.985   6.483   6.335 -0.4713  0.4307 -1.7367
 8262SOL    HW225471   3.008   6.369   6.238 -1.2572  0.1107 -1.5611
 8263SOL     OW25472   6.421   3.960   1.391 -0.1561 -0.2150 -0.7445
 8263SOL    HW125473   6.457   4.017   1.459 -0.4007  0.1541 -0.9224
 8263SOL    HW225474   6.415   4.017   1.314  0.4413 -0.7145 -1.1706
 8264SOL     OW25475   2.689   0.766   6.381 -0.4484  0.4610 -0.0860
 8264SOL    HW125476   2.605   0.778   6.336  0.0857  2.3719 -0.6602
 8264SOL    HW225477   2.754   0.770   6.311  0.1684 -1.1192  0.3374
 8265SOL     OW25478   3.358   1.356   5.064 -0.1640 -0.4198 -0.0746
 8265SOL    HW125479   3.400   1.271   5.075 -1.3969 -0.9158  1.0306
 8265SOL    HW225480   3.430   1.419   5.072  0.9227 -1.3605 -1.9223
 8266SOL     OW25481   1.440   6.151   4.227  0.2055  0.4762 -0.2635
 8266SOL    HW125482   1.479   6.090   4.290 -0.1656 -1.0873 -1.4723
 8266SOL    HW225483   1.480   6.235   4.247  1.5507 -0.3664  0.7920
 8267SOL     OW25484   5.019   3.374   0.445  0.2987  0.1676  0.9952
 8267SOL    HW125485   4.969   3.454   0.429  0.3260 -0.1339 -0.9249
 8267SOL    HW225486   4.953   3.305   0.451  0.3792 -0.1016 -0.6593
 8268SOL     OW25487   4.849   2.853   0.436 -0.1806  0.0981 -0.6819
 8268SOL    HW125488   4.813   2.904   0.363  0.2938 -0.1951 -1.1289
 8268SOL    HW225489   4.774   2.804   0.470 -0.2449 -0.3992 -1.5078
 8269SOL     OW25490   3.912   3.883   5.914 -0.0988 -0.6162  0.2086
 8269SOL    HW125491   3.993   3.840   5.940  1.4501  2.2556  0.5214
 8269SOL    HW225492   3.855   3.877   5.991  1.2863  0.5598  1.3856
 8270SOL     OW25493   2.921   4.993   5.462 -0.2298 -0.1956 -0.6294
 8270SOL    HW125494   3.007   5.006   5.502 -0.0968 -1.1857 -0.5694
 8270SOL    HW225495   2.940   4.951   5.378 -0.5913  0.6313 -1.1310
 8271SOL     OW25496   3.444   1.383   0.248 -0.6397  0.3212 -0.4614
 8271SOL    HW125497   3.375   1.446   0.228  1.4276  2.7670 -0.3721
 8271SOL    HW225498   3.495   1.377   0.168 -1.8725 -2.8766 -1.1375
 8272SOL     OW25499   4.412   5.112   4.839 -0.3407 -0.2079 -0.0795
 8272SOL    HW125500   4.343   5.045   4.838 -0.4592 -0.1525  1.6345
 8272SOL    HW225501   4.486   5.070   4.795 -0.6091 -1.2717  0.4421
 8273SOL     OW25502   3.463   0.390   3.770 -0.2675  0.4942 -0.4080
 8273SOL    HW125503   3.481   0.395   3.676  0.4834  1.4317 -0.2353
 8273SOL    HW225504   3.544   0.420   3.811  0.3628 -2.3352  0.6347
 8274SOL     OW25505   4.945   4.570   1.051 -0.1933 -0.5048  0.5602
 8274SOL    HW125506   4.948   4.610   1.138  3.6361  0.9608 -0.0390
 8274SOL    HW225507   5.001   4.492   1.060 -0.6028 -0.9220 -0.3917
 8275SOL     OW25508   0.319   5.738   6.076 -0.0340  0.1285 -0.0362
 8275SOL    HW125509   0.231   5.734   6.038  0.1931  1.0064 -0.6731
 8275SOL    HW225510   0.304   5.727   6.170 -0.7153 -0.8353 -0.2430
 8276SOL     OW25511   1.825   6.410   3.275  0.2974 -0.4102  0.0558
 8276SOL    HW125512   1.899   6.387   3.332  0.8481  1.3016  0.0930
 8276SOL    HW225513   1.831   6.349   3.202  0.7895 -1.3359  0.8406
 8277SOL     OW25514   1.565   4.123   4.310  0.0103  0.1373 -0.9694
 8277SOL    HW125515   1.505   4.049   4.324  1.0876 -0.3705  1.4762
 8277SOL    HW225516   1.591   4.150   4.398  2.8026  0.7958 -1.8900
 8278SOL     OW25517   5.479   2.189   5.685 -0.5803  0.2247 -0.2323
 8278SOL    HW125518   5.544   2.208   5.753 -0.8496 -4.0073  1.5056
 8278SOL    HW225519   5.526   2.137   5.620 -1.5517 -0.4553 -0.4205
 8279SOL     OW25520   4.272   1.931   6.242 -0.1008 -0.2314  0.3228
 8279SOL    HW125521   4.265   1.847   6.197 -0.4352  0.3589 -0.7635
 8279SOL    HW225522   4.357   1.966   6.214  0.2443 -0.3963  1.1291
 8280SOL     OW25523   4.041   4.553   5.458  0.0686  0.2086 -0.2220
 8280SOL    HW125524   4.091   4.573   5.379 -0.5082 -1.4244 -1.0574
 8280SOL    HW225525   4.084   4.603   5.528  1.2904  0.7981 -1.3601
 8281SOL     OW25526   1.765   4.211   3.275 -0.3343  0.3470 -0.0005
 8281SOL    HW125527   1.858   4.221   3.256 -0.2318  0.5032  0.5469
 8281SOL    HW225528   1.763   4.152   3.351 -0.7301 -0.3879 -0.5634
 8282SOL     OW25529   2.475   6.457   4.310 -0.6488  0.0140 -0.4183
 8282SOL    HW125530   2.422   6.504   4.373 -2.8288 -1.6890 -0.8484
 8282SOL    HW225531   2.558   6.441   4.355 -1.7829 -0.3164  1.6671
 8283SOL     OW25532   5.005   0.166   5.118 -0.2125 -0.1609 -0.0166
 8283SOL    HW125533   4.929   0.212   5.085 -0.1054 -1.0733 -1.6502
 8283SOL    HW225534   5.069   0.169   5.047  1.1493  0.2282  1.1558
 8284SOL     OW25535   2.596   0.107   5.129 -0.1679 -0.0510  0.0241
 8284SOL    HW125536   2.686   0.087   5.155 -0.4861 -1.0334  0.4165
 8284SOL    HW225537   2.577   0.190   5.173  0.1822 -0.3844  0.8317
 8285SOL     OW25538   3.917   2.805   4.268  0.0977  0.4902 -0.0525
 8285SOL    HW125539   3.908   2.717   4.305  0.8417  0.1246 -0.7045
 8285SOL    HW225540   4.011   2.815   4.252 -0.0466  1.1876 -0.5104
 8286SOL     OW25541   2.979   1.201   1.543  0.3484  0.1039  0.1638
 8286SOL    HW125542   3.012   1.210   1.453 -0.2164 -0.9980 -0.1597
 8286SOL    HW225543   3.054   1.167   1.592  0.1625 -0.9631 -0.2642
 8287SOL     OW25544   2.274   0.123   3.749 -0.0043  0.6244  0.3596
 8287SOL    HW125545   2.340   0.079   3.803  0.0964  0.8343  0.4067
 8287SOL    HW225546   2.192   0.111   3.796  0.1813  1.3465  0.8740
 8288SOL     OW25547   1.770   0.647   2.940  0.8044 -0.4409  0.2619
 8288SOL    HW125548   1.714   0.589   2.888 -0.9023  0.0390  1.4762
 8288SOL    HW225549   1.710   0.688   3.003  2.2994  1.2051  0.6798
 8289SOL     OW25550   1.266   2.004   1.598  0.0430  0.0386  0.1570
 8289SOL    HW125551   1.230   2.003   1.509  0.6549  0.9726 -0.1100
 8289SOL    HW225552   1.194   1.972   1.653 -0.5965  0.1902 -0.5782
 8290SOL     OW25553   5.919   6.230   0.817  0.3618  0.3458  0.4101
 8290SOL    HW125554   5.949   6.198   0.902 -0.6034 -0.9299  0.2974
 8290SOL    HW225555   5.907   6.151   0.764  0.5064  1.0857 -0.7700
 8291SOL     OW25556   1.832   1.833   3.850 -0.0877 -0.1093  0.4627
 8291SOL    HW125557   1.891   1.908   3.859 -1.0830  0.7439  0.2518
 8291SOL    HW225558   1.811   1.808   3.940  1.8717 -1.5245  0.5814
 8292SOL     OW25559   0.209   5.389   5.171  0.3180 -0.4774 -0.3253
 8292SOL    HW125560   0.224   5.315   5.229  0.3592 -0.0798  0.1705
 8292SOL    HW225561   0.267   5.372   5.096  3.2779  0.9680  1.4843
 8293SOL     OW25562   2.032   5.699   0.053  0.5583 -0.0096 -0.3733
 8293SOL    HW125563   1.946   5.741   0.048 -0.8003 -2.4812  0.1838
 8293SOL    HW225564   2.036   5.664   0.142  1.9711 -0.2956 -0.5345
 8294SOL     OW25565   1.864   6.178   2.570  0.1307 -0.7339  0.0360
 8294SOL    HW125566   1.793   6.239   2.553  0.0207 -1.2241 -1.3792
 8294SOL    HW225567   1.928   6.229   2.620 -0.9040 -0.0982  0.7452
 8295SOL     OW25568   0.520   5.868   0.046  0.1157  0.6724 -0.1050
 8295SOL    HW125569   0.453   5.936   0.039 -0.4470  0.2093  0.5867
 8295SOL    HW225570   0.553   5.876   0.135  1.0114  0.9163 -0.4524
 8296SOL     OW25571   0.846   5.715   5.911 -0.2891 -0.6512 -0.2888
 8296SOL    HW125572   0.780   5.754   5.969 -2.4141 -2.6156 -1.2424
 8296SOL    HW225573   0.916   5.685   5.970 -0.8465  0.2897  0.8931
 8297SOL     OW25574   6.160   6.025   0.077 -0.1184 -0.2380 -0.0274
 8297SOL    HW125575   6.082   6.064   0.039 -0.7391 -0.4959  0.9479
 8297SOL    HW225576   6.190   6.089   0.142  1.2280  0.4315 -1.2551
 8298SOL     OW25577   5.108   5.678   1.985 -0.6813  0.9822 -0.1169
 8298SOL    HW125578   5.115   5.583   1.982  1.5920  1.1101 -0.6700
 8298SOL    HW225579   5.168   5.704   2.055 -1.8102  1.9957  0.5126
 8299SOL     OW25580   5.391   0.129   5.215  0.3930 -0.1416 -0.3323
 8299SOL    HW125581   5.338   0.137   5.295 -0.4979  1.2161 -1.0238
 8299SOL    HW225582   5.482   0.127   5.247  0.0349 -0.0990  0.7291
 8300SOL     OW25583   2.715   1.440   3.436  0.0689  0.1626  0.2965
 8300SOL    HW125584   2.669   1.477   3.512 -0.8949  0.4437 -0.4012
 8300SOL    HW225585   2.804   1.425   3.467  0.1747  1.9562  0.9686
 8301SOL     OW25586   2.096   3.216   0.895 -0.3568 -0.0385 -0.1932
 8301SOL    HW125587   2.160   3.286   0.883  2.1031 -2.3397 -1.5420
 8301SOL    HW225588   2.147   3.143   0.931 -2.8549 -1.1457  1.3786
 8302SOL     OW25589   3.098   0.749   2.801 -0.0287 -0.5942  0.0020
 8302SOL    HW125590   3.098   0.695   2.880  2.0254 -0.1412  0.3691
 8302SOL    HW225591   3.107   0.839   2.834  4.1190 -0.5515 -0.6547
 8303SOL     OW25592   4.867   2.367   5.191  0.6447  0.3779  0.0465
 8303SOL    HW125593   4.951   2.413   5.192  0.6452  0.3679  0.5092
 8303SOL    HW225594   4.866   2.321   5.107  2.7486 -2.7118  1.5472
 8304SOL     OW25595   3.190   5.550   0.727 -0.4771  0.3059 -0.6865
 8304SOL    HW125596   3.099   5.578   0.713 -0.6857  1.2188  1.9147
 8304SOL    HW225597   3.203   5.557   0.821  1.3679 -2.7904 -0.5674
 8305SOL     OW25598   2.034   3.660   0.177 -0.2857  0.4380  0.6098
 8305SOL    HW125599   1.954   3.626   0.217 -0.4754 -0.7924 -0.7516
 8305SOL    HW225600   2.060   3.733   0.234 -1.3389 -0.3107  2.1261
 8306SOL     OW25601   1.488   2.316   4.997 -0.0865  0.3703  0.1219
 8306SOL    HW125602   1.565   2.299   4.942 -0.5829 -0.0068 -0.4645
 8306SOL    HW225603   1.423   2.351   4.936 -0.8367 -0.5929  0.3629
 8307SOL     OW25604   0.445   4.232   1.606 -0.4453 -0.3357  0.0119
 8307SOL    HW125605   0.473   4.247   1.697  0.0441 -0.3290 -0.1343
 8307SOL    HW225606   0.522   4.255   1.554 -0.9105  0.2167 -0.4427
 8308SOL     OW25607   4.017   3.169   2.686  0.2134  0.1721 -0.5023
 8308SOL    HW125608   4.059   3.117   2.618 -0.9005 -1.4472 -0.0408
 8308SOL    HW225609   3.945   3.113   2.717  0.0504  1.2818  1.2713
 8309SOL     OW25610   5.909   3.706   2.923 -0.1283 -0.3013 -0.2379
 8309SOL    HW125611   5.973   3.662   2.979  1.0947  1.2946 -0.3035
 8309SOL    HW225612   5.838   3.731   2.981 -0.4721 -1.6349 -0.0595
 8310SOL     OW25613   6.101   6.391   6.355 -0.3773  0.0750  0.2576
 8310SOL    HW125614   6.078   6.389   6.448  2.1807 -2.1825  0.9927
 8310SOL    HW225615   6.156   6.468   6.345  1.1811 -0.8403  1.2442
 8311SOL     OW25616   1.575   0.674   4.698  0.1874 -0.5672  0.3505
 8311SOL    HW125617   1.661   0.649   4.665 -0.3914 -0.7124 -1.1201
 8311SOL    HW225618   1.590   0.694   4.790  2.1134  0.9232 -0.1979
 8312SOL     OW25619   1.431   0.176   0.353 -0.1526 -0.0990  0.3377
 8312SOL    HW125620   1.412   0.159   0.261  0.8235  1.0298 -0.1004
 8312SOL    HW225621   1.467   0.093   0.386  0.2544 -0.2769 -0.5280
 8313SOL     OW25622   6.071   3.338   2.761 -0.0642  0.3545 -0.0808
 8313SOL    HW125623   6.113   3.303   2.682  1.4956  1.2146  0.3143
 8313SOL    HW225624   6.032   3.421   2.732 -0.1199  0.3148 -0.1180
 8314SOL     OW25625   6.249   4.866   2.000 -0.0458  0.2905  0.3393
 8314SOL    HW125626   6.311   4.823   1.941  1.0631  1.2132  0.8068
 8314SOL    HW225627   6.213   4.939   1.949 -0.4499  0.0014  0.2056
 8315SOL     OW25628   1.397   5.310   3.979 -0.2477 -0.1675  0.2463
 8315SOL    HW125629   1.481   5.321   3.934 -0.6718  1.1081 -0.2928
 8315SOL    HW225630   1.418   5.261   4.058  0.8973 -0.4444 -0.2079
 8316SOL     OW25631   5.701   4.885   1.187  0.5040 -0.6604  0.1021
 8316SOL    HW125632   5.659   4.895   1.272 -0.6300 -1.1124 -0.3728
 8316SOL    HW225633   5.787   4.848   1.206  0.1972 -0.9090  1.0391
 8317SOL     OW25634   5.070   5.258   6.327  0.2259 -0.1498 -0.5479
 8317SOL    HW125635   5.124   5.318   6.275 -1.1047  0.6102 -1.1139
 8317SOL    HW225636   5.018   5.316   6.383 -1.5568 -0.6878 -1.5563
 8318SOL     OW25637   2.045   2.955   3.856  0.1460 -0.0156  0.6386
 8318SOL    HW125638   2.056   3.020   3.786  0.5503 -1.1380 -0.3710
 8318SOL    HW225639   2.058   3.005   3.936 -0.0421  1.2556 -0.0826
 8319SOL     OW25640   5.159   6.428   3.418  0.7644  0.3501  0.1917
 8319SOL    HW125641   5.232   6.449   3.360  0.5534  0.5883  0.0074
 8319SOL    HW225642   5.083   6.466   3.374  0.5853  0.4312  0.5702
 8320SOL     OW25643   6.249   1.635   5.468 -0.0881 -0.3147  0.2234
 8320SOL    HW125644   6.289   1.695   5.405  0.3952 -0.1943  0.6441
 8320SOL    HW225645   6.198   1.575   5.413  0.9672 -0.7075 -0.3679
 8321SOL     OW25646   2.365   1.104   2.611  0.9906 -0.4326  0.6385
 8321SOL    HW125647   2.281   1.150   2.613  1.0320 -0.2105 -1.1091
 8321SOL    HW225648   2.360   1.042   2.684  0.2654  1.1577  2.0244
 8322SOL     OW25649   1.752   3.039   1.861 -0.0778  0.8188 -0.4083
 8322SOL    HW125650   1.847   3.035   1.852 -0.2375 -0.0280 -2.1109
 8322SOL    HW225651   1.722   2.951   1.838 -1.3212  1.2790 -0.6147
 8323SOL     OW25652   0.015   5.317   1.376 -0.1563 -0.6968 -0.1926
 8323SOL    HW125653   0.081   5.383   1.398 -1.5411  0.8921 -0.5340
 8323SOL    HW225654  -0.021   5.291   1.460 -0.6182  0.1165 -0.1279
 8324SOL     OW25655   1.915   1.458   4.558  0.4325  0.0955  0.2295
 8324SOL    HW125656   1.820   1.470   4.563  0.3929 -0.0351 -0.1548
 8324SOL    HW225657   1.951   1.532   4.607  0.1665  1.2044 -1.1724
 8325SOL     OW25658   2.336   3.028   0.619 -0.6021  0.3913  0.2785
 8325SOL    HW125659   2.428   3.038   0.643 -0.3156 -0.8129 -0.2426
 8325SOL    HW225660   2.320   3.100   0.558  0.6966 -0.7566 -1.5158
 8326SOL     OW25661   4.079   5.911   5.028 -0.5772  0.0860  0.3187
 8326SOL    HW125662   4.124   5.846   4.973 -0.0702  0.7858 -0.1108
 8326SOL    HW225663   4.122   5.904   5.113 -0.1168  0.2649  0.1061
 8327SOL     OW25664   3.200   3.010   2.732  0.1879 -0.5372  0.5327
 8327SOL    HW125665   3.133   2.948   2.704  0.6431 -0.4443 -0.8280
 8327SOL    HW225666   3.218   2.986   2.823 -0.7713 -1.3748  0.5202
 8328SOL     OW25667   5.077   3.668   6.002  0.2303 -0.4029  0.2879
 8328SOL    HW125668   5.143   3.691   5.937  0.1672 -0.1424  0.3180
 8328SOL    HW225669   4.998   3.652   5.951  0.3626 -0.9047  0.2326
 8329SOL     OW25670   6.429   0.087   3.281 -0.2539 -0.3055 -0.2508
 8329SOL    HW125671   6.461   0.105   3.369  3.2070 -2.4665 -0.8698
 8329SOL    HW225672   6.351   0.033   3.294  0.3254 -0.7775  1.5382
 8330SOL     OW25673   1.245   4.849   5.503 -0.2201 -0.0316  0.7266
 8330SOL    HW125674   1.170   4.875   5.557 -1.7344 -0.2114 -1.1760
 8330SOL    HW225675   1.292   4.931   5.488 -1.5749  0.6192 -0.2432
 8331SOL     OW25676   1.851   5.386   3.277 -0.3938  0.3995  0.5591
 8331SOL    HW125677   1.816   5.414   3.362 -0.9936 -0.5794  0.6563
 8331SOL    HW225678   1.805   5.440   3.213 -0.0707  1.0192  0.8455
 8332SOL     OW25679   1.842   2.688   1.829 -0.6359  0.3681 -0.0153
 8332SOL    HW125680   1.912   2.689   1.894  0.1164 -2.4440 -0.6267
 8332SOL    HW225681   1.888   2.679   1.745 -1.6310 -2.1250 -0.3891
 8333SOL     OW25682   3.431   2.693   6.449 -0.3033 -0.4857 -0.0509
 8333SOL    HW125683   3.504   2.643   6.412  1.4103  0.2746  2.0973
 8333SOL    HW225684   3.385   2.631   6.505 -0.7716 -0.7297 -0.6978
 8334SOL     OW25685   3.237   1.389   4.558 -0.0601  0.1014 -0.4437
 8334SOL    HW125686   3.237   1.332   4.635 -0.7492  0.9957  0.2441
 8334SOL    HW225687   3.283   1.338   4.490 -0.1214 -1.0121  0.3191
 8335SOL     OW25688   2.301   1.234   1.613 -0.1770 -0.5408  0.4471
 8335SOL    HW125689   2.397   1.241   1.616  0.2361 -3.5943 -1.2747
 8335SOL    HW225690   2.277   1.202   1.700  0.4442 -0.2890  0.7145
 8336SOL     OW25691   0.240   5.031   0.459  0.6401 -0.3405 -0.1684
 8336SOL    HW125692   0.245   4.961   0.394  3.1082 -0.4506  0.0649
 8336SOL    HW225693   0.216   4.987   0.540 -0.5217 -0.4768 -0.5615
 8337SOL     OW25694   1.732   1.902   2.919  0.4478 -0.5011 -0.6863
 8337SOL    HW125695   1.804   1.964   2.926  1.5639 -1.8012 -0.2166
 8337SOL    HW225696   1.772   1.816   2.934 -0.9854 -1.3772 -1.5817
 8338SOL     OW25697   0.334   4.967   2.074 -0.4382 -0.7508 -0.4692
 8338SOL    HW125698   0.319   5.034   2.141 -1.5333  0.3983 -1.7913
 8338SOL    HW225699   0.428   4.969   2.059 -0.4782  0.7728 -0.7132
 8339SOL     OW25700   0.108   1.603   1.075  0.0046  0.6741  0.3409
 8339SOL    HW125701   0.111   1.543   1.001 -0.6730  0.1472  0.7224
 8339SOL    HW225702   0.168   1.674   1.052  0.6595 -0.0447 -0.2076
 8340SOL     OW25703   5.478   2.879   0.113 -0.6161 -0.4358  0.1097
 8340SOL    HW125704   5.520   2.939   0.175 -0.5694  1.0322 -1.2708
 8340SOL    HW225705   5.440   2.810   0.168  2.6647 -1.2979  1.4953
 8341SOL     OW25706   1.821   1.730   4.802  0.1497  0.1649  0.7420
 8341SOL    HW125707   1.737   1.683   4.792 -0.4720  1.4588 -0.4665
 8341SOL    HW225708   1.797   1.822   4.796  1.5475  0.6080  1.5742
 8342SOL     OW25709   0.872   0.653   4.336  0.2716  0.1667  0.5263
 8342SOL    HW125710   0.928   0.647   4.413  0.9065 -1.8475 -0.0342
 8342SOL    HW225711   0.894   0.738   4.297  2.8024 -0.4301  0.4740
 8343SOL     OW25712   3.573   6.126   4.915 -0.0178 -0.6412 -0.3435
 8343SOL    HW125713   3.573   6.213   4.956  1.6420 -0.7312 -0.0597
 8343SOL    HW225714   3.638   6.076   4.965 -0.0710 -1.6718 -1.2622
 8344SOL     OW25715   5.033   5.105   5.123 -0.2358 -0.1878  0.3362
 8344SOL    HW125716   4.991   5.190   5.112 -1.1533 -0.8315 -1.7890
 8344SOL    HW225717   4.977   5.044   5.074  0.1985 -2.0973  2.0833
 8345SOL     OW25718   5.289   3.481   5.827 -0.4326  0.1896  0.1648
 8345SOL    HW125719   5.331   3.484   5.741 -2.6303 -0.1149 -1.0004
 8345SOL    HW225720   5.297   3.570   5.862 -0.6725  0.6737 -0.9712
 8346SOL     OW25721   4.932   1.253   0.489 -0.3965  0.6200 -0.1006
 8346SOL    HW125722   4.965   1.342   0.497 -0.6532  0.6054  1.3402
 8346SOL    HW225723   4.906   1.229   0.578 -1.8068 -0.3239 -0.7304
 8347SOL     OW25724   3.033   4.101   4.993  0.1200  0.5177 -0.6112
 8347SOL    HW125725   2.944   4.079   4.968 -0.0469 -0.2542  0.5583
 8347SOL    HW225726   3.088   4.064   4.924 -0.5173  2.4736 -2.2366
 8348SOL     OW25727   5.150   3.320   2.148 -0.2514 -0.0053  0.6695
 8348SOL    HW125728   5.178   3.352   2.234  1.9650 -2.4906  0.9654
 8348SOL    HW225729   5.099   3.242   2.167  1.6986 -1.5758 -0.2610
 8349SOL     OW25730   2.907   2.501   0.078  0.2956  0.3271 -0.6254
 8349SOL    HW125731   2.966   2.467   0.011  0.7653 -0.8197  0.3290
 8349SOL    HW225732   2.938   2.590   0.095  1.0087  0.1491 -0.9571
 8350SOL     OW25733   0.449   3.762   4.966 -0.5683  0.0084 -0.7251
 8350SOL    HW125734   0.381   3.746   4.902 -1.2223  0.0263 -0.0494
 8350SOL    HW225735   0.475   3.853   4.953 -1.5044  0.3584 -0.2194
 8351SOL     OW25736   6.247   4.177   4.514  0.2139 -0.3935  0.6507
 8351SOL    HW125737   6.186   4.104   4.522 -1.6228  0.8961 -0.4850
 8351SOL    HW225738   6.214   4.243   4.576 -1.5436  1.4988 -2.0384
 8352SOL     OW25739   4.305   0.576   6.314  0.3604 -0.3933 -0.4990
 8352SOL    HW125740   4.224   0.593   6.266  0.6580  1.1231 -0.5094
 8352SOL    HW225741   4.310   0.481   6.320 -0.5472 -0.5649 -1.9965
 8353SOL     OW25742   0.487   4.757   5.514  0.1226 -0.2540 -0.2186
 8353SOL    HW125743   0.546   4.707   5.570 -0.8556 -0.8754  0.3025
 8353SOL    HW225744   0.409   4.702   5.507 -0.5078  0.6635 -0.6434
 8354SOL     OW25745   4.430   4.410   2.478  0.3639 -0.0004  0.2935
 8354SOL    HW125746   4.495   4.473   2.511  0.4355 -0.6692  1.4752
 8354SOL    HW225747   4.480   4.350   2.423  0.4557  0.4110 -0.0830
 8355SOL     OW25748   0.896   4.009   4.828  0.0135  0.0893 -0.1588
 8355SOL    HW125749   0.874   4.000   4.735 -1.0273  0.1624  0.0637
 8355SOL    HW225750   0.889   4.103   4.845  0.5397  0.1173 -0.0762
 8356SOL     OW25751   5.820   5.771   1.776  0.0007  0.2114 -0.4478
 8356SOL    HW125752   5.809   5.716   1.699 -1.1043  0.7336 -0.6739
 8356SOL    HW225753   5.781   5.855   1.753 -1.1814  0.0939  0.9804
 8357SOL     OW25754   3.845   3.197   2.929  0.7569 -0.3226 -0.1798
 8357SOL    HW125755   3.799   3.113   2.924 -0.2734  0.2870 -1.4064
 8357SOL    HW225756   3.789   3.258   2.882  2.4865  0.6023 -1.1318
 8358SOL     OW25757   3.474   1.579   5.206  0.0579  0.0155  0.3243
 8358SOL    HW125758   3.387   1.599   5.242 -0.0258  0.2000  0.0172
 8358SOL    HW225759   3.479   1.630   5.125  0.4177 -0.0656  0.2951
 8359SOL     OW25760   3.799   0.888   0.971  0.2154  0.0502 -0.3711
 8359SOL    HW125761   3.739   0.847   1.034  0.2248  1.3438  0.5233
 8359SOL    HW225762   3.850   0.815   0.935 -0.5266 -0.8406  0.3340
 8360SOL     OW25763   5.713   5.916   6.301 -0.5413 -0.0609  0.5740
 8360SOL    HW125764   5.648   5.890   6.367 -0.1746 -0.8488  0.6296
 8360SOL    HW225765   5.663   5.921   6.220 -0.9879  0.8740  0.8890
 8361SOL     OW25766   0.409   0.003   3.067  0.0766  0.3283  0.3147
 8361SOL    HW125767   0.373  -0.085   3.074  0.6987  0.1218  1.0789
 8361SOL    HW225768   0.390   0.043   3.152 -0.5098  1.0548 -0.1495
 8362SOL     OW25769   1.008   2.673   0.491  0.4811 -0.3460  0.1891
 8362SOL    HW125770   0.940   2.722   0.538  0.0915  1.4231 -2.0488
 8362SOL    HW225771   0.959   2.613   0.435  0.9179 -1.7352  1.2457
 8363SOL     OW25772   5.927   2.629   5.683 -0.0516 -0.0591 -0.0107
 8363SOL    HW125773   5.918   2.696   5.615  0.4253  1.0049  0.9518
 8363SOL    HW225774   5.873   2.556   5.651 -2.5359  1.6379 -0.0003
 8364SOL     OW25775   0.501   0.278   3.892 -0.0834  0.0139  0.6763
 8364SOL    HW125776   0.597   0.283   3.894  0.1779 -2.6938  0.1006
 8364SOL    HW225777   0.475   0.339   3.823  1.6107 -1.7788 -1.7347
 8365SOL     OW25778   0.771   0.373   0.615 -0.4460 -0.1870  0.8847
 8365SOL    HW125779   0.684   0.365   0.575 -0.3245  3.2154 -0.4225
 8365SOL    HW225780   0.818   0.434   0.558  1.8819  0.2101  3.0485
 8366SOL     OW25781   6.196   1.771   1.727  0.3440 -0.1240 -0.3930
 8366SOL    HW125782   6.155   1.703   1.673 -1.1483  0.0958  0.3907
 8366SOL    HW225783   6.261   1.811   1.670  0.8005 -1.7634 -1.0827
 8367SOL     OW25784   0.065   2.017   3.228  0.1049 -0.0223  0.3053
 8367SOL    HW125785  -0.030   2.014   3.227  0.0811  0.5819  0.5499
 8367SOL    HW225786   0.087   2.095   3.279  0.6913  1.1127 -1.5583
 8368SOL     OW25787   1.111   3.772   6.255 -0.1462 -0.4768 -0.2957
 8368SOL    HW125788   1.115   3.817   6.339 -0.9361 -0.3856 -0.2930
 8368SOL    HW225789   1.196   3.730   6.246  0.0677 -0.2109  0.3912
 8369SOL     OW25790   2.811   4.598   1.054 -0.1477 -0.8019  0.3901
 8369SOL    HW125791   2.802   4.516   1.005 -2.2157 -2.1596  2.8452
 8369SOL    HW225792   2.722   4.626   1.071  0.5207  0.5554  1.8684
 8370SOL     OW25793   6.452   6.355   5.256 -0.5787 -0.5937 -0.5749
 8370SOL    HW125794   6.402   6.419   5.307 -0.1840 -2.0826  1.8541
 8370SOL    HW225795   6.482   6.404   5.179 -1.4331  1.7376  0.4778
 8371SOL     OW25796   4.923   5.875   1.277 -0.2363  0.1063  0.2619
 8371SOL    HW125797   4.833   5.856   1.303  0.5451 -1.5102  2.0997
 8371SOL    HW225798   4.971   5.880   1.360  2.2694 -4.1797 -0.5886
 8372SOL     OW25799   2.309   2.399   4.376 -0.5862 -0.1970 -0.2871
 8372SOL    HW125800   2.375   2.351   4.426 -0.8051 -1.3903 -1.0773
 8372SOL    HW225801   2.350   2.482   4.355  1.1768 -1.3683 -1.7804
 8373SOL     OW25802   2.034   5.166   5.327 -0.1791  0.0835  0.0307
 8373SOL    HW125803   1.938   5.160   5.332 -0.2840  0.8374 -0.7801
 8373SOL    HW225804   2.062   5.075   5.319 -0.8725 -0.1142 -0.3081
 8374SOL     OW25805   1.789   6.506   1.107  0.6511 -0.0236 -0.1836
 8374SOL    HW125806   1.747   6.518   1.192 -2.0437 -0.9975 -1.2578
 8374SOL    HW225807   1.819   6.415   1.107  0.1441 -0.1954 -0.4538
 8375SOL     OW25808   0.332   1.140   2.866  0.3232 -0.5392  0.2589
 8375SOL    HW125809   0.268   1.156   2.936  0.3727 -1.3360  0.4929
 8375SOL    HW225810   0.413   1.180   2.898 -0.2396  1.1988 -0.3950
 8376SOL     OW25811   5.969   2.090   5.462 -0.1009  0.1630  0.0551
 8376SOL    HW125812   5.913   2.098   5.539  0.3217  4.0223  0.1921
 8376SOL    HW225813   6.053   2.061   5.496 -0.2016  0.8345  0.9228
 8377SOL     OW25814   0.990   4.593   3.945 -0.4732 -0.1954 -0.4162
 8377SOL    HW125815   1.082   4.619   3.948 -0.2640 -0.9864  0.3533
 8377SOL    HW225816   0.951   4.632   4.023 -0.9556  0.6872 -1.0809
 8378SOL     OW25817   0.418   2.073   2.882  0.1450  0.2599  0.1078
 8378SOL    HW125818   0.408   2.037   2.794  2.0528  0.9301 -0.4351
 8378SOL    HW225819   0.388   2.003   2.941  0.6396 -0.9317 -1.0148
 8379SOL     OW25820   4.214   3.260   0.586 -0.0829  0.0659  0.4817
 8379SOL    HW125821   4.154   3.248   0.660 -0.4383  0.9004  0.3340
 8379SOL    HW225822   4.300   3.271   0.626 -0.2155  0.1081  0.7550
 8380SOL     OW25823   3.877   2.385   0.816  0.1205 -0.0082  0.3051
 8380SOL    HW125824   3.818   2.324   0.772 -0.1190 -0.0399  0.6739
 8380SOL    HW225825   3.832   2.469   0.814  0.7749  0.3464 -0.8852
 8381SOL     OW25826   4.469   1.528   4.432 -0.4353 -0.1002 -0.1660
 8381SOL    HW125827   4.462   1.521   4.528 -2.3024 -0.0127 -0.2708
 8381SOL    HW225828   4.556   1.565   4.418  0.1828 -0.8191  1.4529
 8382SOL     OW25829   2.712   1.324   6.351 -0.3042  0.7506 -0.0641
 8382SOL    HW125830   2.747   1.335   6.439 -0.3367  0.5109 -0.0224
 8382SOL    HW225831   2.653   1.249   6.357  1.2732 -0.6169 -0.7418
 8383SOL     OW25832   3.250   4.406   0.520 -0.0241  0.0473  0.2773
 8383SOL    HW125833   3.267   4.500   0.512 -1.5227  0.2431 -0.9957
 8383SOL    HW225834   3.314   4.365   0.461  0.6152  0.2542  0.8143
 8384SOL     OW25835   5.228   3.932   2.825  0.3984 -0.1275 -0.7925
 8384SOL    HW125836   5.192   3.872   2.761 -0.2980 -0.9078  0.2861
 8384SOL    HW225837   5.248   4.011   2.776  0.5672 -0.9538 -2.0837
 8385SOL     OW25838   6.204   2.533   4.712 -0.5717 -0.1433 -0.6729
 8385SOL    HW125839   6.206   2.452   4.764 -0.9325 -0.2231 -0.7839
 8385SOL    HW225840   6.193   2.503   4.622  0.5272 -0.0277 -0.8593
 8386SOL     OW25841   4.736   5.505   2.153 -0.2602  0.4171 -0.0425
 8386SOL    HW125842   4.667   5.517   2.088 -1.4130 -0.4276  0.9893
 8386SOL    HW225843   4.740   5.589   2.199 -0.6437  0.4492 -0.0654
 8387SOL     OW25844   5.357   1.324   6.118  0.2965 -0.4089 -0.1283
 8387SOL    HW125845   5.408   1.405   6.117  2.3269 -1.5890  0.0945
 8387SOL    HW225846   5.348   1.300   6.026  0.5597 -0.4188 -0.1539
 8388SOL     OW25847   4.972   2.203   0.167  0.2804  0.2914 -0.2330
 8388SOL    HW125848   4.887   2.227   0.130 -0.4042  0.8140  1.5866
 8388SOL    HW225849   4.975   2.248   0.251  1.8856 -0.6306  0.2330
 8389SOL     OW25850   1.524   4.953   3.780 -0.5141 -0.3425 -0.3149
 8389SOL    HW125851   1.453   4.890   3.767 -2.6939  1.8194  0.4363
 8389SOL    HW225852   1.533   4.960   3.875  0.0978  0.0520 -0.3961
 8390SOL     OW25853   2.424   0.292   5.522  0.2536 -0.2473 -0.1587
 8390SOL    HW125854   2.379   0.305   5.606  2.6565  1.2473  1.0307
 8390SOL    HW225855   2.362   0.242   5.469 -1.9389 -0.0391  1.9989
 8391SOL     OW25856   1.275   2.461   1.210  0.0611 -0.3245  0.3595
 8391SOL    HW125857   1.303   2.544   1.249 -0.1366 -0.3021  0.4531
 8391SOL    HW225858   1.357   2.416   1.188  0.1754 -0.5076  1.1594
 8392SOL     OW25859   2.387   2.689   5.908  0.0419  0.0059  0.3704
 8392SOL    HW125860   2.389   2.651   5.820 -1.2430  2.5319 -0.8572
 8392SOL    HW225861   2.318   2.640   5.953 -2.0147  1.1420 -1.3525
 8393SOL     OW25862   1.591   2.598   1.871  0.3847 -0.1272 -0.1296
 8393SOL    HW125863   1.681   2.611   1.903  1.1024 -1.7380 -1.3683
 8393SOL    HW225864   1.537   2.648   1.933  1.8919 -1.1657  2.1977
 8394SOL     OW25865   5.101   1.375   3.045  0.2452 -0.0040 -0.1114
 8394SOL    HW125866   5.030   1.314   3.024  0.2072 -0.2716  0.7749
 8394SOL    HW225867   5.071   1.459   3.010  0.4409 -0.5332 -1.6368
 8395SOL     OW25868   3.950   1.129   5.016  0.2833 -0.0301  0.1186
 8395SOL    HW125869   3.942   1.106   5.108 -1.5209 -0.0782 -0.0078
 8395SOL    HW225870   3.977   1.221   5.016 -1.9320  0.6742  0.7617
 8396SOL     OW25871   6.113   4.697   6.265  0.2267  0.2676 -0.2117
 8396SOL    HW125872   6.035   4.679   6.213  0.8018  0.2177 -1.0842
 8396SOL    HW225873   6.096   4.656   6.349 -0.6487  0.1735 -0.4271
 8397SOL     OW25874   5.026   4.051   1.446  0.5942  0.2603 -0.1280
 8397SOL    HW125875   5.014   4.065   1.540  1.3199  0.6412 -0.0822
 8397SOL    HW225876   4.937   4.051   1.410  0.3041  0.0018  0.5677
 8398SOL     OW25877   4.426   2.591   6.082  0.2743 -0.2105 -0.3172
 8398SOL    HW125878   4.461   2.679   6.071 -1.1970  0.3880 -0.5334
 8398SOL    HW225879   4.401   2.564   5.993 -0.1469 -0.4579 -0.1286
 8399SOL     OW25880   4.542   5.994   3.864  0.0553 -0.2128 -0.2604
 8399SOL    HW125881   4.560   5.926   3.799 -0.7368  0.4665 -1.2040
 8399SOL    HW225882   4.486   5.950   3.929  0.8559 -0.8923  0.0012
 8400SOL     OW25883   2.586   2.962   2.482 -0.0479 -0.4627 -0.1753
 8400SOL    HW125884   2.579   2.869   2.459 -3.3873 -0.6775  1.1637
 8400SOL    HW225885   2.596   2.962   2.577  1.3025  0.5943 -0.2856
 8401SOL     OW25886   5.146   5.377   1.926  0.4020 -0.5699  0.1060
 8401SOL    HW125887   5.150   5.292   1.883  0.6892  0.1029 -1.2425
 8401SOL    HW225888   5.052   5.397   1.931  0.3454 -0.8670  0.2425
 8402SOL     OW25889   2.048   2.710   5.162  0.1336 -0.2382  0.3150
 8402SOL    HW125890   2.063   2.690   5.254 -0.5534 -0.8525  0.3093
 8402SOL    HW225891   2.046   2.805   5.157  1.8673 -0.1554  0.6384
 8403SOL     OW25892   2.021   4.478   6.434  0.8922 -0.1115  0.2878
 8403SOL    HW125893   2.081   4.546   6.404 -0.0514  0.6180  0.0506
 8403SOL    HW225894   2.008   4.497   6.527  0.3958  0.2132  0.1536
 8404SOL     OW25895   2.666   0.535   1.205 -0.0056  0.0491 -0.3889
 8404SOL    HW125896   2.623   0.458   1.167  0.1360 -0.6630  0.8238
 8404SOL    HW225897   2.646   0.606   1.145 -0.9810 -0.7324 -1.0220
 8405SOL     OW25898   0.363   4.816   0.652  0.0630 -0.4146 -0.7313
 8405SOL    HW125899   0.273   4.823   0.685 -0.9635 -0.9715 -3.1971
 8405SOL    HW225900   0.354   4.820   0.557  2.6910 -0.3930 -1.0496
 8406SOL     OW25901   2.889   6.307   0.539 -0.1370  0.2238 -1.2775
 8406SOL    HW125902   2.875   6.236   0.476  3.1394 -0.8073 -1.0198
 8406SOL    HW225903   2.903   6.262   0.622  0.5320  1.2575 -0.8190
 8407SOL     OW25904   0.135   3.558   0.377 -0.4330 -0.0892  0.4631
 8407SOL    HW125905   0.173   3.593   0.458 -1.1278 -0.0196  0.7640
 8407SOL    HW225906   0.067   3.620   0.353 -0.6726 -0.4550  0.1803
 8408SOL     OW25907   0.456   0.781   0.794 -0.1997 -0.2159  0.2206
 8408SOL    HW125908   0.454   0.816   0.705 -2.2060  0.0543  0.3348
 8408SOL    HW225909   0.550   0.774   0.814  0.3411  2.5036 -0.8077
 8409SOL     OW25910   1.956   5.399   1.057 -0.2627 -0.0451  0.0974
 8409SOL    HW125911   1.924   5.322   1.104  0.4493  0.2310  1.0592
 8409SOL    HW225912   2.037   5.370   1.016  0.1077  0.2457  0.6234
 8410SOL     OW25913   5.238   0.806   0.530 -0.1842 -0.2582 -0.1485
 8410SOL    HW125914   5.253   0.783   0.438 -1.5323 -2.5232  0.1183
 8410SOL    HW225915   5.189   0.731   0.565 -0.1822  0.8084  2.2787
 8411SOL     OW25916   0.572   2.230   1.303 -0.5439 -0.5791  0.0020
 8411SOL    HW125917   0.536   2.216   1.390  0.1215 -0.5009  0.2964
 8411SOL    HW225918   0.654   2.277   1.318 -0.3936 -0.6138 -0.6621
 8412SOL     OW25919   3.752   2.129   5.654  0.7587 -0.0316  0.2877
 8412SOL    HW125920   3.765   2.034   5.650  0.1587 -0.0829 -0.7531
 8412SOL    HW225921   3.841   2.165   5.652  0.9746 -0.4847 -2.7408
 8413SOL     OW25922   6.502   3.955   0.747 -0.2147  0.5051  0.3542
 8413SOL    HW125923   6.448   4.016   0.696  0.1558  0.0806 -0.5636
 8413SOL    HW225924   6.590   3.967   0.712 -0.1039 -0.4061  0.3125
 8414SOL     OW25925   4.262   3.935   1.278  0.5479 -0.7593  0.7371
 8414SOL    HW125926   4.306   3.922   1.194 -1.1939  1.8319 -0.7134
 8414SOL    HW225927   4.183   3.881   1.272 -0.0218  0.0987  0.2868
 8415SOL     OW25928   0.702   1.095   5.336  0.1070  0.2234 -0.2524
 8415SOL    HW125929   0.693   1.183   5.300  1.0228 -0.1416 -1.4594
 8415SOL    HW225930   0.660   1.039   5.271  0.2845 -0.3020  0.0809
 8416SOL     OW25931   3.193   3.453   4.646  0.2444  0.1900 -0.6077
 8416SOL    HW125932   3.149   3.372   4.670  1.8917 -0.7114 -0.4582
 8416SOL    HW225933   3.163   3.472   4.557 -2.1847  0.9082  0.3039
 8417SOL     OW25934   4.249   0.499   0.854 -0.1606 -0.4067 -0.9953
 8417SOL    HW125935   4.171   0.458   0.892 -1.8895  1.2664 -2.4948
 8417SOL    HW225936   4.234   0.593   0.863  1.4622 -0.0242 -1.7803
 8418SOL     OW25937   4.684   4.766   3.758  0.3540 -0.8211 -0.2102
 8418SOL    HW125938   4.662   4.733   3.845 -0.1500 -2.4081 -0.9193
 8418SOL    HW225939   4.623   4.723   3.699 -0.9917  2.0861 -1.1439
 8419SOL     OW25940   5.584   4.339   5.010 -0.2237 -0.2786  0.2490
 8419SOL    HW125941   5.571   4.272   4.943 -0.6510 -0.7201  0.7684
 8419SOL    HW225942   5.648   4.399   4.971 -1.9186  0.5810 -1.3549
 8420SOL     OW25943   3.180   2.474   5.627  0.1621  0.1980  0.3998
 8420SOL    HW125944   3.118   2.540   5.657  0.9981  0.7620  0.9353
 8420SOL    HW225945   3.222   2.442   5.708  0.5379 -0.2021  0.0557
 8421SOL     OW25946   2.615   1.719   4.266 -0.4548 -0.3831  0.7243
 8421SOL    HW125947   2.698   1.738   4.308 -0.7185  0.1797  0.9980
 8421SOL    HW225948   2.575   1.650   4.319 -0.3272 -0.3956  0.8021
 8422SOL     OW25949   0.260   2.334   4.959 -0.1773 -0.4476  0.4724
 8422SOL    HW125950   0.298   2.251   4.932  1.2977  0.3919 -0.1224
 8422SOL    HW225951   0.331   2.381   5.002 -0.2380  1.4884 -1.3561
 8423SOL     OW25952   2.061   4.872   3.799 -0.4714  0.2177  0.4273
 8423SOL    HW125953   2.036   4.897   3.710  0.4026 -0.5002 -0.0455
 8423SOL    HW225954   2.009   4.793   3.816  0.0747 -0.2032  0.1681
 8424SOL     OW25955   4.017   6.406   3.246  0.1159  0.1926  0.5043
 8424SOL    HW125956   3.992   6.333   3.302 -3.0445  1.6629  1.2415
 8424SOL    HW225957   4.003   6.484   3.300  1.3280  1.4811 -0.9252
 8425SOL     OW25958   0.619   0.810   1.262 -0.0945  0.3288  0.1685
 8425SOL    HW125959   0.573   0.849   1.188 -0.7284  1.5798  1.1845
 8425SOL    HW225960   0.712   0.824   1.244 -0.0624 -1.7906 -1.6709
 8426SOL     OW25961   3.086   5.167   4.226 -0.4560  0.0710  0.0012
 8426SOL    HW125962   3.130   5.146   4.144 -1.9477  0.4714 -0.9315
 8426SOL    HW225963   3.062   5.260   4.217  0.5887  0.5263  1.4921
 8427SOL     OW25964   1.576   5.852   2.555 -0.0031 -0.4615 -0.0427
 8427SOL    HW125965   1.554   5.833   2.464  0.9870  0.3939 -0.4749
 8427SOL    HW225966   1.641   5.787   2.579  0.6854  0.0947 -0.3667
 8428SOL     OW25967   4.834   0.821   1.638  0.0715  0.4966  0.3117
 8428SOL    HW125968   4.740   0.834   1.624  0.2201 -0.2417 -1.5641
 8428SOL    HW225969   4.867   0.793   1.554  1.7681 -0.5684  1.2869
 8429SOL     OW25970   0.159   2.472   5.955  0.2581 -0.3684  0.1344
 8429SOL    HW125971   0.239   2.422   5.972  0.8763  0.3466 -0.5554
 8429SOL    HW225972   0.122   2.432   5.876  0.6855  0.1513 -0.3442
 8430SOL     OW25973   1.385   0.061   5.229 -0.3618  0.6070  0.0157
 8430SOL    HW125974   1.358   0.072   5.320 -0.4335  2.0538 -0.1481
 8430SOL    HW225975   1.331  -0.010   5.195 -1.3332  0.9993  0.7105
 8431SOL     OW25976   5.686   6.385   2.820 -0.2184 -0.1783  0.2624
 8431SOL    HW125977   5.759   6.356   2.765  1.1737  2.3683  0.5944
 8431SOL    HW225978   5.609   6.342   2.782  1.4516 -3.5037  0.2941
 8432SOL     OW25979   5.457   2.373   0.999  0.0251  0.5336 -0.0336
 8432SOL    HW125980   5.408   2.447   0.963  1.5428  1.2361 -0.7628
 8432SOL    HW225981   5.398   2.335   1.064 -2.0230  0.4884 -1.7782
 8433SOL     OW25982   1.552   4.289   3.074 -0.1349  0.1007  0.0663
 8433SOL    HW125983   1.505   4.362   3.114  0.7301  1.5019 -1.3560
 8433SOL    HW225984   1.604   4.251   3.145 -0.3977  1.0375  0.7642
 8434SOL     OW25985   1.834   4.577   6.200 -0.1797 -0.3271 -0.4607
 8434SOL    HW125986   1.850   4.530   6.118 -1.1688 -1.6284  0.0599
 8434SOL    HW225987   1.917   4.572   6.246 -0.3544 -1.9261 -0.2634
 8435SOL     OW25988   5.660   1.626   0.107  0.0453  0.3573 -0.1907
 8435SOL    HW125989   5.579   1.633   0.056  0.2814  1.1765 -0.4674
 8435SOL    HW225990   5.633   1.642   0.198 -0.0696  0.9097 -0.3154
 8436SOL     OW25991   0.410   5.001   2.718  0.3054  0.2428 -0.2231
 8436SOL    HW125992   0.319   5.017   2.744 -0.2919 -0.0548 -1.9699
 8436SOL    HW225993   0.416   5.038   2.630  1.3512 -1.3948 -0.8747
 8437SOL     OW25994   4.437   3.896   4.327 -1.1368 -0.6200  0.7225
 8437SOL    HW125995   4.516   3.901   4.273 -0.6803  0.9883  1.4902
 8437SOL    HW225996   4.377   3.840   4.276 -1.1808  1.7014 -2.0415
 8438SOL     OW25997   1.870   0.649   4.087 -0.2279  0.1817 -0.7995
 8438SOL    HW125998   1.900   0.564   4.053 -2.1127 -0.7084 -0.3609
 8438SOL    HW225999   1.857   0.703   4.009  1.0258  0.1050 -1.0808
 8439SOL     OW26000   2.354   4.066   1.393 -0.5664  0.4388 -0.1098
 8439SOL    HW126001   2.289   4.133   1.414 -1.0850 -0.2984  0.7238
 8439SOL    HW226002   2.435   4.097   1.435 -1.1077 -0.0459  1.3432
 8440SOL     OW26003   3.787   5.084   0.461  0.3554 -0.3177 -0.5249
 8440SOL    HW126004   3.721   5.052   0.522  0.0013  1.9934  0.4330
 8440SOL    HW226005   3.843   5.140   0.514  0.9907  0.5092 -2.0100
 8441SOL     OW26006   2.277   0.106   0.892  0.5138 -0.0363 -0.0405
 8441SOL    HW126007   2.233   0.191   0.889  0.5816  0.0177  0.4449
 8441SOL    HW226008   2.207   0.043   0.875  0.1860  0.0364  0.9288
 8442SOL     OW26009   2.083   6.303   6.206 -0.0450  0.8434 -0.1013
 8442SOL    HW126010   2.003   6.254   6.224  0.0569  0.1055 -1.5620
 8442SOL    HW226011   2.143   6.277   6.276 -0.5834  0.2730  0.1636
 8443SOL     OW26012   1.090   4.291   0.080 -0.1427 -0.4289  0.6748
 8443SOL    HW126013   1.102   4.207   0.125  0.9146 -0.7279 -0.1376
 8443SOL    HW226014   1.114   4.274  -0.011  1.2800  1.0218  0.7222
 8444SOL     OW26015   4.768   6.240   3.587 -0.5126  0.7168  0.0350
 8444SOL    HW126016   4.689   6.224   3.536 -0.4729 -0.1770  0.2322
 8444SOL    HW226017   4.752   6.323   3.632 -0.9341  1.0267 -0.6756
 8445SOL     OW26018   4.542   5.598   2.970  0.6593 -0.2218  0.8450
 8445SOL    HW126019   4.621   5.643   2.940  0.0015  0.2067 -0.2981
 8445SOL    HW226020   4.557   5.506   2.948 -0.2421  0.2152 -1.8941
 8446SOL     OW26021   1.333   0.661   0.372  0.4471 -0.4473 -0.5134
 8446SOL    HW126022   1.271   0.703   0.313 -0.1824 -0.7354 -0.0650
 8446SOL    HW226023   1.304   0.570   0.377  1.2939 -0.7482 -0.8053
 8447SOL     OW26024   2.961   2.234   3.550  0.2813 -0.4798 -0.0454
 8447SOL    HW126025   2.893   2.170   3.569 -0.4881  0.1736 -0.5206
 8447SOL    HW226026   2.928   2.282   3.474  0.4815  0.9654  0.7508
 8448SOL     OW26027   5.175   4.099   5.039 -0.5831  0.0708  0.5053
 8448SOL    HW126028   5.264   4.067   5.028 -1.1979 -0.9751 -2.1677
 8448SOL    HW226029   5.141   4.050   5.114  0.5446 -0.8551  0.4420
 8449SOL     OW26030   1.053   1.705   0.516 -0.1077 -0.1329 -1.1192
 8449SOL    HW126031   1.019   1.683   0.603 -1.2173  1.9387 -0.9775
 8449SOL    HW226032   1.121   1.639   0.500  1.9171  0.8131  2.3676
 8450SOL     OW26033   1.465   1.497   4.328 -0.1724  0.2338 -0.5393
 8450SOL    HW126034   1.506   1.411   4.321 -2.2858 -1.0012  0.9316
 8450SOL    HW226035   1.372   1.480   4.313 -0.7526  2.1130  0.5693
 8451SOL     OW26036   1.137   1.037   0.892  0.6226 -0.4517 -0.1057
 8451SOL    HW126037   1.157   0.960   0.945  0.4245  0.5062  1.4516
 8451SOL    HW226038   1.206   1.100   0.915 -0.9330  0.9275  1.0934
 8452SOL     OW26039   1.387   0.694   5.795  0.2310  0.4216 -0.1811
 8452SOL    HW126040   1.304   0.740   5.783  0.3927  0.2190 -2.4922
 8452SOL    HW226041   1.450   0.743   5.743  1.0531 -0.7623 -0.3481
 8453SOL     OW26042   4.159   1.093   5.711  0.0610 -0.9967 -0.1752
 8453SOL    HW126043   4.150   1.100   5.616 -1.2357 -1.0145 -0.0656
 8453SOL    HW226044   4.254   1.084   5.725  0.3099 -0.6035 -1.4304
 8454SOL     OW26045   2.064   1.903   0.468 -0.3061  0.3865 -0.0176
 8454SOL    HW126046   1.988   1.907   0.411  0.0788  0.0519 -0.5644
 8454SOL    HW226047   2.045   1.966   0.538  0.3220  2.8106 -1.8716
 8455SOL     OW26048   5.914   4.005   4.997 -0.0636 -0.0756 -0.7051
 8455SOL    HW126049   5.932   3.942   4.927 -0.6354  0.4726 -1.3571
 8455SOL    HW226050   5.969   4.081   4.977  1.6578 -0.8270  0.8159
 8456SOL     OW26051   5.633   0.662   5.557 -0.5772  0.1939 -0.0773
 8456SOL    HW126052   5.643   0.739   5.502 -2.2532  0.0242 -0.6850
 8456SOL    HW226053   5.541   0.637   5.547 -0.6220 -0.5659  1.8595
 8457SOL     OW26054   3.350   0.030   0.975 -0.3477 -0.0280  0.0740
 8457SOL    HW126055   3.295   0.051   1.051 -1.1632  3.5209 -1.3319
 8457SOL    HW226056   3.289  -0.003   0.910 -0.1315 -0.1415 -0.0713
 8458SOL     OW26057   5.532   1.121   1.055  0.0604  0.8250 -0.1637
 8458SOL    HW126058   5.616   1.077   1.070 -1.1498 -0.8756  2.4736
 8458SOL    HW226059   5.504   1.091   0.968  0.7718 -1.1717  0.2331
 8459SOL     OW26060   0.114   1.495   1.726 -0.2063  0.2710 -0.0384
 8459SOL    HW126061   0.195   1.545   1.736 -0.4479  0.5413  0.6023
 8459SOL    HW226062   0.072   1.534   1.649  1.3002 -1.3230 -1.7539
 8460SOL     OW26063   2.902   2.574   5.951 -0.0487  0.5006 -0.8350
 8460SOL    HW126064   2.862   2.648   5.906 -3.3705  1.2116  2.7158
 8460SOL    HW226065   2.868   2.497   5.905  0.3761  1.1220 -2.2474
 8461SOL     OW26066   1.545   4.040   2.867 -0.3183 -0.1096  0.0498
 8461SOL    HW126067   1.480   4.103   2.834  0.3786  0.5428 -0.1251
 8461SOL    HW226068   1.594   4.089   2.933 -0.7697 -0.9677  1.0320
 8462SOL     OW26069   2.840   6.324   2.927 -0.0005  0.7884  0.0657
 8462SOL    HW126070   2.922   6.355   2.963 -0.0433  0.6320  0.3052
 8462SOL    HW226071   2.865   6.263   2.857  0.0854  2.1648 -1.1478
 8463SOL     OW26072   3.102   6.344   4.935 -0.4886  0.0090 -0.1844
 8463SOL    HW126073   3.192   6.371   4.914  0.4483 -1.5921  1.4186
 8463SOL    HW226074   3.105   6.325   5.029 -2.2542 -1.0674 -0.3017
 8464SOL     OW26075   6.393   5.158   2.774 -0.0976 -0.2855  0.5607
 8464SOL    HW126076   6.381   5.253   2.776 -1.4595 -0.4324  1.7265
 8464SOL    HW226077   6.317   5.126   2.725 -0.1469 -0.8083  0.9696
 8465SOL     OW26078   2.686   0.867   4.105 -0.0087 -0.2142  0.3271
 8465SOL    HW126079   2.735   0.866   4.022  0.9321 -0.9906  0.8682
 8465SOL    HW226080   2.608   0.919   4.086 -0.3477 -1.2678 -1.3345
 8466SOL     OW26081   2.588   0.187   2.457  0.0435 -0.1019 -0.0148
 8466SOL    HW126082   2.662   0.209   2.400  0.6710 -2.2660 -0.1202
 8466SOL    HW226083   2.544   0.271   2.472  2.6910  1.3537  0.3176
 8467SOL     OW26084   0.713   2.141   0.989  0.0201 -0.4678 -0.0913
 8467SOL    HW126085   0.737   2.178   0.904 -0.4306  0.1763  0.0564
 8467SOL    HW226086   0.794   2.143   1.039  0.3815 -1.1982 -0.6202
 8468SOL     OW26087   2.653   1.638   1.952  0.0992 -0.3628  0.4238
 8468SOL    HW126088   2.670   1.659   2.044 -0.0124  1.4345  0.0672
 8468SOL    HW226089   2.709   1.563   1.934  1.4034  0.3104  1.4985
 8469SOL     OW26090   5.389   4.068   3.084  0.1802 -0.1391 -0.0364
 8469SOL    HW126091   5.418   3.977   3.087  0.0539 -0.1658  0.4803
 8469SOL    HW226092   5.305   4.068   3.131  1.0516  0.5620  1.6114
 8470SOL     OW26093   3.921   1.624   3.424  0.1999  1.0066 -0.1642
 8470SOL    HW126094   3.959   1.561   3.363  2.3694  1.8199  0.2644
 8470SOL    HW226095   3.914   1.705   3.373  1.3490  1.4978  0.4309
 8471SOL     OW26096   0.913   4.916   6.128 -0.0950  0.7425 -0.3395
 8471SOL    HW126097   0.980   4.912   6.060 -0.4251  0.1015 -0.6370
 8471SOL    HW226098   0.962   4.930   6.209  0.2563  2.2932 -0.7797
 8472SOL     OW26099   1.096   2.702   2.932  0.2688 -0.2313  0.4266
 8472SOL    HW126100   1.179   2.687   2.978  1.4139  0.4344 -1.3293
 8472SOL    HW226101   1.031   2.656   2.985  1.6661 -0.3746  2.1177
 8473SOL     OW26102   2.124   0.280   1.527  0.1772 -0.2752 -0.4465
 8473SOL    HW126103   2.045   0.234   1.553 -0.9673  0.6731 -2.0265
 8473SOL    HW226104   2.110   0.370   1.556  1.0628 -0.2740  0.0002
 8474SOL     OW26105   3.524   3.829   3.187  0.1851  0.3419 -0.1482
 8474SOL    HW126106   3.443   3.879   3.196  0.8082  1.1072  1.7976
 8474SOL    HW226107   3.582   3.886   3.137  0.3146  0.8586  0.5725
 8475SOL     OW26108   0.301   2.448   3.185 -0.7998 -0.5770  0.3330
 8475SOL    HW126109   0.208   2.437   3.204 -0.8303  1.0460  1.2619
 8475SOL    HW226110   0.318   2.541   3.195  0.8897 -0.7880 -0.0827
 8476SOL     OW26111   4.773   1.484   5.298 -0.4020 -0.1009  0.2082
 8476SOL    HW126112   4.706   1.416   5.297  0.7639 -1.2931  0.5114
 8476SOL    HW226113   4.732   1.558   5.343 -1.7314 -0.5484 -0.2308
 8477SOL     OW26114   1.056   2.019   0.578 -0.0563 -0.0974  0.0874
 8477SOL    HW126115   0.979   1.984   0.624 -0.6248 -1.0964 -1.5482
 8477SOL    HW226116   1.123   1.953   0.591  0.1191  0.1344  0.3730
 8478SOL     OW26117   5.996   4.835   5.210  0.2917  0.2803  0.4614
 8478SOL    HW126118   5.989   4.929   5.193 -1.8853  0.1553  0.4335
 8478SOL    HW226119   6.039   4.800   5.132  0.3499  1.1521  0.0867
 8479SOL     OW26120   3.394   0.831   6.067  0.6456  0.1619 -0.3527
 8479SOL    HW126121   3.409   0.924   6.085  1.1295 -0.3049  1.8974
 8479SOL    HW226122   3.298   0.822   6.065  0.5920  0.6008  0.1190
 8480SOL     OW26123   1.092   4.130   0.801  0.0539  0.5253 -0.1056
 8480SOL    HW126124   0.998   4.146   0.797 -0.1526 -0.7950 -1.6865
 8480SOL    HW226125   1.132   4.216   0.792 -1.0104  0.9286 -1.1298
 8481SOL     OW26126   1.550   3.769   2.756 -0.2470  0.6357  0.3584
 8481SOL    HW126127   1.561   3.853   2.800 -0.8376  1.1767 -0.5023
 8481SOL    HW226128   1.477   3.782   2.696  0.4034 -0.1407 -0.6353
 8482SOL     OW26129   6.369   3.477   2.075 -0.1079  0.0316 -0.4295
 8482SOL    HW126130   6.315   3.539   2.026 -1.5740 -0.6712  0.2630
 8482SOL    HW226131   6.388   3.521   2.157  0.5563  0.3526 -0.7464
 8483SOL     OW26132   4.293   1.076   0.505  0.7214 -0.1417  0.3345
 8483SOL    HW126133   4.240   1.123   0.570  1.4421  0.6715  0.3545
 8483SOL    HW226134   4.314   1.142   0.439  1.0298 -0.6532 -0.0856
 8484SOL     OW26135   5.548   0.383   0.402  0.3482  0.0496  0.2683
 8484SOL    HW126136   5.577   0.439   0.330 -0.5177  0.2612  0.0621
 8484SOL    HW226137   5.478   0.433   0.444 -0.6311 -0.9745 -0.0930
 8485SOL     OW26138   0.092   1.090   0.304  0.6689  0.3285  0.7782
 8485SOL    HW126139   0.009   1.100   0.351 -0.9211 -0.8288 -1.5979
 8485SOL    HW226140   0.130   1.178   0.304 -0.8020  0.9990  1.4799
 8486SOL     OW26141   1.585   5.055   4.791 -0.1637 -0.2782  0.0935
 8486SOL    HW126142   1.612   5.126   4.849  1.3244 -1.3957  0.8624
 8486SOL    HW226143   1.619   5.079   4.705 -0.4824  0.3662  0.1419
 8487SOL     OW26144   2.693   0.712   3.749  0.4287  0.0440 -0.1635
 8487SOL    HW126145   2.773   0.668   3.718  0.2934 -0.2415 -0.1054
 8487SOL    HW226146   2.723   0.800   3.773  0.7077 -0.0264 -0.2433
 8488SOL     OW26147   3.785   5.160   6.372  0.7211 -0.1431  0.1131
 8488SOL    HW126148   3.860   5.161   6.311  1.9744 -0.8053  1.5739
 8488SOL    HW226149   3.814   5.104   6.444 -0.8698  0.3073  1.1437
 8489SOL     OW26150   1.442   3.836   2.490 -0.5606  0.0226  0.0728
 8489SOL    HW126151   1.461   3.929   2.478 -0.4015 -0.3501 -3.3574
 8489SOL    HW226152   1.407   3.807   2.406  2.6358 -3.7570 -0.2222
 8490SOL     OW26153   5.723   0.501   4.197 -0.5176  1.1648 -0.0388
 8490SOL    HW126154   5.674   0.584   4.191 -1.6809  0.4101 -2.0790
 8490SOL    HW226155   5.790   0.509   4.129 -0.5752  0.4990 -0.1789
 8491SOL     OW26156   6.433   2.245   2.508  0.5811  0.1038 -0.0955
 8491SOL    HW126157   6.350   2.268   2.548  1.1776  1.5726  0.3457
 8491SOL    HW226158   6.414   2.243   2.414 -0.3449 -1.3740  0.0853
 8492SOL     OW26159   1.471   2.510   5.254  0.3099  0.1600 -0.0746
 8492SOL    HW126160   1.394   2.480   5.301 -0.4651  1.3546 -0.5273
 8492SOL    HW226161   1.444   2.513   5.162  0.0071  2.9754  0.0109
 8493SOL     OW26162   4.105   6.450   5.651  0.1570  0.0306 -0.2756
 8493SOL    HW126163   4.043   6.492   5.712 -1.2874 -0.4866 -1.3248
 8493SOL    HW226164   4.121   6.364   5.690  1.7377  0.8222  0.9594
 8494SOL     OW26165   4.090   1.068   0.864  0.0302 -0.1336 -0.2777
 8494SOL    HW126166   4.027   1.041   0.932  0.5917  0.4222  0.4750
 8494SOL    HW226167   4.054   1.150   0.829  1.3307  1.2928  1.5694
 8495SOL     OW26168   0.782   2.346   0.122  0.0580 -0.0611 -0.3853
 8495SOL    HW126169   0.706   2.355   0.179  0.0359 -1.8020 -0.0709
 8495SOL    HW226170   0.762   2.400   0.045 -0.2854  1.6357  0.8525
 8496SOL     OW26171   3.900   3.794   4.306  0.0532 -0.3526 -0.4964
 8496SOL    HW126172   3.817   3.828   4.275  0.2730  0.6474 -0.0174
 8496SOL    HW226173   3.886   3.699   4.313 -2.0282  0.0268  2.3475
 8497SOL     OW26174   2.132   2.565   2.409 -0.6566 -0.1802 -0.6189
 8497SOL    HW126175   2.057   2.527   2.362 -1.1639  0.2685 -0.1887
 8497SOL    HW226176   2.097   2.585   2.495  0.1915 -0.7235 -0.1379
 8498SOL     OW26177   4.033   5.567   1.887  0.1668  0.1815 -0.1564
 8498SOL    HW126178   3.976   5.603   1.819  0.6642 -1.6231 -1.5825
 8498SOL    HW226179   4.050   5.477   1.860  0.5265 -0.5450  2.2924
 8499SOL     OW26180   0.538   0.821   4.721 -0.1408 -0.1619  0.9002
 8499SOL    HW126181   0.618   0.772   4.702 -1.5716 -2.5981  0.8191
 8499SOL    HW226182   0.470   0.777   4.671 -1.5988  1.7865  1.0421
 8500SOL     OW26183   5.110   2.809   3.859  0.0632 -0.3877  0.5779
 8500SOL    HW126184   5.020   2.839   3.845 -0.0830 -1.2251 -0.3372
 8500SOL    HW226185   5.149   2.810   3.772  0.8573 -0.3205  0.9304
 8501SOL     OW26186   1.735   5.566   4.893 -0.2447  0.1622  0.0647
 8501SOL    HW126187   1.687   5.579   4.811 -0.1287  0.0200 -0.0252
 8501SOL    HW226188   1.679   5.606   4.960 -0.6656 -0.3352  0.0124
 8502SOL     OW26189   5.391   2.278   1.243  0.1335 -0.5968  0.0649
 8502SOL    HW126190   5.469   2.255   1.292  0.3021  0.1878  0.1747
 8502SOL    HW226191   5.319   2.268   1.305  0.0640 -1.8784 -0.1952
 8503SOL     OW26192   5.891   0.420   1.431 -0.2128  0.9644 -0.0272
 8503SOL    HW126193   5.930   0.389   1.513  1.8051  2.7515 -0.2194
 8503SOL    HW226194   5.884   0.341   1.377  1.2873  0.2017  0.8109
 8504SOL     OW26195   0.847   6.062   0.816  0.1551  0.5836  0.1590
 8504SOL    HW126196   0.769   6.117   0.826  0.5501  0.9478  1.4379
 8504SOL    HW226197   0.861   6.025   0.903  1.1644  0.1794 -0.1603
 8505SOL     OW26198   4.771   5.209   5.232  0.4935  0.0785 -0.0142
 8505SOL    HW126199   4.815   5.289   5.263 -0.6262  0.7009  0.0578
 8505SOL    HW226200   4.768   5.218   5.137 -0.0645  0.3814  0.0237
 8506SOL     OW26201   4.605   2.731   0.468 -0.9441  0.4402  0.1632
 8506SOL    HW126202   4.614   2.729   0.563 -1.1068  1.6526  0.2157
 8506SOL    HW226203   4.634   2.645   0.440  0.6403  0.5969  1.1943
 8507SOL     OW26204   2.512   5.616   3.156 -0.0229 -0.6799 -0.4122
 8507SOL    HW126205   2.503   5.523   3.135  0.0827 -0.0284 -3.9372
 8507SOL    HW226206   2.423   5.650   3.150 -0.1889 -0.5859  1.6574
 8508SOL     OW26207   5.485   0.586   1.371 -0.1798  0.3676  1.0010
 8508SOL    HW126208   5.543   0.585   1.448 -1.2122 -1.5057  1.8335
 8508SOL    HW226209   5.434   0.667   1.381  0.4858  0.7271  1.6525
 8509SOL     OW26210   6.393   2.380   5.179 -0.0292  0.0648  0.0879
 8509SOL    HW126211   6.337   2.453   5.207  2.2242  1.9343  0.0269
 8509SOL    HW226212   6.432   2.410   5.097  3.1007  0.0958  1.4379
 8510SOL     OW26213   5.329   1.436   1.597 -0.0714 -0.2610  1.0040
 8510SOL    HW126214   5.314   1.504   1.531 -0.4584  1.1080  2.4318
 8510SOL    HW226215   5.385   1.373   1.553  0.3969  1.0268 -0.3687
 8511SOL     OW26216   1.036   2.067   6.271  0.5828 -0.8631 -0.2028
 8511SOL    HW126217   1.058   1.979   6.302  0.6482 -0.8583 -0.2352
 8511SOL    HW226218   0.970   2.098   6.332  1.7055 -0.3152  0.7792
 8512SOL     OW26219   2.300   1.680   3.309  0.0224 -0.3181  0.1946
 8512SOL    HW126220   2.347   1.603   3.276  1.5813  0.2799  0.8963
 8512SOL    HW226221   2.299   1.668   3.404  0.9814  0.8650  0.3834
 8513SOL     OW26222   1.936   5.970   3.974 -0.2791 -0.5183 -0.0008
 8513SOL    HW126223   1.881   6.048   3.978  0.2912 -0.1355  0.6671
 8513SOL    HW226224   1.933   5.933   4.062  1.2677  0.0649  0.3453
 8514SOL     OW26225   5.634   1.600   2.364  0.1034 -0.0190 -0.4016
 8514SOL    HW126226   5.608   1.508   2.359 -0.6672  0.1737 -0.1510
 8514SOL    HW226227   5.717   1.599   2.413 -0.1365 -0.5421  0.0035
 8515SOL     OW26228   5.401   5.490   4.599  0.1621 -0.2338 -0.1580
 8515SOL    HW126229   5.367   5.571   4.560 -4.2813 -1.3913  0.7837
 8515SOL    HW226230   5.413   5.512   4.692 -0.6843 -0.4910  0.0238
 8516SOL     OW26231   2.184   0.631   5.786 -0.3736  0.0183 -0.0238
 8516SOL    HW126232   2.272   0.647   5.752  0.0917 -1.7135  0.2778
 8516SOL    HW226233   2.164   0.709   5.839 -0.7833  2.4550 -3.3880
 8517SOL     OW26234   2.543   6.432   1.322 -0.2774  0.2702 -0.0402
 8517SOL    HW126235   2.478   6.496   1.295  0.2761  1.0241  0.3773
 8517SOL    HW226236   2.497   6.375   1.384 -0.6929  0.4216 -0.2069
 8518SOL     OW26237   3.278   6.121   3.933 -0.0604 -0.5812 -0.4795
 8518SOL    HW126238   3.240   6.207   3.914  1.2453  0.1242 -0.0060
 8518SOL    HW226239   3.363   6.122   3.889  0.4008 -1.2434  0.3710
 8519SOL     OW26240   3.218   3.716   5.759  0.5643 -0.2694  0.2649
 8519SOL    HW126241   3.162   3.741   5.685  0.4276 -0.8550  0.1611
 8519SOL    HW226242   3.268   3.795   5.779  2.4002 -0.6999 -2.0540
 8520SOL     OW26243   5.454   6.244   3.536 -0.2502 -0.0211  0.0064
 8520SOL    HW126244   5.549   6.236   3.534 -0.0801  1.6326  0.4845
 8520SOL    HW226245   5.436   6.337   3.529 -1.7182  0.0034  2.5599
 8521SOL     OW26246   2.377   4.468   3.734  0.2734 -0.2822  0.6764
 8521SOL    HW126247   2.414   4.394   3.783 -3.3924 -0.2124  4.0930
 8521SOL    HW226248   2.291   4.437   3.706 -0.8398  2.1962  1.0723
 8522SOL     OW26249   0.632   5.101   5.813 -0.3322  0.7273 -0.1715
 8522SOL    HW126250   0.664   5.011   5.826 -1.2677 -0.1685 -3.1853
 8522SOL    HW226251   0.656   5.122   5.723 -2.4095  2.5345 -0.3830
 8523SOL     OW26252   1.919   4.284   3.523 -0.2309 -0.4628 -0.0169
 8523SOL    HW126253   1.846   4.342   3.546  0.8691  0.0260  2.6725
 8523SOL    HW226254   1.884   4.196   3.534 -0.6836 -0.2452  0.2972
 8524SOL     OW26255   1.312   6.130   5.567  0.4003 -0.4477 -0.0397
 8524SOL    HW126256   1.253   6.203   5.546  2.3261  1.3259  0.3859
 8524SOL    HW226257   1.287   6.104   5.656 -1.3825 -1.4938 -0.7864
 8525SOL     OW26258   4.470   5.407   5.438  0.1177  0.4670 -0.2631
 8525SOL    HW126259   4.556   5.380   5.469  0.6126  0.1371 -1.8409
 8525SOL    HW226260   4.408   5.355   5.490  0.9286 -0.6427 -0.3830
 8526SOL     OW26261   6.439   3.202   1.988 -0.0779 -0.5519  0.3264
 8526SOL    HW126262   6.370   3.142   2.018  0.1364 -0.7075  0.5254
 8526SOL    HW226263   6.410   3.288   2.016  0.8655 -0.8530  2.5037
 8527SOL     OW26264   4.614   0.769   5.654  0.5532  0.5967 -0.1632
 8527SOL    HW126265   4.537   0.729   5.695  0.2349  0.6883 -0.6597
 8527SOL    HW226266   4.659   0.696   5.612  2.2698  0.0441  2.4229
 8528SOL     OW26267   1.753   3.560   2.276  0.2422 -0.1876  0.5641
 8528SOL    HW126268   1.735   3.467   2.282  1.2920 -0.3812  0.9028
 8528SOL    HW226269   1.690   3.601   2.336 -0.3497 -0.6572  0.2604
 8529SOL     OW26270   1.929   3.037   3.534 -0.8235 -0.4398 -0.1012
 8529SOL    HW126271   1.994   3.034   3.464  2.0768  0.3187  2.3648
 8529SOL    HW226272   1.941   3.122   3.576 -1.0205 -1.5829  2.5076
 8530SOL     OW26273   5.612   2.368   1.703 -0.2574  0.1108 -0.3706
 8530SOL    HW126274   5.611   2.318   1.784 -0.1043  0.9498  0.1606
 8530SOL    HW226275   5.577   2.308   1.637 -0.5079 -0.5329  0.3372
 8531SOL     OW26276   1.387   0.772   1.435  0.2199  0.0496  0.3221
 8531SOL    HW126277   1.302   0.817   1.430  0.1691  0.2652  2.1934
 8531SOL    HW226278   1.366   0.679   1.430 -0.0368  0.1211  0.0331
 8532SOL     OW26279   1.673   1.362   2.687  0.1110 -0.1683  0.4471
 8532SOL    HW126280   1.743   1.426   2.703  0.0652  0.1803 -0.6995
 8532SOL    HW226281   1.602   1.389   2.744 -1.9203  3.9625 -3.4726
 8533SOL     OW26282   1.872   1.254   3.489  0.2351 -0.2304  0.2021
 8533SOL    HW126283   1.932   1.204   3.432  1.1716 -0.0318  0.9868
 8533SOL    HW226284   1.913   1.250   3.575 -0.4677  0.6328  0.5816
 8534SOL     OW26285   5.544   3.251   5.815 -0.3414  0.0634  0.4048
 8534SOL    HW126286   5.525   3.220   5.726  0.0619  0.5840  0.1282
 8534SOL    HW226287   5.484   3.325   5.827 -0.0908  0.2696  0.3966
 8535SOL     OW26288   4.628   4.708   4.256 -0.5261  0.0871 -0.3975
 8535SOL    HW126289   4.712   4.753   4.247  0.9672 -1.5818  3.3448
 8535SOL    HW226290   4.567   4.776   4.283  0.1658  0.9028 -0.8227
 8536SOL     OW26291   4.729   5.887   4.295 -0.2012 -0.6679 -0.0288
 8536SOL    HW126292   4.730   5.795   4.268  0.0873 -0.5335 -0.4667
 8536SOL    HW226293   4.801   5.894   4.358  0.0270 -0.6471 -0.2935
 8537SOL     OW26294   5.355   2.865   2.396 -0.8302  0.0365  0.3751
 8537SOL    HW126295   5.413   2.789   2.386  1.0578  1.2729  1.3557
 8537SOL    HW226296   5.268   2.827   2.409 -0.2111 -1.9082 -0.7399
 8538SOL     OW26297   2.702   1.473   5.796  0.2648 -0.4484 -0.2656
 8538SOL    HW126298   2.637   1.468   5.727 -0.9310  1.9105  0.5812
 8538SOL    HW226299   2.668   1.416   5.866 -0.0861 -0.4366 -0.4278
 8539SOL     OW26300   1.504   0.516   5.973  0.0902  0.0358 -0.0203
 8539SOL    HW126301   1.485   0.572   5.898  0.3307 -0.5849 -0.5560
 8539SOL    HW226302   1.430   0.456   5.978  0.3699 -0.3253 -0.1508
 8540SOL     OW26303   2.177   2.727   4.453 -0.3852  0.1381 -0.1149
 8540SOL    HW126304   2.117   2.774   4.395  0.4405  0.9602 -0.3401
 8540SOL    HW226305   2.245   2.792   4.473  0.0373 -0.5487  0.7077
 8541SOL     OW26306   1.918   4.405   5.539  0.8876 -0.3983 -0.1513
 8541SOL    HW126307   1.842   4.358   5.504  0.9378  0.5711 -1.6389
 8541SOL    HW226308   1.994   4.357   5.507  0.9218 -1.2583  1.1797
 8542SOL     OW26309   4.739   1.754   5.707 -0.2889  0.0682  0.4826
 8542SOL    HW126310   4.807   1.801   5.659 -1.1671  0.4040 -0.4718
 8542SOL    HW226311   4.786   1.708   5.777  0.8128  0.8686  0.2870
 8543SOL     OW26312   2.343   4.180   4.131  0.2024 -0.3784 -0.8242
 8543SOL    HW126313   2.426   4.172   4.178  0.6546  1.3854 -1.2382
 8543SOL    HW226314   2.287   4.114   4.170  1.2941 -0.5231  0.5835
 8544SOL     OW26315   3.538   5.175   5.334 -0.4128 -0.0732  0.1595
 8544SOL    HW126316   3.585   5.162   5.251  1.2089  0.0503  1.0203
 8544SOL    HW226317   3.559   5.097   5.385 -0.3926  0.4101  0.8963
 8545SOL     OW26318   4.832   0.631   1.037 -0.2997 -0.1944  0.2957
 8545SOL    HW126319   4.765   0.651   1.102 -2.4991 -1.5845 -1.3827
 8545SOL    HW226320   4.787   0.642   0.953  2.3462  1.3390 -1.0560
 8546SOL     OW26321   4.540   0.632   3.815  0.2505  0.0340  0.3077
 8546SOL    HW126322   4.582   0.568   3.757 -0.8866  0.7643 -1.3698
 8546SOL    HW226323   4.541   0.714   3.766 -0.2769  0.8113  1.5451
 8547SOL     OW26324   4.393   2.873   1.763  0.1694 -0.0371  0.1754
 8547SOL    HW126325   4.458   2.934   1.729 -1.1171  1.5683  0.4262
 8547SOL    HW226326   4.353   2.920   1.837 -2.0351 -0.4341 -0.6753
 8548SOL     OW26327   3.212   6.301   2.878  0.0354 -0.0124  0.4705
 8548SOL    HW126328   3.209   6.298   2.782 -1.5956  0.4430  0.4730
 8548SOL    HW226329   3.250   6.217   2.903 -0.2912 -0.4973 -0.5658
 8549SOL     OW26330   0.796   2.787   0.630  0.2787 -0.2979 -0.0677
 8549SOL    HW126331   0.739   2.711   0.624  1.9675 -1.5430 -1.5089
 8549SOL    HW226332   0.825   2.790   0.721  0.0020 -1.2277  0.0546
 8550SOL     OW26333   2.179   3.840   6.031 -0.7965 -0.0980  0.0385
 8550SOL    HW126334   2.246   3.823   5.965 -0.1755 -0.6222  0.7865
 8550SOL    HW226335   2.216   3.908   6.087 -1.6632  0.9549 -0.6169
 8551SOL     OW26336   6.082   4.866   4.938 -0.3178  0.6239  0.4469
 8551SOL    HW126337   6.124   4.948   4.912  0.1486  0.2293 -0.0616
 8551SOL    HW226338   6.007   4.857   4.880  1.0557 -0.5543 -1.2618
 8552SOL     OW26339   1.164   3.932   2.627  0.3424  0.9754  0.0236
 8552SOL    HW126340   1.084   3.984   2.628  0.1473  0.6760  0.7557
 8552SOL    HW226341   1.234   3.997   2.620  0.0607  1.2804 -0.0101
 8553SOL     OW26342   3.411   1.661   3.030  0.2487  0.0856  0.9040
 8553SOL    HW126343   3.429   1.567   3.038  1.5345  0.1069 -1.1768
 8553SOL    HW226344   3.496   1.703   3.047  0.5578  0.6278 -1.6345
 8554SOL     OW26345   4.016   2.898   2.947 -0.1923  0.1090  0.1740
 8554SOL    HW126346   3.927   2.865   2.940 -0.3551  0.6086 -0.1565
 8554SOL    HW226347   4.046   2.906   2.857  0.3227 -0.4094  0.2916
 8555SOL     OW26348   3.896   6.112   0.792  0.3854 -0.2625  0.0476
 8555SOL    HW126349   3.856   6.136   0.875  0.1826  0.6424 -0.2953
 8555SOL    HW226350   3.924   6.196   0.754  1.8290 -0.7840 -0.1180
 8556SOL     OW26351   2.646   0.496   3.936 -0.3516 -0.0315  0.9270
 8556SOL    HW126352   2.655   0.550   3.858  1.9233 -2.8032 -0.9103
 8556SOL    HW226353   2.701   0.539   4.002  0.7568  0.3135 -0.2047
 8557SOL     OW26354   4.798   0.065   2.093 -0.4203 -0.2338  0.5161
 8557SOL    HW126355   4.837   0.007   2.028 -0.4104 -0.9365  1.1227
 8557SOL    HW226356   4.867   0.127   2.115  0.7683 -2.0628  2.2975
 8558SOL     OW26357   3.094   4.286   2.599 -0.5404 -0.5843 -0.2631
 8558SOL    HW126358   3.012   4.263   2.555 -1.1220  0.7473  0.0737
 8558SOL    HW226359   3.100   4.381   2.591  2.3585 -0.8079 -2.6869
 8559SOL     OW26360   3.263   1.398   5.592 -0.3515  0.4016 -0.8776
 8559SOL    HW126361   3.266   1.303   5.606  1.9322  0.4174 -0.9710
 8559SOL    HW226362   3.273   1.409   5.497 -0.0581  0.7593 -0.8064
 8560SOL     OW26363   3.524   1.151   0.977  0.1485  0.4858  0.2370
 8560SOL    HW126364   3.519   1.113   0.890  1.3223  1.4009 -0.2498
 8560SOL    HW226365   3.540   1.076   1.035  1.2378  0.0632 -0.5667
 8561SOL     OW26366   4.374   0.831   3.417  0.0366 -0.6047 -0.3293
 8561SOL    HW126367   4.305   0.817   3.351 -0.3184  1.0494 -0.3429
 8561SOL    HW226368   4.452   0.851   3.366 -0.1794  0.4269 -0.2754
 8562SOL     OW26369   4.058   0.707   5.491 -0.0591  0.2022 -0.1537
 8562SOL    HW126370   4.005   0.707   5.411  0.6967  1.0848 -0.6834
 8562SOL    HW226371   4.008   0.760   5.553  0.7356  2.1203 -1.0662
 8563SOL     OW26372   6.171   3.046   6.358  0.1918  0.1936 -0.3256
 8563SOL    HW126373   6.179   3.111   6.288 -0.5953 -0.0465 -0.6441
 8563SOL    HW226374   6.077   3.031   6.367  0.0731  1.7084  2.1572
 8564SOL     OW26375   4.819   4.062   0.283  0.6740  0.2074  0.1359
 8564SOL    HW126376   4.783   4.048   0.195 -0.0692  0.2905  0.4154
 8564SOL    HW226377   4.913   4.071   0.270  0.7510 -1.2238 -0.4875
 8565SOL     OW26378   3.073   3.046   5.166 -0.0414 -0.0178 -0.2867
 8565SOL    HW126379   3.024   3.125   5.188  0.3220 -0.0223  0.5812
 8565SOL    HW226380   3.120   3.023   5.246  3.1630  1.2828 -1.5946
 8566SOL     OW26381   5.910   4.952   5.707 -0.2992  0.1356  0.3282
 8566SOL    HW126382   5.845   4.993   5.764 -0.0769  0.7025  0.1803
 8566SOL    HW226383   5.933   5.020   5.644  0.9561  0.1679  0.8027
 8567SOL     OW26384   4.536   1.047   4.732 -0.0142  0.4006  0.3809
 8567SOL    HW126385   4.493   1.051   4.647 -0.4211  0.2512  0.5723
 8567SOL    HW226386   4.581   1.131   4.741  0.2065  0.3325 -0.0676
 8568SOL     OW26387   3.235   2.241   1.922 -0.4322 -0.4693  0.1610
 8568SOL    HW126388   3.212   2.322   1.968 -1.3024 -0.5476 -0.1099
 8568SOL    HW226389   3.161   2.182   1.939  0.7903 -1.7009  1.4595
 8569SOL     OW26390   5.257   1.985   6.271  0.2921  0.0549 -0.3038
 8569SOL    HW126391   5.200   1.910   6.281  1.9414 -1.2994 -0.5577
 8569SOL    HW226392   5.213   2.056   6.318 -1.3162 -1.0421 -0.0802
 8570SOL     OW26393   5.680   3.817   6.262 -0.2595 -0.8919  0.6438
 8570SOL    HW126394   5.620   3.887   6.287  0.2048 -1.1385  2.5376
 8570SOL    HW226395   5.724   3.851   6.184 -1.2590  0.1926  0.5209
 8571SOL     OW26396   3.662   3.489   0.226  0.8488 -0.3334  0.9285
 8571SOL    HW126397   3.569   3.499   0.209  0.6242 -1.7840  1.1730
 8571SOL    HW226398   3.674   3.525   0.314  0.6649  0.4976  0.6241
 8572SOL     OW26399   1.735   6.432   6.110 -0.0077 -0.3565 -0.1617
 8572SOL    HW126400   1.648   6.394   6.125 -0.4133 -0.1580 -1.7955
 8572SOL    HW226401   1.722   6.496   6.041  1.5670 -0.9015 -1.0327
 8573SOL     OW26402   4.416   3.688   0.674  0.3053 -0.1133  0.0694
 8573SOL    HW126403   4.457   3.774   0.664 -0.7971  0.4915  0.4884
 8573SOL    HW226404   4.349   3.684   0.605 -0.4584 -0.1195  0.7887
 8574SOL     OW26405   5.315   3.368   0.878  0.2452 -0.8106 -0.3421
 8574SOL    HW126406   5.317   3.455   0.838  0.0223 -1.5595 -2.0649
 8574SOL    HW226407   5.282   3.311   0.809 -0.5226 -2.1270  1.0473
 8575SOL     OW26408   5.430   1.660   0.983 -0.6515 -0.3915  0.3422
 8575SOL    HW126409   5.465   1.580   1.022  0.6599 -0.9596 -1.8112
 8575SOL    HW226410   5.455   1.654   0.890 -1.9689  1.7347 -0.2129
 8576SOL     OW26411   1.813   0.796   5.054  0.2701  0.4363  0.2984
 8576SOL    HW126412   1.906   0.778   5.043  0.2073 -0.7579  1.5368
 8576SOL    HW226413   1.809   0.875   5.107  0.5347  2.0773 -1.9627
 8577SOL     OW26414   4.854   4.027   1.044  0.3459 -0.8206 -0.2494
 8577SOL    HW126415   4.775   4.077   1.024  0.5359  0.0933  1.1450
 8577SOL    HW226416   4.831   3.937   1.021 -0.0167 -0.1797 -2.7646
 8578SOL     OW26417   0.689   4.189   0.182 -0.1924 -0.3457  0.7429
 8578SOL    HW126418   0.747   4.146   0.245 -0.7872 -0.2458  1.3732
 8578SOL    HW226419   0.605   4.142   0.191 -0.6331  0.4526  0.9064
 8579SOL     OW26420   5.230   1.249   2.532  0.3531 -0.7828 -0.2947
 8579SOL    HW126421   5.256   1.223   2.444  0.5522 -1.2627 -0.0942
 8579SOL    HW226422   5.291   1.319   2.556 -0.6390  0.4205 -1.1180
 8580SOL     OW26423   0.459   0.784   3.747  0.0849 -0.2235  0.3771
 8580SOL    HW126424   0.428   0.694   3.753  1.1356 -0.6505 -0.2504
 8580SOL    HW226425   0.449   0.819   3.835 -0.8693 -0.7639  0.4931
 8581SOL     OW26426   2.510   0.015   6.019  0.1317  0.7806 -0.0703
 8581SOL    HW126427   2.540   0.000   5.929 -0.7830  1.1593 -0.4497
 8581SOL    HW226428   2.495  -0.073   6.054 -1.2267  0.6573 -0.8973
 8582SOL     OW26429   4.045   0.275   4.553  0.1528 -0.4646  0.0650
 8582SOL    HW126430   4.110   0.275   4.483  0.8141 -0.7923  0.6671
 8582SOL    HW226431   4.041   0.366   4.581  0.2082 -0.4079 -0.1065
 8583SOL     OW26432   6.430   2.936   2.500 -0.2141 -0.3709 -0.1001
 8583SOL    HW126433   6.417   2.892   2.417  0.9308  1.6357 -1.4197
 8583SOL    HW226434   6.371   2.892   2.561 -0.3036 -2.5799 -1.6964
 8584SOL     OW26435   3.542   4.145   4.824  0.2909  0.0615 -0.1171
 8584SOL    HW126436   3.568   4.061   4.861  0.1115 -0.1591 -0.4933
 8584SOL    HW226437   3.458   4.165   4.866 -1.4487 -1.6114 -2.5206
 8585SOL     OW26438   3.535   5.257   6.300  0.2452 -0.2403 -0.6898
 8585SOL    HW126439   3.531   5.270   6.395 -1.2272 -0.1947 -0.7322
 8585SOL    HW226440   3.626   5.231   6.283  0.5309 -0.2491  0.7245
 8586SOL     OW26441   1.116   2.140   2.768 -0.0996  0.1327  0.0121
 8586SOL    HW126442   1.098   2.137   2.674  0.2896  2.0221 -0.1609
 8586SOL    HW226443   1.153   2.227   2.782  0.5555 -0.4034  1.8020
 8587SOL     OW26444   3.200   3.414   2.669  0.1823  0.1116 -0.1262
 8587SOL    HW126445   3.264   3.354   2.708  0.4938  0.7728  0.4107
 8587SOL    HW226446   3.115   3.379   2.693  0.3693  0.7341  1.5308
 8588SOL     OW26447   0.862   3.644   5.553 -0.7891 -0.1264  1.1531
 8588SOL    HW126448   0.892   3.566   5.505  2.7874  1.3154  0.7073
 8588SOL    HW226449   0.780   3.668   5.510  0.1464 -1.2767 -1.5593
 8589SOL     OW26450   4.573   4.202   4.182  0.4430 -0.6154  0.5244
 8589SOL    HW126451   4.545   4.271   4.243  0.9674  0.3420 -0.2790
 8589SOL    HW226452   4.559   4.241   4.096  3.3427 -0.4059  0.0492
 8590SOL     OW26453   3.413   2.485   3.677 -0.1269 -0.4740  0.4048
 8590SOL    HW126454   3.432   2.499   3.770 -2.1051 -1.8485  1.0848
 8590SOL    HW226455   3.363   2.563   3.651  0.9266  0.1919  0.2829
 8591SOL     OW26456   4.887   4.669   6.371 -0.0774  0.7857 -0.3404
 8591SOL    HW126457   4.882   4.659   6.276 -0.2250  1.8718 -0.4592
 8591SOL    HW226458   4.894   4.579   6.405 -0.5272  0.3613 -1.3458
 8592SOL     OW26459   5.855   0.884   3.773 -0.1431  0.0592 -0.3510
 8592SOL    HW126460   5.804   0.912   3.849 -1.3787 -0.2539 -1.0411
 8592SOL    HW226461   5.840   0.790   3.767 -0.8640  0.2181 -1.5323
 8593SOL     OW26462   0.535   4.800   0.956  0.0474  0.3586 -0.8881
 8593SOL    HW126463   0.577   4.720   0.926 -0.0097  0.1196 -0.3438
 8593SOL    HW226464   0.480   4.828   0.883 -1.6572 -1.3009 -0.3125
 8594SOL     OW26465   5.590   5.105   0.723 -0.1694 -0.2546  0.0934
 8594SOL    HW126466   5.612   5.074   0.811 -2.3626  0.1932  0.8593
 8594SOL    HW226467   5.578   5.199   0.733  0.2490 -0.0836 -0.8680
 8595SOL     OW26468   5.585   1.213   3.078 -0.2248  0.1427  0.4990
 8595SOL    HW126469   5.580   1.290   3.135 -1.2360  0.3550  0.1486
 8595SOL    HW226470   5.522   1.231   3.008  0.7238 -0.2813 -0.4904
 8596SOL     OW26471   4.703   4.640   4.953  0.4824 -0.5920 -0.2930
 8596SOL    HW126472   4.615   4.633   4.916  0.6959  0.2352 -0.9917
 8596SOL    HW226473   4.698   4.593   5.037 -1.2944  1.4277  0.8258
 8597SOL     OW26474   2.599   4.863   2.143 -0.7634  0.1640  0.1195
 8597SOL    HW126475   2.610   4.821   2.058 -0.8982 -0.7559  0.5469
 8597SOL    HW226476   2.504   4.865   2.157 -0.7098 -0.7480  0.7458
 8598SOL     OW26477   5.168   0.821   2.318  0.2691 -0.6508  0.2190
 8598SOL    HW126478   5.200   0.782   2.399  0.1683  1.1613  1.1930
 8598SOL    HW226479   5.146   0.911   2.342 -1.3129 -0.5267 -1.4553
 8599SOL     OW26480   4.323   3.663   3.113 -0.2513 -0.7014  0.4964
 8599SOL    HW126481   4.411   3.690   3.086  0.6859 -1.4217  2.6414
 8599SOL    HW226482   4.266   3.698   3.044  1.6092  0.4233 -0.5828
 8600SOL     OW26483   6.463   0.494   0.680 -0.1217 -0.3307  0.1857
 8600SOL    HW126484   6.506   0.497   0.595 -0.7730 -2.3825 -0.2760
 8600SOL    HW226485   6.524   0.446   0.737 -1.5056 -2.9597 -0.3863
 8601SOL     OW26486   2.705   2.527   2.436 -0.3083  0.3223  0.3430
 8601SOL    HW126487   2.799   2.511   2.433 -0.2882  0.6361 -1.0639
 8601SOL    HW226488   2.666   2.445   2.405 -0.6342 -0.6722  3.1197
 8602SOL     OW26489   0.488   3.121   5.004  0.1742 -0.0798 -0.3308
 8602SOL    HW126490   0.581   3.107   5.021 -0.0812 -1.2957  0.1883
 8602SOL    HW226491   0.447   3.119   5.091 -0.3366  0.5191 -0.5474
 8603SOL     OW26492   6.297   4.426   3.830 -0.2030  0.0862  0.1573
 8603SOL    HW126493   6.298   4.519   3.806 -0.4666 -0.3242 -1.5749
 8603SOL    HW226494   6.204   4.404   3.835 -0.1591  0.1124  1.5137
 8604SOL     OW26495   4.008   6.020   2.098  0.3998  0.1936 -0.3583
 8604SOL    HW126496   3.953   5.943   2.083  2.0683 -0.8778 -1.2295
 8604SOL    HW226497   4.038   6.045   2.011 -0.1011  1.8661 -0.0899
 8605SOL     OW26498   5.586   3.066   6.019 -0.4443 -0.9028  0.6309
 8605SOL    HW126499   5.581   3.134   5.952  1.6673 -0.7428  0.5584
 8605SOL    HW226500   5.506   3.077   6.071 -1.6819 -0.4431 -1.2706
 8606SOL     OW26501   1.087   5.901   4.963  0.4994  0.4490 -0.1123
 8606SOL    HW126502   1.061   5.975   4.908  1.6212  0.9869  0.0531
 8606SOL    HW226503   1.183   5.901   4.960  0.5370 -0.4601  0.6013
 8607SOL     OW26504   4.455   2.715   4.991 -0.1486 -0.0879  0.5796
 8607SOL    HW126505   4.528   2.732   5.049 -1.8061 -1.8507  3.4298
 8607SOL    HW226506   4.480   2.636   4.943 -0.0060 -0.4583  1.2561
 8608SOL     OW26507   0.485   1.195   1.474 -0.3313  0.0893  0.0645
 8608SOL    HW126508   0.461   1.106   1.447 -0.2535 -0.2808  1.1789
 8608SOL    HW226509   0.504   1.187   1.567  1.4818  0.9202 -0.2087
 8609SOL     OW26510   1.408   3.961   5.193 -0.0668  0.1550  0.5323
 8609SOL    HW126511   1.395   4.056   5.182  2.0217  0.2914 -1.2894
 8609SOL    HW226512   1.494   3.953   5.233 -0.9426 -0.9896  2.3114
 8610SOL     OW26513   1.914   0.161   5.657  0.3466 -0.1040  0.1690
 8610SOL    HW126514   1.866   0.079   5.645  0.3839 -0.1782  0.5263
 8610SOL    HW226515   1.952   0.154   5.744 -0.7004  0.8263  0.7275
 8611SOL     OW26516   5.745   0.029   1.980 -0.0054 -0.5347 -0.3133
 8611SOL    HW126517   5.656  -0.007   1.990  0.5532 -1.2687  3.3648
 8611SOL    HW226518   5.793  -0.006   2.055  3.1908  0.5633 -1.7070
 8612SOL     OW26519   2.322   5.199   2.204 -0.4152 -0.0214 -0.0090
 8612SOL    HW126520   2.272   5.183   2.284  1.2646  0.7228  1.2596
 8612SOL    HW226521   2.295   5.286   2.175 -0.8492 -0.1923 -0.1244
 8613SOL     OW26522   5.566   3.596   4.447  0.1407  0.0040 -0.1972
 8613SOL    HW126523   5.546   3.581   4.355 -5.2780 -0.1748  0.6524
 8613SOL    HW226524   5.512   3.532   4.494  2.8363 -0.0928  3.2124
 8614SOL     OW26525   3.249   3.227   0.261  0.0727 -0.3234  0.0342
 8614SOL    HW126526   3.228   3.168   0.189 -0.9897  0.4302 -0.2864
 8614SOL    HW226527   3.198   3.194   0.335 -0.2109 -0.0502 -0.0378
 8615SOL     OW26528   5.821   0.971   2.351 -0.2128 -0.1181  0.3735
 8615SOL    HW126529   5.879   0.927   2.413 -0.6894 -1.1011  0.1340
 8615SOL    HW226530   5.736   0.929   2.363 -0.5976  0.4909 -0.1247
 8616SOL     OW26531   3.777   4.174   1.595  0.3134  0.1810  0.1619
 8616SOL    HW126532   3.816   4.242   1.540  0.2043 -1.2832 -1.8121
 8616SOL    HW226533   3.686   4.202   1.607  0.6914  1.1956  0.7733
 8617SOL     OW26534   4.771   1.494   2.071 -0.1482  0.6667 -0.1151
 8617SOL    HW126535   4.681   1.493   2.038 -0.3746  3.5142  0.1606
 8617SOL    HW226536   4.809   1.575   2.035  2.3779 -0.4956 -0.3219
 8618SOL     OW26537   5.656   3.762   1.629  0.2698  0.1703  0.2058
 8618SOL    HW126538   5.609   3.809   1.561  1.3807  1.6243  0.3751
 8618SOL    HW226539   5.728   3.718   1.583  1.2683  1.4895  0.4261
 8619SOL     OW26540   1.288   1.087   0.376 -0.3212  0.6122 -0.0782
 8619SOL    HW126541   1.371   1.085   0.329  0.2412  3.1374  0.6404
 8619SOL    HW226542   1.291   1.010   0.432 -0.1338 -1.3465 -2.6270
 8620SOL     OW26543   6.291   0.567   1.508  0.3444 -0.2931 -0.1497
 8620SOL    HW126544   6.385   0.565   1.529  0.2366 -0.5323  0.3404
 8620SOL    HW226545   6.249   0.533   1.587 -0.1894  0.2879 -0.1777
 8621SOL     OW26546   6.365   4.267   1.447  0.5260 -0.1532  0.2942
 8621SOL    HW126547   6.355   4.291   1.355 -0.6373  1.7294  0.8719
 8621SOL    HW226548   6.449   4.305   1.473  1.9486 -2.5237 -0.4660
 8622SOL     OW26549   3.972   5.668   4.632  0.3678  0.3774  0.1300
 8622SOL    HW126550   3.982   5.583   4.676 -0.9935 -1.3767 -2.6674
 8622SOL    HW226551   4.047   5.673   4.572 -1.8015 -1.1889 -3.0185
 8623SOL     OW26552   1.181   0.557   3.140  0.4717 -0.7643  0.4784
 8623SOL    HW126553   1.272   0.554   3.109  1.9816  0.8720  4.1767
 8623SOL    HW226554   1.149   0.642   3.109  1.1339 -0.1977  1.3047
 8624SOL     OW26555   1.796   0.710   0.179 -0.0953  0.4146  0.5590
 8624SOL    HW126556   1.803   0.793   0.132 -1.2607  0.7074  0.8621
 8624SOL    HW226557   1.802   0.643   0.110 -1.9847  0.8483 -0.0980
 8625SOL     OW26558   1.155   4.090   1.368 -0.5827  0.4763 -0.2231
 8625SOL    HW126559   1.111   4.009   1.395  0.8598  0.0481  1.0088
 8625SOL    HW226560   1.221   4.105   1.436  0.2250  1.8486 -1.2512
 8626SOL     OW26561   0.587   0.167   4.506 -0.4253  0.0628 -0.7159
 8626SOL    HW126562   0.581   0.086   4.557  1.6384 -0.0125 -0.5214
 8626SOL    HW226563   0.534   0.150   4.428 -0.8817 -1.0790 -0.1821
 8627SOL     OW26564   6.163   0.177   3.570  0.3106 -0.7240 -0.0602
 8627SOL    HW126565   6.089   0.162   3.511  1.1773 -0.3294 -1.2911
 8627SOL    HW226566   6.123   0.219   3.647 -0.7530 -0.5134 -0.6950
 8628SOL     OW26567   1.997   3.945   2.746  0.0937  0.6369 -0.0095
 8628SOL    HW126568   2.089   3.959   2.725  0.4177  1.9404  2.0238
 8628SOL    HW226569   1.994   3.861   2.791 -0.2872 -1.0796 -2.9854
 8629SOL     OW26570   3.720   5.488   1.480 -0.3381  0.1589 -0.0320
 8629SOL    HW126571   3.694   5.569   1.436  0.3053  0.9314  0.9831
 8629SOL    HW226572   3.815   5.494   1.489 -0.4841  0.2600  1.8650
 8630SOL     OW26573   3.332   4.860   5.940  0.9830 -0.2121 -0.2950
 8630SOL    HW126574   3.406   4.913   5.912  1.7785 -0.5236  1.1490
 8630SOL    HW226575   3.336   4.860   6.035 -1.5040  0.6264 -0.1057
 8631SOL     OW26576   1.590   3.337   1.334 -0.1875  0.2758  0.4861
 8631SOL    HW126577   1.514   3.396   1.327  0.6957  1.3553 -0.4692
 8631SOL    HW226578   1.594   3.314   1.426 -2.3619 -0.7606  0.3838
 8632SOL     OW26579   6.375   3.190   1.377  0.1501 -0.2790  0.1761
 8632SOL    HW126580   6.302   3.249   1.399  1.8305  2.5562 -1.2428
 8632SOL    HW226581   6.416   3.170   1.461 -1.6552 -1.1550  0.8945
 8633SOL     OW26582   1.797   1.092   1.637  0.0228 -0.3634 -0.0267
 8633SOL    HW126583   1.718   1.070   1.587  0.2176 -1.0212 -0.0582
 8633SOL    HW226584   1.827   1.008   1.671 -0.3387  0.1229  1.5693
 8634SOL     OW26585   5.320   4.906   2.849 -0.6394  0.0882 -0.3079
 8634SOL    HW126586   5.329   4.812   2.837 -0.2988 -0.4023  2.9594
 8634SOL    HW226587   5.279   4.916   2.935 -0.9077  2.9322 -0.6615
 8635SOL     OW26588   5.082   2.846   1.948  0.6756 -0.4964 -0.2279
 8635SOL    HW126589   5.055   2.756   1.961 -1.3083  0.1527  0.5573
 8635SOL    HW226590   5.023   2.880   1.881  0.6948  0.4896  0.2231
 8636SOL     OW26591   5.407   2.809   4.492 -0.4965  0.0234 -0.0822
 8636SOL    HW126592   5.391   2.753   4.416 -0.7187 -1.3631  0.9381
 8636SOL    HW226593   5.474   2.871   4.463  0.0903 -1.0561 -1.1283
 8637SOL     OW26594   6.194   3.245   5.265 -0.3861 -0.0466 -0.1433
 8637SOL    HW126595   6.137   3.284   5.199 -1.0328 -0.6901  0.0244
 8637SOL    HW226596   6.152   3.266   5.348 -0.1009 -0.0845  0.0119
 8638SOL     OW26597   2.281   0.089   1.622 -0.3534 -0.2729  0.4640
 8638SOL    HW126598   2.233   0.013   1.590  0.6566 -0.7441  0.0204
 8638SOL    HW226599   2.237   0.164   1.582 -0.1641 -0.7556 -0.6754
 8639SOL     OW26600   2.648   3.106   1.079  0.2873 -0.1637 -0.3708
 8639SOL    HW126601   2.614   3.196   1.076  2.0138  0.5161 -0.6642
 8639SOL    HW226602   2.570   3.051   1.074 -0.7001  1.2912 -2.9067
 8640SOL     OW26603   4.639   0.651   5.221 -0.4184 -0.1403 -0.1297
 8640SOL    HW126604   4.627   0.565   5.261  0.6725  0.3575  1.3666
 8640SOL    HW226605   4.711   0.640   5.160 -0.8795 -0.4787 -0.6230
 8641SOL     OW26606   5.158   5.657   5.030  0.5419 -0.5325  0.7891
 8641SOL    HW126607   5.166   5.750   5.010  2.0350 -0.7088  0.4357
 8641SOL    HW226608   5.160   5.652   5.125  1.9660 -0.2884  0.7934
 8642SOL     OW26609   2.548   6.138   2.325 -0.4069 -0.1672 -0.2771
 8642SOL    HW126610   2.498   6.064   2.360 -0.2181 -0.7474 -1.1788
 8642SOL    HW226611   2.488   6.212   2.332 -0.7915 -0.5125  0.1785
 8643SOL     OW26612   0.576   5.636   4.916  0.0585  0.1843 -0.1477
 8643SOL    HW126613   0.574   5.645   5.012  3.2595  0.2804  0.0049
 8643SOL    HW226614   0.533   5.716   4.884 -1.9360 -0.2992  1.1373
 8644SOL     OW26615   4.616   5.615   1.876  0.4330  0.2898 -0.7991
 8644SOL    HW126616   4.660   5.639   1.794  1.6232  2.1028  0.2988
 8644SOL    HW226617   4.536   5.669   1.877 -0.2317 -0.6552 -1.3115
 8645SOL     OW26618   4.247   0.081   0.076 -0.1195  0.3600 -0.4454
 8645SOL    HW126619   4.174   0.046   0.128  1.6496 -1.9593  0.6521
 8645SOL    HW226620   4.263   0.014   0.010  0.7447  1.0768 -0.9822
 8646SOL     OW26621   4.260   2.578   5.842  0.2229 -0.2322  0.2153
 8646SOL    HW126622   4.334   2.616   5.795 -1.7134  2.0904 -1.2006
 8646SOL    HW226623   4.191   2.570   5.776 -1.2261 -0.9740  1.7527
 8647SOL     OW26624   4.775   3.480   0.685  0.3369 -0.1857 -0.1190
 8647SOL    HW126625   4.743   3.537   0.616 -2.6953 -0.1937  1.1418
 8647SOL    HW226626   4.777   3.393   0.646 -0.2498 -0.0208 -0.5303
 8648SOL     OW26627   5.542   5.871   2.791  0.0327  0.0516 -0.0529
 8648SOL    HW126628   5.496   5.819   2.857  1.0994 -1.4956 -0.4648
 8648SOL    HW226629   5.626   5.892   2.832  0.0714  0.4502 -0.3338
 8649SOL     OW26630   1.000   5.276   6.322 -0.3220 -0.0337 -0.9044
 8649SOL    HW126631   0.928   5.218   6.347 -2.6965  2.0357 -2.3779
 8649SOL    HW226632   0.969   5.364   6.344  1.1483  1.0677 -2.8760
 8650SOL     OW26633   3.144   0.553   5.918  0.3485 -0.2178 -0.4059
 8650SOL    HW126634   3.110   0.470   5.885 -1.5076 -0.4263  1.7163
 8650SOL    HW226635   3.216   0.575   5.860 -1.2063 -1.6206 -3.0579
 8651SOL     OW26636   0.252   4.631   5.465 -0.2354  0.0958  0.4267
 8651SOL    HW126637   0.164   4.666   5.453 -0.4488 -0.7231 -0.4711
 8651SOL    HW226638   0.243   4.538   5.447  0.9049  0.0860 -0.1662
 8652SOL     OW26639   5.301   5.892   2.670 -1.0037  0.1941  0.1080
 8652SOL    HW126640   5.251   5.966   2.704 -0.3776  1.2633 -1.1803
 8652SOL    HW226641   5.391   5.909   2.697 -0.6945  0.4561 -1.0145
 8653SOL     OW26642   5.033   0.756   2.660 -0.2341  0.1515  0.6588
 8653SOL    HW126643   4.972   0.807   2.712 -1.4978 -0.7492  0.1309
 8653SOL    HW226644   5.095   0.820   2.625 -1.1258  1.1588  0.8712
 8654SOL     OW26645   2.872   0.470   4.821  0.2807 -0.5736  0.8182
 8654SOL    HW126646   2.936   0.447   4.754 -1.0414 -1.1436 -0.3043
 8654SOL    HW226647   2.898   0.419   4.898  2.2339  0.6345  1.0079
 8655SOL     OW26648   4.084   0.542   5.118  0.0405 -0.6284  0.8322
 8655SOL    HW126649   4.042   0.495   5.046 -2.0576  0.0222  1.5521
 8655SOL    HW226650   4.095   0.476   5.186  1.5139 -1.1156  0.1612
 8656SOL     OW26651   1.979   3.632   0.587 -0.0049 -0.0956 -0.1519
 8656SOL    HW126652   2.029   3.697   0.637  1.4255 -1.9703  0.9900
 8656SOL    HW226653   1.893   3.631   0.627  0.0841  0.8017  0.0758
 8657SOL     OW26654   2.826   4.539   5.500  0.2323  0.5931  0.5241
 8657SOL    HW126655   2.769   4.537   5.424  2.0218  0.2410 -0.8840
 8657SOL    HW226656   2.814   4.627   5.537 -2.2714  0.0415  1.1996
 8658SOL     OW26657   0.831   1.481   1.728 -0.2386 -0.0992 -0.0157
 8658SOL    HW126658   0.763   1.529   1.681 -0.4711 -0.4724 -0.0695
 8658SOL    HW226659   0.811   1.496   1.821 -0.5513 -0.4130 -0.0280
 8659SOL     OW26660   2.609   0.868   0.285  0.1222 -0.4609  0.4620
 8659SOL    HW126661   2.532   0.814   0.303  0.0681 -0.2277  0.9466
 8659SOL    HW226662   2.635   0.902   0.370  0.7218 -0.4793  0.2916
 8660SOL     OW26663   4.652   5.651   6.514 -0.3601  0.1182 -0.0957
 8660SOL    HW126664   4.630   5.577   6.570 -2.2909  0.3308 -0.4747
 8660SOL    HW226665   4.569   5.672   6.470  0.8359  0.6444 -2.1972
 8661SOL     OW26666   0.087   2.329   0.212 -0.4944 -0.2976  0.0905
 8661SOL    HW126667   0.020   2.329   0.281 -0.6812 -0.7957 -0.0830
 8661SOL    HW226668   0.124   2.417   0.214 -0.7000 -0.2190  0.6346
 8662SOL     OW26669   6.268   5.804   1.295  0.8357 -0.4140  0.3321
 8662SOL    HW126670   6.273   5.875   1.358 -0.2987 -0.5475  0.5899
 8662SOL    HW226671   6.314   5.731   1.336  1.3066 -0.0774  0.4058
 8663SOL     OW26672   3.327   2.107   4.556 -0.1962 -0.2517  0.0374
 8663SOL    HW126673   3.377   2.036   4.514 -0.5987 -0.4031 -0.1896
 8663SOL    HW226674   3.289   2.156   4.483  1.1454  1.0094  0.1231
 8664SOL     OW26675   4.455   2.106   2.793  0.1014  0.3804  0.3864
 8664SOL    HW126676   4.497   2.139   2.714  0.5033  0.8545  0.7909
 8664SOL    HW226677   4.368   2.076   2.764  0.0451  1.0357 -0.1323
 8665SOL     OW26678   3.605   3.206   1.369  0.2717 -0.2795 -0.1142
 8665SOL    HW126679   3.635   3.166   1.451 -2.1211  0.2532  1.1030
 8665SOL    HW226680   3.648   3.292   1.367  0.0907 -0.1635  0.7548
 8666SOL     OW26681   5.915   3.931   0.027 -0.3443 -0.6469 -0.1063
 8666SOL    HW126682   5.868   3.943   0.110  0.4826 -1.4765  0.4968
 8666SOL    HW226683   5.920   3.836   0.016 -1.4560 -0.5542 -1.7033
 8667SOL     OW26684   0.205   0.501   5.764 -0.1364 -0.0319 -0.5763
 8667SOL    HW126685   0.157   0.488   5.845 -0.5800  1.4759 -0.5660
 8667SOL    HW226686   0.231   0.593   5.766 -1.3141  0.4051 -2.7586
 8668SOL     OW26687   0.222   1.504   2.563  0.6158 -0.1458  0.3788
 8668SOL    HW126688   0.234   1.417   2.525  2.7821  0.1078  0.3195
 8668SOL    HW226689   0.153   1.545   2.512 -0.9597 -2.0625  0.8758
 8669SOL     OW26690   2.139   2.175   0.413  0.4657  0.2831  0.2655
 8669SOL    HW126691   2.172   2.192   0.502  0.4224 -0.3027  0.3962
 8669SOL    HW226692   2.210   2.128   0.370  0.1179 -0.2758  0.2938
 8670SOL     OW26693   4.110   2.036   2.332  0.1609  0.4923  0.1347
 8670SOL    HW126694   4.104   2.000   2.420  3.1374  0.0352  0.2576
 8670SOL    HW226695   4.022   2.070   2.314 -0.5705  0.5229  3.2053
 8671SOL     OW26696   5.810   5.300   2.415  0.5556 -0.3211  0.1366
 8671SOL    HW126697   5.801   5.300   2.319  2.4371  2.5156 -0.1623
 8671SOL    HW226698   5.888   5.248   2.431 -0.1076 -1.3153  0.2242
 8672SOL     OW26699   1.182   5.801   4.595 -0.8727  0.2173  0.4641
 8672SOL    HW126700   1.246   5.786   4.525 -1.4961 -1.1929  0.1665
 8672SOL    HW226701   1.226   5.775   4.675 -1.0497 -0.7682  0.2568
 8673SOL     OW26702   0.667   2.486   4.381  0.6458 -0.2596 -0.1825
 8673SOL    HW126703   0.617   2.565   4.402  0.6161  0.5844 -3.0537
 8673SOL    HW226704   0.640   2.423   4.448  0.7359  2.1234  2.2685
 8674SOL     OW26705   5.590   0.432   6.246 -0.0306  0.1993  0.1373
 8674SOL    HW126706   5.559   0.345   6.273 -0.6726 -0.2979 -2.0426
 8674SOL    HW226707   5.518   0.491   6.268 -0.9989 -0.3659 -1.4340
 8675SOL     OW26708   3.665   5.772   6.473  0.0407 -0.6549  0.2123
 8675SOL    HW126709   3.752   5.777   6.434  0.5122  0.4879  1.3676
 8675SOL    HW226710   3.644   5.679   6.474  3.0005 -1.4709  3.6433
 8676SOL     OW26711   1.293   0.400   0.447  0.1678 -0.4351 -0.3916
 8676SOL    HW126712   1.348   0.329   0.414  1.2386 -0.5058  1.4204
 8676SOL    HW226713   1.206   0.362   0.454  0.5099 -1.2488 -0.4545
 8677SOL     OW26714   0.202   1.718   3.585  0.1751  0.6430  0.2236
 8677SOL    HW126715   0.283   1.667   3.587  0.9921  1.8890 -0.0693
 8677SOL    HW226716   0.136   1.658   3.549  1.2245 -0.0319 -0.6152
 8678SOL     OW26717   2.187   0.558   4.095  0.5811  0.5236 -0.0227
 8678SOL    HW126718   2.259   0.499   4.074 -0.0332  0.0291 -0.8048
 8678SOL    HW226719   2.123   0.543   4.026 -0.9351 -0.1237  1.4669
 8679SOL     OW26720   5.072   4.425   1.669  0.5705  0.2620  0.5816
 8679SOL    HW126721   5.133   4.483   1.625 -0.4348  0.7526 -0.1927
 8679SOL    HW226722   4.992   4.476   1.679  0.0443 -0.5998  0.9431
 8680SOL     OW26723   0.406   2.519   1.979  1.2303  0.1314  0.0278
 8680SOL    HW126724   0.328   2.511   1.923  1.3458  0.5759 -0.2060
 8680SOL    HW226725   0.464   2.577   1.930  0.6277  1.9679  1.3926
 8681SOL     OW26726   4.476   3.762   2.115 -0.0196 -0.4400 -0.6404
 8681SOL    HW126727   4.417   3.735   2.187 -1.9162  2.7184 -0.8195
 8681SOL    HW226728   4.422   3.753   2.037  1.3645 -1.8682 -1.4814
 8682SOL     OW26729   3.618   1.218   3.149 -0.6665 -0.1883  0.2674
 8682SOL    HW126730   3.647   1.262   3.229 -0.5567  0.6727 -0.2358
 8682SOL    HW226731   3.531   1.183   3.171  0.0397 -1.3947  1.2689
 8683SOL     OW26732   2.893   2.982   3.523  0.4557 -0.5434  0.1848
 8683SOL    HW126733   2.926   2.914   3.465 -0.4601 -0.7764 -0.0883
 8683SOL    HW226734   2.876   2.937   3.606  1.4996 -0.2689  0.5678
 8684SOL     OW26735   0.511   6.304   1.442 -0.2945 -0.0626  0.0026
 8684SOL    HW126736   0.443   6.238   1.451  0.0098 -0.6551 -1.6035
 8684SOL    HW226737   0.582   6.258   1.395  0.2575  1.1689 -0.4051
 8685SOL     OW26738   0.358   0.390   2.183  0.0890 -0.2101 -0.1416
 8685SOL    HW126739   0.266   0.396   2.208 -0.5611 -0.0765 -2.3118
 8685SOL    HW226740   0.381   0.298   2.199  0.4337  0.3121  2.8862
 8686SOL     OW26741   3.169   5.645   4.022  0.3377 -0.7188  0.0809
 8686SOL    HW126742   3.139   5.730   4.055  1.9238  0.1279 -0.5556
 8686SOL    HW226743   3.214   5.666   3.940  0.8888 -2.1566 -0.0062
 8687SOL     OW26744   3.965   0.696   0.400  0.2810 -0.6475  0.2278
 8687SOL    HW126745   4.012   0.674   0.480 -1.1022 -0.6963  1.0594
 8687SOL    HW226746   3.873   0.698   0.426 -0.0780  1.0292 -0.9585
 8688SOL     OW26747   4.092   4.083   6.064 -0.5517 -0.3642  0.3014
 8688SOL    HW126748   4.029   4.154   6.069 -0.5385 -0.2141 -1.2805
 8688SOL    HW226749   4.092   4.057   5.972  2.7404  0.6073 -0.0741
 8689SOL     OW26750   6.289   5.782   5.681  0.9634 -0.5562  0.0393
 8689SOL    HW126751   6.256   5.852   5.737 -1.0437 -1.2270 -0.2467
 8689SOL    HW226752   6.275   5.813   5.592  0.5319 -1.1209 -0.0883
 8690SOL     OW26753   1.534   5.506   1.486 -0.3302  0.1240 -0.2327
 8690SOL    HW126754   1.464   5.509   1.421  0.4135  2.3408 -1.0387
 8690SOL    HW226755   1.590   5.435   1.456 -0.0686  1.0114 -2.0440
 8691SOL     OW26756   0.723   5.403   1.311  0.3971  0.1052  0.3311
 8691SOL    HW126757   0.650   5.445   1.356 -0.5466  1.1948 -2.0729
 8691SOL    HW226758   0.685   5.363   1.233  2.3213  0.6244 -0.9637
 8692SOL     OW26759   5.208   0.255   3.972  0.0484  0.7090  0.0654
 8692SOL    HW126760   5.254   0.207   3.904 -0.3071 -0.4575  0.6120
 8692SOL    HW226761   5.154   0.318   3.925 -2.6779 -2.1948 -1.0230
 8693SOL     OW26762   3.415   0.578   0.103  0.6721  0.1159 -0.0563
 8693SOL    HW126763   3.492   0.521   0.093  0.7824 -0.0806  1.5716
 8693SOL    HW226764   3.361   0.560   0.026  3.2470  1.9254 -2.4822
 8694SOL     OW26765   3.569   5.328   0.126  0.4087 -0.8515 -0.3353
 8694SOL    HW126766   3.633   5.257   0.129  2.2118  0.6972  2.8658
 8694SOL    HW226767   3.521   5.320   0.208 -1.0388  0.2356 -1.0382
 8695SOL     OW26768   5.281   3.456   0.513 -0.2471  0.0925  0.2637
 8695SOL    HW126769   5.192   3.422   0.522 -0.2874 -0.5136 -1.8842
 8695SOL    HW226770   5.276   3.521   0.443  0.9679  0.1634  0.2158
 8696SOL     OW26771   5.414   5.519   2.257 -0.3553  0.2432  0.2829
 8696SOL    HW126772   5.382   5.603   2.224 -0.1089  1.0999  2.0660
 8696SOL    HW226773   5.472   5.543   2.329  1.9498 -1.3813 -0.9319
 8697SOL     OW26774   3.037   0.271   2.762 -0.6820 -0.9661 -0.1432
 8697SOL    HW126775   2.964   0.210   2.769 -1.2914 -0.0934  2.1122
 8697SOL    HW226776   3.107   0.232   2.814 -0.6847 -0.3105  0.3735
 8698SOL     OW26777   2.138   0.968   6.350 -0.1584  0.0185  0.2710
 8698SOL    HW126778   2.062   1.011   6.313 -1.0026 -1.3031  0.3870
 8698SOL    HW226779   2.171   0.912   6.280 -0.5359 -0.9442  0.8376
 8699SOL     OW26780   5.954   4.155   1.783 -0.0947 -0.1224  0.4475
 8699SOL    HW126781   5.999   4.074   1.804  1.1826  0.9731  2.1910
 8699SOL    HW226782   5.987   4.179   1.696  2.0343  0.1697  1.2990
 8700SOL     OW26783   0.865   3.649   2.101  0.2760 -0.2165  0.3359
 8700SOL    HW126784   0.776   3.625   2.073  0.4534  0.2517 -0.6863
 8700SOL    HW226785   0.855   3.677   2.192 -0.5851 -0.3727  0.3031
 8701SOL     OW26786   2.294   0.548   0.738 -0.5408 -0.3740  0.6367
 8701SOL    HW126787   2.256   0.523   0.655  0.7524  0.0835 -0.1236
 8701SOL    HW226788   2.380   0.507   0.739 -0.2749  0.1640  1.4491
 8702SOL     OW26789   2.528   3.770   5.973  0.2031 -1.1514  0.0726
 8702SOL    HW126790   2.455   3.729   5.926  1.1208 -1.2919 -1.2817
 8702SOL    HW226791   2.517   3.864   5.958  0.2662 -1.1689 -0.0855
 8703SOL     OW26792   5.794   0.195   1.254  0.1167 -0.3548  0.2541
 8703SOL    HW126793   5.711   0.205   1.208 -0.0824  0.6836  0.8142
 8703SOL    HW226794   5.772   0.145   1.333 -0.3034  1.2438  1.1965
 8704SOL     OW26795   3.505   3.100   3.038  0.9446 -0.6249 -0.2751
 8704SOL    HW126796   3.536   3.172   3.093  0.4742 -1.0662  0.6038
 8704SOL    HW226797   3.463   3.143   2.964 -0.0902  0.0412  0.6558
 8705SOL     OW26798   5.772   1.250   3.615 -0.4744 -0.5830  0.1049
 8705SOL    HW126799   5.794   1.166   3.575 -1.1844 -0.4140 -0.6826
 8705SOL    HW226800   5.685   1.270   3.581 -0.7665 -0.0418  1.1368
 8706SOL     OW26801   2.091   1.680   4.804  0.1358  0.1506  0.0748
 8706SOL    HW126802   1.999   1.697   4.827  0.3222  0.3552  0.6815
 8706SOL    HW226803   2.114   1.752   4.745  0.6063  1.4568  1.8036
 8707SOL     OW26804   1.534   2.084   0.338 -0.4076  0.0446  0.1308
 8707SOL    HW126805   1.476   2.088   0.262 -0.3798 -0.5453  0.0752
 8707SOL    HW226806   1.550   2.176   0.361  0.9230  0.2912 -1.5996
 8708SOL     OW26807   2.538   5.435   3.581  0.1753 -0.1279  0.2135
 8708SOL    HW126808   2.506   5.384   3.655 -0.4137  1.7318  1.3319
 8708SOL    HW226809   2.615   5.481   3.614  2.0913 -1.9530 -1.4529
 8709SOL     OW26810   3.883   3.109   1.792 -0.2065  0.3331  0.2381
 8709SOL    HW126811   3.903   3.027   1.838  2.6498  0.2498 -0.9658
 8709SOL    HW226812   3.902   3.178   1.856  1.1117  0.1293  0.0993
 8710SOL     OW26813   5.336   1.555   2.215 -0.3708 -0.0087  0.0760
 8710SOL    HW126814   5.410   1.602   2.253 -0.7814  0.8650 -0.1715
 8710SOL    HW226815   5.376   1.490   2.157  0.2045  0.6273 -0.2614
 8711SOL     OW26816   6.431   4.072   5.649  0.2800  0.6989  0.7014
 8711SOL    HW126817   6.374   4.042   5.720  0.7007 -0.3304  0.6209
 8711SOL    HW226818   6.514   4.027   5.664  0.5126  0.8028 -0.1900
 8712SOL     OW26819   5.092   0.088   2.808 -0.2719 -0.6076 -0.4677
 8712SOL    HW126820   5.173   0.128   2.840  0.1206 -0.3074 -1.7808
 8712SOL    HW226821   5.042   0.161   2.771 -1.2573 -0.7538  0.5061
 8713SOL     OW26822   1.583   1.172   2.924  0.4008  0.4818  0.4236
 8713SOL    HW126823   1.603   1.147   3.014 -0.4264 -1.4679  0.1037
 8713SOL    HW226824   1.542   1.258   2.932  1.0245  0.6734  1.8223
 8714SOL     OW26825   4.056   5.229   2.065  0.0007  0.2442  0.0917
 8714SOL    HW126826   4.113   5.250   2.140 -0.8798  0.7280  0.6483
 8714SOL    HW226827   4.026   5.140   2.082  1.7315 -0.5810 -0.9643
 8715SOL     OW26828   4.255   4.173   0.833  0.0376 -0.0700 -0.1578
 8715SOL    HW126829   4.200   4.241   0.795  0.4749 -0.6312 -1.8783
 8715SOL    HW226830   4.305   4.139   0.759 -0.6095 -2.6979  0.5252
 8716SOL     OW26831   2.087   6.363   2.559 -0.0769  0.3540  0.3086
 8716SOL    HW126832   2.107   6.358   2.465 -0.9876 -0.6455  0.1488
 8716SOL    HW226833   2.141   6.293   2.598 -0.7323 -0.1538  0.3256
 8717SOL     OW26834   4.661   2.895   6.481  0.5973 -0.1550  0.1584
 8717SOL    HW126835   4.754   2.888   6.462  0.3569 -0.5007 -0.9532
 8717SOL    HW226836   4.618   2.854   6.406 -0.4911  1.0601  0.0945
 8718SOL     OW26837   0.525   2.745   3.507  0.2410 -0.0941  0.0397
 8718SOL    HW126838   0.485   2.689   3.574 -1.3387 -1.4154 -1.9045
 8718SOL    HW226839   0.583   2.687   3.458  0.7515  0.6593 -0.2748
 8719SOL     OW26840   5.148   1.612   0.295 -0.2414  0.4030  0.0816
 8719SOL    HW126841   5.058   1.634   0.272 -0.3781  1.5426  1.5492
 8719SOL    HW226842   5.184   1.571   0.217 -2.4555 -1.4037 -0.0764
 8720SOL     OW26843   0.501   3.593   1.764 -0.5939  0.2919 -0.0986
 8720SOL    HW126844   0.486   3.507   1.723  1.6341 -0.6748  0.9530
 8720SOL    HW226845   0.556   3.640   1.701  3.4623 -1.4646  1.7567
 8721SOL     OW26846   1.555   3.700   0.137 -0.1041  0.1322 -0.1443
 8721SOL    HW126847   1.507   3.627   0.177  0.7181 -0.7493 -0.7281
 8721SOL    HW226848   1.643   3.694   0.176 -0.0662  0.8977 -0.1015
 8722SOL     OW26849   1.338   0.628   4.921  0.1935 -0.2081 -0.3732
 8722SOL    HW126850   1.381   0.615   4.837 -1.6331 -1.7636 -1.1386
 8722SOL    HW226851   1.387   0.700   4.962  1.8375 -0.1701 -2.2416
 8723SOL     OW26852   4.606   1.831   3.560  0.5251  0.4040  0.3127
 8723SOL    HW126853   4.544   1.794   3.497  0.2241 -0.7782  1.2589
 8723SOL    HW226854   4.670   1.762   3.575  0.1809  0.3579  1.8157
 8724SOL     OW26855   4.767   1.249   4.989  0.1282  0.7463  0.1654
 8724SOL    HW126856   4.686   1.274   5.034  0.1801  0.2084  0.5614
 8724SOL    HW226857   4.781   1.158   5.013  1.1398  0.9892  0.5315
 8725SOL     OW26858   4.573   3.922   5.751  0.1508  0.5031 -0.0410
 8725SOL    HW126859   4.524   3.848   5.786 -0.0656  0.4386 -0.4818
 8725SOL    HW226860   4.507   3.980   5.715  0.4815 -0.4075 -2.2437
 8726SOL     OW26861   1.012   5.731   5.669  0.2201  0.0882  0.3991
 8726SOL    HW126862   0.948   5.751   5.737  0.6489  1.4223  0.4490
 8726SOL    HW226863   0.964   5.679   5.605 -0.5257 -0.1269  1.1228
 8727SOL     OW26864   3.792   5.631   5.998 -0.5100 -0.3372 -0.3426
 8727SOL    HW126865   3.723   5.694   6.020  1.2302  1.2732  0.9008
 8727SOL    HW226866   3.768   5.598   5.912 -1.8894  1.5150 -0.7373
 8728SOL     OW26867   4.946   4.832   0.118  0.4150  0.4684 -0.6613
 8728SOL    HW126868   5.015   4.898   0.116  0.9579 -0.0246  0.4219
 8728SOL    HW226869   4.928   4.812   0.026 -0.0566  2.3887 -1.0293
 8729SOL     OW26870   4.717   1.401   0.040 -0.4778  0.3363 -0.0881
 8729SOL    HW126871   4.778   1.342   0.085  0.2786  0.6223 -0.7194
 8729SOL    HW226872   4.691   1.465   0.106 -0.1372  0.1782  0.1963
 8730SOL     OW26873   4.787   3.213   0.414 -0.3157 -0.4962 -0.4477
 8730SOL    HW126874   4.758   3.187   0.327 -0.5110 -0.4680 -0.3902
 8730SOL    HW226875   4.712   3.256   0.453 -0.1993 -0.4269 -0.2981
 8731SOL     OW26876   1.641   6.357   2.544  0.0720  0.4408  0.2563
 8731SOL    HW126877   1.592   6.398   2.473 -1.8052  1.9686  2.2834
 8731SOL    HW226878   1.599   6.272   2.556  0.9808 -0.2142 -0.9790
 8732SOL     OW26879   5.457   4.596   3.568  0.3652  0.0416  0.1379
 8732SOL    HW126880   5.435   4.531   3.501  1.4838  1.5957 -1.8557
 8732SOL    HW226881   5.546   4.573   3.595  0.0782 -0.3195  0.8000
 8733SOL     OW26882   4.346   5.475   1.835  0.2008  0.1326  0.1871
 8733SOL    HW126883   4.265   5.423   1.839 -0.4321  0.8927 -1.6896
 8733SOL    HW226884   4.376   5.478   1.926 -1.4090 -0.8869  0.8162
 8734SOL     OW26885   4.076   3.388   3.726 -0.4023  0.2624 -0.2507
 8734SOL    HW126886   4.107   3.428   3.645 -1.0708  0.9355 -0.1879
 8734SOL    HW226887   4.088   3.457   3.792  1.1068 -0.6166  0.4540
 8735SOL     OW26888   1.231   1.477   0.500 -0.1281  0.6265 -0.0777
 8735SOL    HW126889   1.315   1.489   0.455  0.3322 -0.2900  0.5024
 8735SOL    HW226890   1.253   1.478   0.593 -0.3157 -2.1445  0.0956
 8736SOL     OW26891   2.862   4.206   5.641 -0.2551 -0.2882  0.1156
 8736SOL    HW126892   2.945   4.239   5.608 -1.8383  2.4839 -1.4728
 8736SOL    HW226893   2.821   4.281   5.683 -3.2109 -0.6353 -1.8182
 8737SOL     OW26894   5.662   0.130   3.735 -0.0407  0.3595 -0.0352
 8737SOL    HW126895   5.706   0.046   3.744  0.6124  0.3307 -2.6890
 8737SOL    HW226896   5.604   0.119   3.659 -0.3589  2.1434 -0.1041
 8738SOL     OW26897   5.920   1.941   3.463 -0.0798 -0.0852 -0.4978
 8738SOL    HW126898   6.002   1.892   3.469  0.3541  0.6476 -0.4536
 8738SOL    HW226899   5.854   1.873   3.447  0.7634 -0.5092 -2.4611
 8739SOL     OW26900   2.582   5.585   2.822  0.6729 -0.4662 -0.1191
 8739SOL    HW126901   2.656   5.642   2.844  2.5910 -1.0910 -4.0217
 8739SOL    HW226902   2.596   5.506   2.875 -0.3517  1.3643  3.1245
 8740SOL     OW26903   3.183   1.713   4.884  0.1643  0.0694 -0.5050
 8740SOL    HW126904   3.150   1.639   4.934  0.8786 -0.1304 -0.3117
 8740SOL    HW226905   3.128   1.716   4.806  0.1449 -0.6892 -0.5279
 8741SOL     OW26906   1.445   2.285   6.225  0.3627  0.0440  0.2178
 8741SOL    HW126907   1.356   2.313   6.243  0.2053 -0.1978 -0.1736
 8741SOL    HW226908   1.490   2.293   6.309 -0.1855 -0.4196  0.5657
 8742SOL     OW26909   0.238   0.235   5.707  0.1461  0.1167  0.0419
 8742SOL    HW126910   0.317   0.276   5.670 -0.0142  0.1592 -0.2517
 8742SOL    HW226911   0.187   0.309   5.740 -1.3553  0.4674 -2.7455
 8743SOL     OW26912   2.520   2.507   5.491  0.1220  0.1511  0.1817
 8743SOL    HW126913   2.505   2.601   5.476  0.0688  0.1404  0.1695
 8743SOL    HW226914   2.549   2.474   5.407 -0.6837 -0.0150 -0.0342
 8744SOL     OW26915   0.696   3.290   5.441 -0.0152 -0.5067 -0.3354
 8744SOL    HW126916   0.617   3.324   5.483 -0.3505 -1.6510  0.0025
 8744SOL    HW226917   0.745   3.250   5.513  1.1622  0.6552 -0.4347
 8745SOL     OW26918   0.776   4.474   4.573 -0.0645  0.3192 -0.5847
 8745SOL    HW126919   0.825   4.403   4.530 -1.4598 -1.2683  0.3241
 8745SOL    HW226920   0.844   4.530   4.610  1.1046 -0.1163 -1.9569
 8746SOL     OW26921   5.114   3.778   1.695 -0.1310  0.4174  0.0030
 8746SOL    HW126922   5.147   3.864   1.669  1.6360 -0.3677 -0.4837
 8746SOL    HW226923   5.156   3.762   1.780  0.6521 -0.5426 -0.5562
 8747SOL     OW26924   1.178   0.739   6.398  0.0712 -0.5237 -0.3352
 8747SOL    HW126925   1.189   0.693   6.315  0.5151 -1.3593  0.1741
 8747SOL    HW226926   1.187   0.832   6.376 -1.3571 -0.6102 -1.4723
 8748SOL     OW26927   0.759   0.593   6.326 -0.0964 -0.0092 -0.0920
 8748SOL    HW126928   0.765   0.525   6.392 -0.8359  0.8775  0.9149
 8748SOL    HW226929   0.707   0.554   6.256 -1.6939 -0.0438  1.0651
 8749SOL     OW26930   1.473   6.092   4.746  0.7677  0.2041  0.4118
 8749SOL    HW126931   1.450   6.178   4.782  1.7134  1.8645 -2.6417
 8749SOL    HW226932   1.562   6.076   4.777  0.7256  0.4688  0.6800
 8750SOL     OW26933   2.416   2.239   2.998 -0.2252  0.3276  0.1194
 8750SOL    HW126934   2.417   2.183   3.076 -0.1640  0.5868  0.3085
 8750SOL    HW226935   2.437   2.181   2.926  1.7645  0.4541  0.5470
 8751SOL     OW26936   5.783   0.994   3.533  0.3192 -0.2068 -0.0350
 8751SOL    HW126937   5.772   0.932   3.461  2.0272  1.1519 -1.5834
 8751SOL    HW226938   5.799   0.939   3.610 -2.7203 -1.7306 -0.3413
 8752SOL     OW26939   1.324   1.117   2.337 -0.1160  0.0499  0.0161
 8752SOL    HW126940   1.382   1.076   2.273  1.3267  0.8969  0.7207
 8752SOL    HW226941   1.308   1.205   2.302  1.1431  0.7217  1.0304
 8753SOL     OW26942   1.225   0.175   3.531  0.4309 -0.2648 -0.0237
 8753SOL    HW126943   1.239   0.248   3.472  1.3319 -0.8885 -0.6134
 8753SOL    HW226944   1.304   0.121   3.522 -0.1105 -1.1949  0.5602
 8754SOL     OW26945   4.809   6.235   3.021  0.1083 -0.0759 -0.8103
 8754SOL    HW126946   4.791   6.236   3.115  0.6186 -3.0016 -0.5958
 8754SOL    HW226947   4.849   6.320   3.003 -2.9143  1.9047  0.9381
 8755SOL     OW26948   1.116   0.446   4.010  0.0022 -0.2651  0.3295
 8755SOL    HW126949   1.144   0.427   3.921  0.2330 -1.6019  0.6762
 8755SOL    HW226950   1.078   0.534   4.004 -0.8381 -0.6981 -1.2703
 8756SOL     OW26951   0.408   0.874   2.927  0.7091 -0.4208  0.0125
 8756SOL    HW126952   0.474   0.852   2.862 -0.4334 -1.1951 -0.9355
 8756SOL    HW226953   0.359   0.947   2.889 -0.3197 -1.2377 -0.2789
 8757SOL     OW26954   6.013   1.287   2.180 -0.4137 -0.2661  0.0906
 8757SOL    HW126955   6.056   1.303   2.096  1.2450 -0.1577  0.9204
 8757SOL    HW226956   5.923   1.264   2.157  0.2526 -1.2048 -1.7736
 8758SOL     OW26957   3.063   2.482   3.652  0.0045  0.5932  0.3044
 8758SOL    HW126958   3.056   2.390   3.623 -0.6898  0.6126  0.3904
 8758SOL    HW226959   3.147   2.511   3.616 -1.4391  1.0818 -3.1255
 8759SOL     OW26960   5.401   5.560   1.838  0.2835 -0.1030  0.1473
 8759SOL    HW126961   5.329   5.508   1.875 -1.3612  1.3277 -0.9230
 8759SOL    HW226962   5.469   5.496   1.819 -1.0997 -1.6604  0.2219
 8760SOL     OW26963   3.908   0.371   3.513  0.4224 -0.1900  0.3222
 8760SOL    HW126964   3.867   0.444   3.560 -0.9386 -1.7244  1.6443
 8760SOL    HW226965   3.868   0.373   3.426 -0.0228  0.2958  0.5330
 8761SOL     OW26966   0.046   2.412   1.915  0.6936  0.0740 -0.2259
 8761SOL    HW126967  -0.019   2.418   1.985 -1.8566 -2.4730 -2.1283
 8761SOL    HW226968   0.073   2.320   1.914  1.8681  0.3789 -1.5955
 8762SOL     OW26969   1.568   2.811   6.339 -0.9544 -0.4712  0.2389
 8762SOL    HW126970   1.547   2.825   6.247 -1.5141 -1.9382  0.1152
 8762SOL    HW226971   1.549   2.895   6.382 -2.6124 -0.3658 -0.6505
 8763SOL     OW26972   2.454   4.691   2.991 -0.1958 -0.2213  0.2854
 8763SOL    HW126973   2.424   4.778   3.017 -0.3254 -0.6708  1.6823
 8763SOL    HW226974   2.528   4.708   2.933 -0.5881  0.8187  0.0606
 8764SOL     OW26975   6.156   6.212   5.104  0.0191 -0.3519 -0.1258
 8764SOL    HW126976   6.156   6.266   5.182 -1.0358 -0.7829  0.1948
 8764SOL    HW226977   6.149   6.122   5.137  0.1902 -0.5801 -0.6945
 8765SOL     OW26978   0.282   1.932   3.093  0.5182  0.0837 -0.0860
 8765SOL    HW126979   0.338   1.954   3.167  0.2146  1.2844 -0.1931
 8765SOL    HW226980   0.193   1.947   3.125  0.1523 -2.7158  0.3884
 8766SOL     OW26981   1.962   6.285   2.282 -0.1420  0.0870 -0.0863
 8766SOL    HW126982   1.906   6.328   2.346 -0.9671 -0.2976 -0.5297
 8766SOL    HW226983   2.015   6.355   2.245  0.8945  0.1998  1.5414
 8767SOL     OW26984   0.856   2.052   4.396  0.3686 -0.2568 -0.4628
 8767SOL    HW126985   0.857   1.963   4.360 -0.6298  0.0679 -1.3467
 8767SOL    HW226986   0.807   2.103   4.332 -0.8261  0.5216  1.0030
 8768SOL     OW26987   3.113   5.384   1.652  0.3715 -0.1208  0.5971
 8768SOL    HW126988   3.196   5.384   1.700  0.9521  0.5776 -0.3739
 8768SOL    HW226989   3.106   5.295   1.617  0.1013 -0.5393  1.6663
 8769SOL     OW26990   2.445   2.869   1.971  0.1123  0.6645 -0.0560
 8769SOL    HW126991   2.432   2.964   1.969 -1.1588  0.5057 -0.2788
 8769SOL    HW226992   2.508   2.855   2.042 -1.2206  1.5284  1.3579
 8770SOL     OW26993   0.194   2.611   0.233 -0.0364  0.5912  0.1910
 8770SOL    HW126994   0.235   2.659   0.160  2.9730  2.5995  2.9341
 8770SOL    HW226995   0.114   2.659   0.251 -0.2443  0.7423 -1.0460
 8771SOL     OW26996   3.608   3.090   0.178  0.2284  0.3354  0.1284
 8771SOL    HW126997   3.646   3.002   0.166  0.2803  0.5809 -2.0363
 8771SOL    HW226998   3.587   3.095   0.271  0.9738 -1.6671  0.4618
 8772SOL     OW26999   6.173   6.433   3.716 -0.3471 -0.3982 -0.0072
 8772SOL    HW127000   6.234   6.503   3.739 -1.1988  0.4608 -0.3174
 8772SOL    HW227001   6.208   6.397   3.634 -1.1454  1.2075 -1.0988
 8773SOL     OW27002   0.847   3.404   2.370 -0.0849  0.0799 -0.1164
 8773SOL    HW127003   0.907   3.477   2.386  0.2029  0.1174 -1.2848
 8773SOL    HW227004   0.904   3.328   2.358 -0.3638 -0.2555  0.6160
 8774SOL     OW27005   4.276   5.603   2.899  0.1332 -0.0062 -0.1058
 8774SOL    HW127006   4.356   5.632   2.943  0.3410 -0.5721 -0.1017
 8774SOL    HW227007   4.285   5.508   2.893 -0.8673 -0.1580  0.5372
 8775SOL     OW27008   5.764   1.755   0.696  0.1255 -0.1827 -0.5220
 8775SOL    HW127009   5.754   1.723   0.607  0.5764 -1.2991 -0.1888
 8775SOL    HW227010   5.817   1.834   0.688  0.2815 -0.3536 -1.2294
 8776SOL     OW27011   5.177   1.024   0.187 -0.4458  0.7045  0.1406
 8776SOL    HW127012   5.157   1.090   0.120  0.2545  0.7024 -0.0685
 8776SOL    HW227013   5.253   0.978   0.153 -1.5288 -0.9166 -0.2112
 8777SOL     OW27014   0.469   0.979   4.913 -0.0012 -0.1884  0.2123
 8777SOL    HW127015   0.489   0.902   4.860  0.2469 -1.4830  2.0721
 8777SOL    HW227016   0.419   1.036   4.855  0.0553 -1.6264 -1.3208
 8778SOL     OW27017   0.667   1.494   0.131  0.2797  0.6745 -0.0266
 8778SOL    HW127018   0.709   1.420   0.088  1.7530  0.3485  1.8266
 8778SOL    HW227019   0.579   1.498   0.093  1.1267 -0.1940 -2.2325
 8779SOL     OW27020   5.329   3.555   3.593 -0.2282 -0.1761  0.5599
 8779SOL    HW127021   5.266   3.511   3.649 -0.3721  0.1548  0.6601
 8779SOL    HW227022   5.275   3.597   3.526 -0.0298 -0.9692 -0.1140
 8780SOL     OW27023   6.097   4.434   6.419  0.2861  0.1130  0.7916
 8780SOL    HW127024   6.036   4.396   6.482 -1.1586  1.4229  0.2462
 8780SOL    HW227025   6.137   4.508   6.466  0.4734  0.0532  0.7252
 8781SOL     OW27026   0.916   0.378   3.126  0.2498  0.2427  0.1619
 8781SOL    HW127027   1.010   0.394   3.131  0.4375  0.0182 -1.9063
 8781SOL    HW227028   0.906   0.284   3.137  0.3991  0.1055 -0.8019
 8782SOL     OW27029   1.199   4.545   1.685  0.4740 -0.0852  0.7301
 8782SOL    HW127030   1.201   4.616   1.749  0.6981 -0.6089  1.3191
 8782SOL    HW227031   1.188   4.589   1.600  1.1679  0.6865  1.0239
 8783SOL     OW27032   2.043   6.097   5.991 -0.4160  0.5108 -0.0260
 8783SOL    HW127033   2.058   6.166   6.056 -0.5042  1.6565 -1.1681
 8783SOL    HW227034   1.957   6.116   5.955  0.0232  0.4893 -1.1433
 8784SOL     OW27035   2.261   5.748   3.125 -0.0910 -0.1957  0.0516
 8784SOL    HW127036   2.283   5.824   3.071 -0.5288 -1.2870 -1.7665
 8784SOL    HW227037   2.166   5.754   3.137 -0.8132 -2.2466 -3.2442
 8785SOL     OW27038   2.539   5.641   1.567  0.5373 -0.1342  0.3636
 8785SOL    HW127039   2.522   5.681   1.482  0.2352  0.6688  0.7917
 8785SOL    HW227040   2.634   5.625   1.568  0.5827  0.1242 -0.0052
 8786SOL     OW27041   3.696   2.728   5.958 -0.0952  0.2024 -0.0840
 8786SOL    HW127042   3.689   2.799   5.893  2.1531  0.7736  0.2329
 8786SOL    HW227043   3.786   2.696   5.950 -0.1714 -0.6348  1.8185
 8787SOL     OW27044   3.760   2.274   4.463  0.0979  0.5661  0.2765
 8787SOL    HW127045   3.728   2.252   4.550 -0.4288 -0.4300 -0.1590
 8787SOL    HW227046   3.681   2.280   4.409  0.4638  0.5079 -0.2768
 8788SOL     OW27047   6.059   2.999   4.986 -0.1189 -0.0113 -0.0126
 8788SOL    HW127048   6.079   2.913   4.949 -2.2270 -0.0086 -1.2751
 8788SOL    HW227049   6.095   3.061   4.923  0.4715  0.0487  0.3721
 8789SOL     OW27050   1.533   2.367   1.219  0.0611 -0.4929  0.5519
 8789SOL    HW127051   1.587   2.377   1.141 -0.5649 -0.0695  0.1699
 8789SOL    HW227052   1.527   2.272   1.233 -0.8604 -0.6301 -0.6431
 8790SOL     OW27053   5.011   4.898   6.289  0.0929 -0.6263 -0.0128
 8790SOL    HW127054   5.091   4.908   6.341 -0.0091 -0.6204  0.1425
 8790SOL    HW227055   4.993   4.805   6.289 -0.5363 -0.5077  0.9078
 8791SOL     OW27056   1.911   5.201   2.435 -0.2391  0.0673  0.9155
 8791SOL    HW127057   1.868   5.173   2.515 -0.0496 -1.1658  0.6086
 8791SOL    HW227058   1.870   5.149   2.366 -1.3679  2.0716 -0.0234
 8792SOL     OW27059   4.056   6.440   0.491  0.2035  0.2109 -0.1230
 8792SOL    HW127060   4.086   6.363   0.442 -0.4995  0.3224 -0.7322
 8792SOL    HW227061   3.989   6.480   0.436  0.6282  1.3267  0.1437
 8793SOL     OW27062   3.092   4.397   5.881  0.0897 -0.5633 -0.3812
 8793SOL    HW127063   3.077   4.429   5.792  0.3363  0.6589 -0.0075
 8793SOL    HW227064   3.177   4.434   5.905 -0.9376  0.9579  1.1279
 8794SOL     OW27065   6.361   6.062   0.427  0.7154  0.5937 -0.8328
 8794SOL    HW127066   6.350   6.122   0.353  0.4209 -0.4479 -1.6552
 8794SOL    HW227067   6.415   6.110   0.489  0.8490  1.5436 -1.6624
 8795SOL     OW27068   5.460   0.890   2.461  0.2480  0.4990  0.1355
 8795SOL    HW127069   5.407   0.827   2.511  1.0338  1.1904  1.9108
 8795SOL    HW227070   5.540   0.842   2.441 -0.4634 -0.1052 -1.3782
 8796SOL     OW27071   0.142   0.044   5.426  0.1155 -0.5931  0.1619
 8796SOL    HW127072   0.077  -0.017   5.392 -1.2442  0.5728  0.5888
 8796SOL    HW227073   0.217  -0.011   5.448 -1.0343 -2.0982  0.4640
 8797SOL     OW27074   2.939   6.016   5.164 -0.1776 -0.5211  0.4341
 8797SOL    HW127075   3.032   6.030   5.149  0.2234 -2.7304  0.4572
 8797SOL    HW227076   2.896   6.092   5.124  1.5625  0.0471 -0.4522
 8798SOL     OW27077   1.794   6.082   3.113 -0.1110 -0.0805 -0.8525
 8798SOL    HW127078   1.761   6.032   3.038  0.9821 -0.6165 -0.9948
 8798SOL    HW227079   1.740   6.054   3.186 -0.0547 -0.8709 -1.0996
 8799SOL     OW27080   3.795   4.570   2.593  0.1242 -0.5400 -0.2925
 8799SOL    HW127081   3.711   4.605   2.564  0.1600 -0.1539  0.0498
 8799SOL    HW227082   3.779   4.537   2.681  1.0934  2.8626  1.3506
 8800SOL     OW27083   0.120   2.266   5.799  0.3901  0.2710 -0.4927
 8800SOL    HW127084   0.065   2.189   5.812  0.1601  0.3367 -1.0457
 8800SOL    HW227085   0.205   2.231   5.774 -0.3736  0.1972 -3.2921
 8801SOL     OW27086   2.255   4.514   0.358 -0.1956  0.4670  0.1422
 8801SOL    HW127087   2.317   4.575   0.399 -0.7066  0.6690  0.6271
 8801SOL    HW227088   2.222   4.461   0.431 -1.8503  1.4762  0.1959
 8802SOL     OW27089   5.991   0.181   2.921 -0.4441 -0.0497 -0.1414
 8802SOL    HW127090   6.015   0.116   2.855 -2.6588 -0.8309 -0.2504
 8802SOL    HW227091   5.961   0.257   2.871 -0.4614  0.0357 -0.0036
 8803SOL     OW27092   4.862   1.629   6.401  0.0049  0.1906 -0.3766
 8803SOL    HW127093   4.779   1.665   6.371  0.2314  1.3637  0.3541
 8803SOL    HW227094   4.840   1.541   6.433 -0.2604 -1.1237 -3.7683
 8804SOL     OW27095   6.380   2.696   5.674 -0.0442  0.0261 -0.0147
 8804SOL    HW127096   6.430   2.622   5.640  1.2301  0.5596  0.6545
 8804SOL    HW227097   6.324   2.722   5.600  1.2168 -0.0878 -1.0473
 8805SOL     OW27098   5.219   4.904   4.667  0.3033 -0.4432 -0.1484
 8805SOL    HW127099   5.257   4.983   4.628  2.3801 -0.5423  1.5122
 8805SOL    HW227100   5.154   4.875   4.604  0.2910  1.9539 -1.3377
 8806SOL     OW27101   2.788   4.227   1.748 -0.1317  0.5146 -0.4680
 8806SOL    HW127102   2.830   4.146   1.777 -0.2949  1.1837  1.8295
 8806SOL    HW227103   2.843   4.258   1.676  2.0232  0.1446  0.9083
 8807SOL     OW27104   4.118   6.499   2.738  0.0417 -0.9216 -1.0925
 8807SOL    HW127105   4.177   6.537   2.804 -1.5630 -2.5661  1.4453
 8807SOL    HW227106   4.113   6.566   2.669  2.6884  0.4070 -0.1485
 8808SOL     OW27107   3.264   3.772   4.245  0.5481 -0.4571  0.2190
 8808SOL    HW127108   3.279   3.829   4.321  0.4460  3.2397 -2.2919
 8808SOL    HW227109   3.176   3.737   4.258 -0.3821  1.9249  0.8206
 8809SOL     OW27110   4.726   4.880   5.935 -0.8507  0.3827  0.0330
 8809SOL    HW127111   4.711   4.972   5.960 -0.4994  0.3839  0.2467
 8809SOL    HW227112   4.787   4.847   6.001  0.8308  0.6470 -1.3317
 8810SOL     OW27113   2.514   0.454   2.478  0.1661  0.3766 -0.7525
 8810SOL    HW127114   2.426   0.423   2.455 -0.6366  1.3988  0.7691
 8810SOL    HW227115   2.513   0.460   2.573  2.1258 -0.2061 -0.6585
 8811SOL     OW27116   6.327   3.289   1.138  0.2013 -0.6321  0.0479
 8811SOL    HW127117   6.366   3.259   1.220 -1.3898 -0.9102  0.7316
 8811SOL    HW227118   6.351   3.222   1.073  2.5182  0.1976 -0.0699
 8812SOL     OW27119   5.428   6.384   3.824  0.6166 -0.1816  0.1187
 8812SOL    HW127120   5.380   6.329   3.885  0.8249 -0.7222 -0.1975
 8812SOL    HW227121   5.431   6.333   3.743 -1.2357  1.2646 -0.9326
 8813SOL     OW27122   3.129   3.272   1.055 -0.5615  0.1480 -0.5205
 8813SOL    HW127123   3.163   3.187   1.079 -1.7747 -0.1845  0.1232
 8813SOL    HW227124   3.121   3.320   1.138  0.8807  1.2045 -0.9579
 8814SOL     OW27125   3.410   0.710   4.812  0.6492  0.3950 -0.4944
 8814SOL    HW127126   3.449   0.640   4.759  0.4543  1.1091 -1.6305
 8814SOL    HW227127   3.482   0.745   4.864  1.1218  0.4630 -1.1871
 8815SOL     OW27128   0.525   1.162   0.860  0.1380 -0.2058  0.3404
 8815SOL    HW127129   0.533   1.129   0.950  0.6091  4.1309  2.1321
 8815SOL    HW227130   0.433   1.146   0.837 -0.3222 -0.2979  2.1020
 8816SOL     OW27131   5.090   2.510   5.216  0.8352  0.2695 -0.0276
 8816SOL    HW127132   5.100   2.600   5.186  1.2167 -0.1572 -1.2746
 8816SOL    HW227133   5.143   2.505   5.296  1.2555  1.0081 -0.2461
 8817SOL     OW27134   0.496   2.037   1.118 -0.0574 -0.0620  0.0354
 8817SOL    HW127135   0.502   2.112   1.177 -1.2218 -0.7151  1.0318
 8817SOL    HW227136   0.560   2.055   1.049 -0.4539  1.9149  0.1503
 8818SOL     OW27137   3.763   3.829   1.646  0.0262 -0.3782 -0.2600
 8818SOL    HW127138   3.798   3.880   1.719  0.6172 -1.1033 -0.0290
 8818SOL    HW227139   3.671   3.815   1.669  0.3484 -1.1170  0.6588
 8819SOL     OW27140   0.972   4.626   5.717 -0.1345  0.4797 -0.6892
 8819SOL    HW127141   0.904   4.692   5.703 -0.6930  0.1635  0.4437
 8819SOL    HW227142   1.017   4.655   5.796 -0.2649 -0.3776 -0.2900
 8820SOL     OW27143   0.291   4.480   2.527  0.1365 -0.7007  0.1596
 8820SOL    HW127144   0.258   4.413   2.586 -2.3616  1.3813  1.3175
 8820SOL    HW227145   0.303   4.557   2.583  1.0262  0.4087 -1.4655
 8821SOL     OW27146   3.683   1.544   3.552 -0.2476  0.0316  0.1931
 8821SOL    HW127147   3.763   1.561   3.501 -0.6040 -1.0776 -0.7837
 8821SOL    HW227148   3.659   1.630   3.588  0.8783  0.5492 -0.2388
 8822SOL     OW27149   4.593   3.090   0.816  0.3908  0.0092  0.7836
 8822SOL    HW127150   4.517   3.055   0.770  1.6812 -1.4281 -0.3904
 8822SOL    HW227151   4.566   3.095   0.907 -0.7344 -1.6196  0.5819
 8823SOL     OW27152   5.500   5.609   0.192 -0.1135  0.1836 -0.0719
 8823SOL    HW127153   5.574   5.555   0.218  0.7965  0.8100 -1.2736
 8823SOL    HW227154   5.476   5.575   0.105  0.4473  1.6487 -0.8292
 8824SOL     OW27155   0.769   0.355   4.721  0.1790  0.2513  0.4560
 8824SOL    HW127156   0.748   0.266   4.750  1.1630  0.4883  2.0768
 8824SOL    HW227157   0.698   0.409   4.756 -0.2976  0.1505 -0.3325
 8825SOL     OW27158   2.920   4.104   0.585  0.0297 -0.3324 -0.1630
 8825SOL    HW127159   2.930   4.035   0.519  4.2049  0.2257 -0.3729
 8825SOL    HW227160   2.942   4.185   0.539  1.5879  0.2507  1.5181
 8826SOL     OW27161   5.927   3.600   1.614  0.1698  0.0632 -0.1181
 8826SOL    HW127162   5.938   3.614   1.708  0.5721  1.5998 -0.3656
 8826SOL    HW227163   6.014   3.576   1.583 -0.0350 -0.7795 -0.0544
 8827SOL     OW27164   1.519   3.838   4.018 -0.2115 -0.8999 -0.0071
 8827SOL    HW127165   1.605   3.865   3.986  0.0853  0.9581  2.1547
 8827SOL    HW227166   1.457   3.880   3.958  0.3481 -0.4548 -0.2793
 8828SOL     OW27167   3.660   2.048   1.181 -0.1589 -0.1125 -0.4414
 8828SOL    HW127168   3.654   1.953   1.192 -0.2146 -0.1443 -0.7237
 8828SOL    HW227169   3.707   2.059   1.098  0.0302  0.1080 -0.3063
 8829SOL     OW27170   4.447   2.218   5.498  0.4194 -0.0763  0.2189
 8829SOL    HW127171   4.446   2.303   5.540 -0.3142 -0.0160  0.0892
 8829SOL    HW227172   4.526   2.175   5.531 -0.1619 -0.0601  1.7097
 8830SOL     OW27173   1.246   1.848   2.533  0.6561 -0.6770 -0.3131
 8830SOL    HW127174   1.229   1.941   2.521 -1.6075 -1.0922 -0.8419
 8830SOL    HW227175   1.269   1.840   2.626  0.8865  0.3821 -0.2616
 8831SOL     OW27176   3.247   1.972   2.316  0.2556 -0.1600  0.1432
 8831SOL    HW127177   3.158   1.995   2.292  0.6355 -0.5909 -1.9158
 8831SOL    HW227178   3.300   2.002   2.242  1.8706  0.3850  1.4586
 8832SOL     OW27179   3.138   1.563   3.331  0.5341  0.4360  0.3153
 8832SOL    HW127180   3.068   1.522   3.383  0.3883  0.5467  0.2075
 8832SOL    HW227181   3.128   1.523   3.244  1.0256 -0.0427  0.4734
 8833SOL     OW27182   5.579   3.542   0.690  0.4378  0.1513 -0.0122
 8833SOL    HW127183   5.603   3.632   0.667  0.2500 -0.2391 -1.8965
 8833SOL    HW227184   5.483   3.540   0.686  0.4942 -0.4892 -1.5448
 8834SOL     OW27185   1.312   3.821   6.043 -0.7311  0.1128 -0.0011
 8834SOL    HW127186   1.292   3.838   5.951  0.4231  0.8271 -0.1457
 8834SOL    HW227187   1.290   3.729   6.056 -0.7075 -0.0564 -1.0565
 8835SOL     OW27188   0.456   0.016   3.426 -0.3967 -0.4023  0.0692
 8835SOL    HW127189   0.371  -0.004   3.465 -0.4787 -1.1653 -0.4800
 8835SOL    HW227190   0.513   0.033   3.501 -1.6212  2.8412  0.4414
 8836SOL     OW27191   6.027   0.796   3.364 -0.2812  0.1339 -0.0144
 8836SOL    HW127192   6.037   0.737   3.439 -1.4076 -1.3962 -1.0196
 8836SOL    HW227193   6.090   0.764   3.299  1.0635  1.7723  0.4023
 8837SOL     OW27194   6.210   4.051   1.741 -0.3521 -0.1871 -0.0623
 8837SOL    HW127195   6.215   4.039   1.836  0.9928 -0.6403 -0.1613
 8837SOL    HW227196   6.245   4.139   1.726  1.7516 -0.9817 -0.2738
 8838SOL     OW27197   2.208   5.434   2.157  0.1881  0.0959 -0.4452
 8838SOL    HW127198   2.270   5.477   2.099  0.7642  1.3774  1.0444
 8838SOL    HW227199   2.129   5.422   2.104  0.9293  0.5170 -1.6908
 8839SOL     OW27200   3.574   2.872   2.912  0.2188  0.4329  0.2227
 8839SOL    HW127201   3.623   2.906   2.837  1.3715  2.8812  1.9480
 8839SOL    HW227202   3.537   2.950   2.953  0.6480 -0.6692  2.8734
 8840SOL     OW27203   2.373   3.247   0.432  0.2300 -0.2497  0.1004
 8840SOL    HW127204   2.416   3.333   0.434  2.8228 -1.4573 -0.1957
 8840SOL    HW227205   2.294   3.261   0.379  1.4963  1.5657 -1.4372
 8841SOL     OW27206   0.298   1.513   0.654  0.1826  0.1148 -0.3658
 8841SOL    HW127207   0.346   1.596   0.659 -4.0497  2.7955  0.5313
 8841SOL    HW227208   0.289   1.485   0.744  0.5872 -0.7399 -0.5832
 8842SOL     OW27209   6.421   1.425   5.554  0.2249  0.2530  0.0581
 8842SOL    HW127210   6.341   1.374   5.542  0.4177 -0.3091  1.0224
 8842SOL    HW227211   6.391   1.516   5.555 -0.6217 -0.0074  1.8382
 8843SOL     OW27212   6.253   0.006   2.120  0.0355  0.5739  0.6234
 8843SOL    HW127213   6.247  -0.083   2.153  1.6162  0.2200  0.0457
 8843SOL    HW227214   6.229  -0.001   2.027  0.6949  0.6389  0.4417
 8844SOL     OW27215   0.035   4.916   2.603  0.4516  0.3867 -0.0881
 8844SOL    HW127216  -0.005   4.848   2.657  0.4613  0.7809  0.4269
 8844SOL    HW227217   0.073   4.977   2.666 -0.9206  1.7132 -0.4848
 8845SOL     OW27218   3.254   4.156   3.679  0.8302  0.1294  0.0233
 8845SOL    HW127219   3.344   4.137   3.703  0.9339  1.5644  0.8729
 8845SOL    HW227220   3.250   4.251   3.671 -0.9073  0.2248  1.3311
 8846NA      NA27221   1.853   0.919   2.703  0.5627  0.1773  0.0595
 8847NA      NA27222   5.332   5.033   3.628 -0.5221 -0.2563 -0.0435
 8848NA      NA27223   0.791   1.239   3.251 -0.5341 -0.4959  0.0140
 8849NA      NA27224   2.592   1.032   1.437 -0.3214 -0.0290 -0.2605
 8850NA      NA27225   2.959   0.892   4.716  0.1955 -0.0624 -0.2573
 8851NA      NA27226   1.131   3.492   2.621  0.2249 -0.2468 -0.2715
 8852NA      NA27227   1.909   0.386   0.970  0.5723 -0.3153  0.0898
 8853NA      NA27228   2.218   2.287   3.620  0.0352  0.2689 -0.0308
 8854NA      NA27229   3.380   5.685   3.042 -0.1622  0.8097  0.1118
 8855NA      NA27230   3.493   0.485   1.578 -0.3269  0.2408  0.1041
 8856NA      NA27231   5.166   5.146   2.412 -0.0923  0.0497 -0.6707
 8857NA      NA27232   0.465   5.667   3.015  0.1081 -0.0229 -0.1154
 8858NA      NA27233   5.127   4.489   2.098 -0.1354  0.6949  0.3366
 8859NA      NA27234   6.293   1.807   1.943 -0.2497 -0.3813  0.6455
 8860NA      NA27235   0.634   5.215   5.991 -0.1063 -0.1192 -0.0333
 8861NA      NA27236   5.309   3.569   3.018  0.1518 -0.6934 -0.0121
 8862NA      NA27237   6.462   6.388   0.656  0.2089 -0.5253  0.2634
 8863NA      NA27238   3.594   3.516   1.169  0.5496  0.5033 -0.1802
 8864NA      NA27239   6.138   0.634   6.123 -0.1289  0.1500  0.3656
 8865NA      NA27240   1.441   3.953   4.702  0.6479 -0.0877  0.0308
 8866NA      NA27241   0.604   5.525   0.203  0.4467 -0.4678  0.6988
 8867NA      NA27242   2.426   3.523   4.810  0.2857 -0.1730  0.2518
 8868NA      NA27243   0.751   0.499   4.240  0.1812  0.5013  0.1038
 8869NA      NA27244   0.979   1.766   0.022 -0.4805  0.0492 -0.1331
 8870NA      NA27245   1.535   0.314   5.536 -0.6264 -0.3227  0.0676
 8871CL      CL27246   4.288   5.261   5.643  0.1346 -0.3186 -0.5747
 8872CL      CL27247   6.015   3.294   4.516 -0.0599 -0.0553 -0.0486
 8873CL      CL27248   4.916   3.563   2.890  0.3374 -0.2706  0.2092
 8874CL      CL27249   2.210   2.210   1.082  0.5453 -0.1141  0.1509
 8875CL      CL27250   3.546   4.880   0.559  0.0440 -0.1892  0.3234
 8876CL      CL27251   4.479   5.043   2.633  0.5467  0.4328 -0.0044
 8877CL      CL27252   0.170   5.772   0.571 -0.5452 -0.0894 -0.3310
 8878CL      CL27253   4.824   3.443   4.540 -0.1508 -0.0870 -0.0914
 8879CL      CL27254   2.996   2.490   2.391  0.1969  0.0930  0.1873
 8880CL      CL27255   3.172   1.207   3.682  0.6324 -0.3128  0.3662
 8881CL      CL27256   3.677   4.501   2.892 -0.1025  0.0564  0.1903
 8882CL      CL27257   0.771   1.440   5.533  0.5220 -0.0637  0.5399
 8883CL      CL27258   4.812   4.845   3.006  0.1338  0.2972 -0.1141
 8884CL      CL27259   3.634   0.404   6.510  0.2160 -0.0643  0.0918
 8885CL      CL27260   5.350   2.414   0.325  0.0418 -0.2364  0.0790
 8886CL      CL27261   6.389   4.790   1.664  0.0048  0.1286  0.1876
 8887CL      CL27262   5.737   0.605   3.791  0.2335  0.3122 -0.3881
 8888CL      CL27263   6.043   4.298   3.064 -0.3493  0.1646  0.0459
 8889CL      CL27264   6.330   6.162   2.537 -0.1175  0.1976  0.1038
 8890CL      CL27265   1.206   4.957   1.447 -0.2546  0.4743 -0.7880
 8891CL      CL27266   6.003   2.597   2.704  0.3118  0.2849  0.3705
 8892CL      CL27267   4.625   6.086   5.845 -0.0038  0.0249 -0.1001
 8893CL      CL27268   5.810   0.500   1.959  0.1978 -0.0743 -0.2475
 8894CL      CL27269   0.363   6.381   4.792  0.0877 -0.1215 -0.1864
 8895CL      CL27270   1.353   6.477   0.140  0.2911 -0.0985 -0.2073
   6.51559   6.51559   6.51559
