;
;   File pamam_g1.5np_dglucose.itp  was generated
;   By user: sairam (1000)
;   On host: sairam
;   At date: Thu. January  4 13:02:38 2025
;
;   This is a standalone topology file
;
;   Created by:
;   ParmEd:       amb2gro_top_gro.py, VERSION 3.4.1
;   Executable:   amb2gro_top_gro.py
;   Library dir:  /usr/local/gromacs/share/gromacs/top
;   Command line:
;     ./amb2gro_top_gro.py -p pamam_g1.5np_dglucose.prmtop -c pamam_g1.5np_dglucose.inpcrd -t pamam_g1.5np_dglucose.itp -g pamam_g1.5np_dglucose.gro -b pamam_g1.5np_dglucose.pdb
;

;[ defaults ]
;; nbfunc        comb-rule       gen-pairs       fudgeLJ fudgeQQ
;1               2               yes             0.5          0.83333333  
;
;[ atomtypes ]
;; name    at.num    mass    charge ptype  sigma      epsilon
;c3             6  12.010000  0.00000000  A     0.33996695      0.4577296
;h1             1   1.008000  0.00000000  A      0.2471353      0.0656888
;n3             7  14.010000  0.00000000  A     0.32499985        0.71128
;hc             1   1.008000  0.00000000  A     0.26495328      0.0656888
;c              6  12.010000  0.00000000  A     0.33996695       0.359824
;o              8  16.000000  0.00000000  A     0.29599219        0.87864
;n              7  14.010000  0.00000000  A     0.32499985        0.71128
;hn             1   1.008000  0.00000000  A     0.10690785      0.0656888
;h2             1   1.008000  0.00000000  A     0.22931733      0.0656888
;oh             8  16.000000  0.00000000  A     0.30664734      0.8803136
;ho             1   1.008000  0.00000000  A              0              0
;os             8  16.000000  0.00000000  A     0.30000123        0.71128


[ moleculetype ]
; Name            nrexcl
pamam_g1.5np_dglucose          3

[ atoms ]
;   nr       type  resnr residue  atom   cgnr    charge       mass  typeB    chargeB      massB
; residue    1 aaa rtp aaa q -0.0
    1         c3      1    aaa     C1      1 0.02890000  12.010000   ; qtot 0.028900
    2         h1      1    aaa     H1      2 0.08460000   1.008000   ; qtot 0.113500
    3         h1      1    aaa     H2      3 0.08460000   1.008000   ; qtot 0.198100
    4         c3      1    aaa     C2      4 0.02890000  12.010000   ; qtot 0.227000
    5         h1      1    aaa     H3      5 0.08460000   1.008000   ; qtot 0.311600
    6         h1      1    aaa     H4      6 0.08460000   1.008000   ; qtot 0.396200
    7         n3      1    aaa     N1      7 -0.65770000  14.010000   ; qtot -0.261500
    8         n3      1    aaa     N2      8 -0.65770000  14.010000   ; qtot -0.919200
    9         c3      1    aaa     C3      9 0.36940000  12.010000   ; qtot -0.549800
   10         h1      1    aaa     H5     10 0.00650000   1.008000   ; qtot -0.543300
   11         h1      1    aaa     H6     11 0.00650000   1.008000   ; qtot -0.536800
   12         c3      1    aaa     C4     12 0.36940000  12.010000   ; qtot -0.167400
   13         h1      1    aaa     H7     13 0.00650000   1.008000   ; qtot -0.160900
   14         h1      1    aaa     H8     14 0.00650000   1.008000   ; qtot -0.154400
   15         c3      1    aaa     C5     15 0.36940000  12.010000   ; qtot 0.215000
   16         h1      1    aaa     H9     16 0.00650000   1.008000   ; qtot 0.221500
   17         h1      1    aaa    H10     17 0.00650000   1.008000   ; qtot 0.228000
   18         c3      1    aaa     C6     18 0.36940000  12.010000   ; qtot 0.597400
   19         h1      1    aaa    H11     19 0.00650000   1.008000   ; qtot 0.603900
   20         h1      1    aaa    H12     20 0.00650000   1.008000   ; qtot 0.610400
   21         c3      1    aaa     C7     21 -0.54350000  12.010000   ; qtot 0.066900
   22         hc      1    aaa    H13     22 0.15890000   1.008000   ; qtot 0.225800
   23         hc      1    aaa    H14     23 0.15890000   1.008000   ; qtot 0.384700
   24         c3      1    aaa     C8     24 -0.54350000  12.010000   ; qtot -0.158800
   25         hc      1    aaa    H15     25 0.15890000   1.008000   ; qtot 0.000100
   26         hc      1    aaa    H16     26 0.15890000   1.008000   ; qtot 0.159000
   27         c3      1    aaa     C9     27 -0.54350000  12.010000   ; qtot -0.384500
   28         hc      1    aaa    H17     28 0.15890000   1.008000   ; qtot -0.225600
   29         hc      1    aaa    H18     29 0.15890000   1.008000   ; qtot -0.066700
   30         c3      1    aaa    C10     30 -0.54350000  12.010000   ; qtot -0.610200
   31         hc      1    aaa    H19     31 0.15890000   1.008000   ; qtot -0.451300
   32         hc      1    aaa    H20     32 0.15890000   1.008000   ; qtot -0.292400
   33          c      1    aaa    C11     33 0.67800000  12.010000   ; qtot 0.385600
   34          c      1    aaa    C12     34 0.67800000  12.010000   ; qtot 1.063600
   35          c      1    aaa    C13     35 0.67800000  12.010000   ; qtot 1.741600
   36          c      1    aaa    C14     36 0.67800000  12.010000   ; qtot 2.419600
   37          o      1    aaa     O1     37 -0.60490000  16.000000   ; qtot 1.814700
   38          o      1    aaa     O2     38 -0.60490000  16.000000   ; qtot 1.209800
   39          o      1    aaa     O3     39 -0.60490000  16.000000   ; qtot 0.604900
   40          o      1    aaa     O4     40 -0.60490000  16.000000   ; qtot -0.000000
; residue    2 bbb rtp bbb q -0.0
   41         c3      2    bbb     C1     41 0.44180000  12.010000   ; qtot 0.441800
   42         h1      2    bbb     H1     42 -0.03530000   1.008000   ; qtot 0.406500
   43         h1      2    bbb     H2     43 -0.03530000   1.008000   ; qtot 0.371200
   44         c3      2    bbb     C2     44 -0.28250000  12.010000   ; qtot 0.088700
   45         h1      2    bbb     H3     45 0.15710000   1.008000   ; qtot 0.245800
   46         h1      2    bbb     H4     46 0.15710000   1.008000   ; qtot 0.402900
   47         n3      2    bbb     N1     47 -0.74090000  14.010000   ; qtot -0.338000
   48         c3      2    bbb     C3     48 0.51680000  12.010000   ; qtot 0.178800
   49         h1      2    bbb     H5     49 -0.05230000   1.008000   ; qtot 0.126500
   50         h1      2    bbb     H6     50 -0.05230000   1.008000   ; qtot 0.074200
   51         c3      2    bbb     C4     51 0.51680000  12.010000   ; qtot 0.591000
   52         h1      2    bbb     H7     52 -0.05230000   1.008000   ; qtot 0.538700
   53         h1      2    bbb     H8     53 -0.05230000   1.008000   ; qtot 0.486400
   54         c3      2    bbb     C5     54 -0.60390000  12.010000   ; qtot -0.117500
   55         hc      2    bbb     H9     55 0.16730000   1.008000   ; qtot 0.049800
   56         hc      2    bbb    H10     56 0.16730000   1.008000   ; qtot 0.217100
   57         c3      2    bbb     C6     57 -0.60390000  12.010000   ; qtot -0.386800
   58         hc      2    bbb    H11     58 0.16730000   1.008000   ; qtot -0.219500
   59         hc      2    bbb    H12     59 0.16730000   1.008000   ; qtot -0.052200
   60          c      2    bbb     C7     60 0.72110000  12.010000   ; qtot 0.668900
   61          c      2    bbb     C8     61 0.72110000  12.010000   ; qtot 1.390000
   62          o      2    bbb     O1     62 -0.61950000  16.000000   ; qtot 0.770500
   63          o      2    bbb     O2     63 -0.61950000  16.000000   ; qtot 0.151000
   64          n      2    bbb     N4     64 -0.46580000  14.010000   ; qtot -0.314800
   65         hn      2    bbb    H21     65 0.31480000   1.008000   ; qtot -0.000000
; residue    3 bbb rtp bbb q -0.0
   66         c3      3    bbb     C1     66 0.44180000  12.010000   ; qtot 0.441800
   67         h1      3    bbb     H1     67 -0.03530000   1.008000   ; qtot 0.406500
   68         h1      3    bbb     H2     68 -0.03530000   1.008000   ; qtot 0.371200
   69         c3      3    bbb     C2     69 -0.28250000  12.010000   ; qtot 0.088700
   70         h1      3    bbb     H3     70 0.15710000   1.008000   ; qtot 0.245800
   71         h1      3    bbb     H4     71 0.15710000   1.008000   ; qtot 0.402900
   72         n3      3    bbb     N1     72 -0.74090000  14.010000   ; qtot -0.338000
   73         c3      3    bbb     C3     73 0.51680000  12.010000   ; qtot 0.178800
   74         h1      3    bbb     H5     74 -0.05230000   1.008000   ; qtot 0.126500
   75         h1      3    bbb     H6     75 -0.05230000   1.008000   ; qtot 0.074200
   76         c3      3    bbb     C4     76 0.51680000  12.010000   ; qtot 0.591000
   77         h1      3    bbb     H7     77 -0.05230000   1.008000   ; qtot 0.538700
   78         h1      3    bbb     H8     78 -0.05230000   1.008000   ; qtot 0.486400
   79         c3      3    bbb     C5     79 -0.60390000  12.010000   ; qtot -0.117500
   80         hc      3    bbb     H9     80 0.16730000   1.008000   ; qtot 0.049800
   81         hc      3    bbb    H10     81 0.16730000   1.008000   ; qtot 0.217100
   82         c3      3    bbb     C6     82 -0.60390000  12.010000   ; qtot -0.386800
   83         hc      3    bbb    H11     83 0.16730000   1.008000   ; qtot -0.219500
   84         hc      3    bbb    H12     84 0.16730000   1.008000   ; qtot -0.052200
   85          c      3    bbb     C7     85 0.72110000  12.010000   ; qtot 0.668900
   86          c      3    bbb     C8     86 0.72110000  12.010000   ; qtot 1.390000
   87          o      3    bbb     O1     87 -0.61950000  16.000000   ; qtot 0.770500
   88          o      3    bbb     O2     88 -0.61950000  16.000000   ; qtot 0.151000
   89          n      3    bbb     N4     89 -0.46580000  14.010000   ; qtot -0.314800
   90         hn      3    bbb    H21     90 0.31480000   1.008000   ; qtot -0.000000
; residue    4 bbb rtp bbb q -0.0
   91         c3      4    bbb     C1     91 0.44180000  12.010000   ; qtot 0.441800
   92         h1      4    bbb     H1     92 -0.03530000   1.008000   ; qtot 0.406500
   93         h1      4    bbb     H2     93 -0.03530000   1.008000   ; qtot 0.371200
   94         c3      4    bbb     C2     94 -0.28250000  12.010000   ; qtot 0.088700
   95         h1      4    bbb     H3     95 0.15710000   1.008000   ; qtot 0.245800
   96         h1      4    bbb     H4     96 0.15710000   1.008000   ; qtot 0.402900
   97         n3      4    bbb     N1     97 -0.74090000  14.010000   ; qtot -0.338000
   98         c3      4    bbb     C3     98 0.51680000  12.010000   ; qtot 0.178800
   99         h1      4    bbb     H5     99 -0.05230000   1.008000   ; qtot 0.126500
  100         h1      4    bbb     H6    100 -0.05230000   1.008000   ; qtot 0.074200
  101         c3      4    bbb     C4    101 0.51680000  12.010000   ; qtot 0.591000
  102         h1      4    bbb     H7    102 -0.05230000   1.008000   ; qtot 0.538700
  103         h1      4    bbb     H8    103 -0.05230000   1.008000   ; qtot 0.486400
  104         c3      4    bbb     C5    104 -0.60390000  12.010000   ; qtot -0.117500
  105         hc      4    bbb     H9    105 0.16730000   1.008000   ; qtot 0.049800
  106         hc      4    bbb    H10    106 0.16730000   1.008000   ; qtot 0.217100
  107         c3      4    bbb     C6    107 -0.60390000  12.010000   ; qtot -0.386800
  108         hc      4    bbb    H11    108 0.16730000   1.008000   ; qtot -0.219500
  109         hc      4    bbb    H12    109 0.16730000   1.008000   ; qtot -0.052200
  110          c      4    bbb     C7    110 0.72110000  12.010000   ; qtot 0.668900
  111          c      4    bbb     C8    111 0.72110000  12.010000   ; qtot 1.390000
  112          o      4    bbb     O1    112 -0.61950000  16.000000   ; qtot 0.770500
  113          o      4    bbb     O2    113 -0.61950000  16.000000   ; qtot 0.151000
  114          n      4    bbb     N4    114 -0.46580000  14.010000   ; qtot -0.314800
  115         hn      4    bbb    H21    115 0.31480000   1.008000   ; qtot -0.000000
; residue    5 bbb rtp bbb q -0.0
  116         c3      5    bbb     C1    116 0.44180000  12.010000   ; qtot 0.441800
  117         h1      5    bbb     H1    117 -0.03530000   1.008000   ; qtot 0.406500
  118         h1      5    bbb     H2    118 -0.03530000   1.008000   ; qtot 0.371200
  119         c3      5    bbb     C2    119 -0.28250000  12.010000   ; qtot 0.088700
  120         h1      5    bbb     H3    120 0.15710000   1.008000   ; qtot 0.245800
  121         h1      5    bbb     H4    121 0.15710000   1.008000   ; qtot 0.402900
  122         n3      5    bbb     N1    122 -0.74090000  14.010000   ; qtot -0.338000
  123         c3      5    bbb     C3    123 0.51680000  12.010000   ; qtot 0.178800
  124         h1      5    bbb     H5    124 -0.05230000   1.008000   ; qtot 0.126500
  125         h1      5    bbb     H6    125 -0.05230000   1.008000   ; qtot 0.074200
  126         c3      5    bbb     C4    126 0.51680000  12.010000   ; qtot 0.591000
  127         h1      5    bbb     H7    127 -0.05230000   1.008000   ; qtot 0.538700
  128         h1      5    bbb     H8    128 -0.05230000   1.008000   ; qtot 0.486400
  129         c3      5    bbb     C5    129 -0.60390000  12.010000   ; qtot -0.117500
  130         hc      5    bbb     H9    130 0.16730000   1.008000   ; qtot 0.049800
  131         hc      5    bbb    H10    131 0.16730000   1.008000   ; qtot 0.217100
  132         c3      5    bbb     C6    132 -0.60390000  12.010000   ; qtot -0.386800
  133         hc      5    bbb    H11    133 0.16730000   1.008000   ; qtot -0.219500
  134         hc      5    bbb    H12    134 0.16730000   1.008000   ; qtot -0.052200
  135          c      5    bbb     C7    135 0.72110000  12.010000   ; qtot 0.668900
  136          c      5    bbb     C8    136 0.72110000  12.010000   ; qtot 1.390000
  137          o      5    bbb     O1    137 -0.61950000  16.000000   ; qtot 0.770500
  138          o      5    bbb     O2    138 -0.61950000  16.000000   ; qtot 0.151000
  139          n      5    bbb     N4    139 -0.46580000  14.010000   ; qtot -0.314800
  140         hn      5    bbb    H21    140 0.31480000   1.008000   ; qtot -0.000000
; residue    6 ccc rtp ccc q -0.0
  141          n      6    ccc     N1    141 -0.46580000  14.010000   ; qtot -0.465800
  142         hn      6    ccc     H4    142 0.31480000   1.008000   ; qtot -0.151000
  143         c3      6    ccc     C3    143 -0.28250000  12.010000   ; qtot -0.433500
  144         h1      6    ccc     H5    144 0.15710000   1.008000   ; qtot -0.276400
  145         c3      6    ccc     C4    145 0.44180000  12.010000   ; qtot 0.165400
  146         h1      6    ccc     H6    146 0.15710000   1.008000   ; qtot 0.322500
  147         h1      6    ccc     H7    147 -0.03530000   1.008000   ; qtot 0.287200
  148         h1      6    ccc     H8    148 -0.03530000   1.008000   ; qtot 0.251900
  149         n3      6    ccc     N2    149 -0.74090000  14.010000   ; qtot -0.489000
  150         c3      6    ccc     C5    150 0.51680000  12.010000   ; qtot 0.027800
  151         c3      6    ccc     C6    151 0.51680000  12.010000   ; qtot 0.544600
  152         h1      6    ccc     H9    152 -0.05230000   1.008000   ; qtot 0.492300
  153         c3      6    ccc     C7    153 -0.60390000  12.010000   ; qtot -0.111600
  154         h1      6    ccc    H10    154 -0.05230000   1.008000   ; qtot -0.163900
  155         hc      6    ccc    H11    155 0.16730000   1.008000   ; qtot 0.003400
  156         hc      6    ccc    H12    156 0.16730000   1.008000   ; qtot 0.170700
  157          c      6    ccc     C8    157 0.72110000  12.010000   ; qtot 0.891800
  158          o      6    ccc     O2    158 -0.61950000  16.000000   ; qtot 0.272300
  159         h1      6    ccc    H13    159 -0.05230000   1.008000   ; qtot 0.220000
  160         h1      6    ccc    H14    160 -0.05230000   1.008000   ; qtot 0.167700
  161         c3      6    ccc     C9    161 -0.60390000  12.010000   ; qtot -0.436200
  162         hc      6    ccc    H15    162 0.16730000   1.008000   ; qtot -0.268900
  163         hc      6    ccc    H16    163 0.16730000   1.008000   ; qtot -0.101600
  164          c      6    ccc    C10    164 0.72110000  12.010000   ; qtot 0.619500
  165          o      6    ccc     O4    165 -0.61950000  16.000000   ; qtot -0.000000
  166         c3      6    ccc    C11    166 0.08518000  12.010000   ; qtot 0.085180
  167         c3      6    ccc    C12    167 0.07918000  12.010000   ; qtot 0.164360
  168         h1      6    ccc    H17    168 0.06978000   1.008000   ; qtot 0.234140
  169         c3      6    ccc    C13    169 0.07918000  12.010000   ; qtot 0.313320
  170         c3      6    ccc    C14    170 0.03578000  12.010000   ; qtot 0.349100
  171         c3      6    ccc    C15    171 0.33498000  12.010000   ; qtot 0.684080
  172         h1      6    ccc    H18    172 0.06178000   1.008000   ; qtot 0.745860
  173         h1      6    ccc    H19    173 0.11278000   1.008000   ; qtot 0.858640
  174         h2      6    ccc    H20    174 0.12178000   1.008000   ; qtot 0.980420
  175         oh      6    ccc     O1    175 -0.56972000  16.000000   ; qtot 0.410700
  176         oh      6    ccc     O6    176 -0.57772000  16.000000   ; qtot -0.167020
  177         c3      6    ccc    C16    177 0.14548000  12.010000   ; qtot -0.021540
  178         ho      6    ccc    H21    178 0.40508000   1.008000   ; qtot 0.383540
  179         hn      6    ccc    H22    179 0.31758000   1.008000   ; qtot 0.701120
  180         h1      6    ccc    H23    180 0.06278000   1.008000   ; qtot 0.763900
  181         h1      6    ccc    H24    181 0.06278000   1.008000   ; qtot 0.826680
  182         oh      6    ccc     O7    182 -0.59472000  16.000000   ; qtot 0.231960
  183         ho      6    ccc    H25    183 0.41908000   1.008000   ; qtot 0.651040
  184         os      6    ccc     O8    184 -0.44552000  16.000000   ; qtot 0.205520
  185         ho      6    ccc    H26    185 0.41908000   1.008000   ; qtot 0.624600
  186         h1      6    ccc    H27    186 0.08578000   1.008000   ; qtot 0.710380
  187         oh      6    ccc     O9    187 -0.58672000  16.000000   ; qtot 0.123660
  188         ho      6    ccc    H28    188 0.41908000   1.008000   ; qtot 0.542740
  189         n3      6    ccc     N3    189 -0.54282000  14.010000   ; qtot -0.000080
  190         c3      6    ccc    C17    190 0.08518000  12.010000   ; qtot 0.085100
  191         c3      6    ccc    C18    191 0.07918000  12.010000   ; qtot 0.164280
  192         h1      6    ccc    H29    192 0.06978000   1.008000   ; qtot 0.234060
  193         c3      6    ccc    C19    193 0.07918000  12.010000   ; qtot 0.313240
  194         c3      6    ccc    C20    194 0.03578000  12.010000   ; qtot 0.349020
  195         c3      6    ccc    C21    195 0.33498000  12.010000   ; qtot 0.684000
  196         h1      6    ccc    H30    196 0.06178000   1.008000   ; qtot 0.745780
  197         h1      6    ccc    H31    197 0.11278000   1.008000   ; qtot 0.858560
  198         h2      6    ccc    H32    198 0.12178000   1.008000   ; qtot 0.980340
  199         oh      6    ccc    O10    199 -0.56972000  16.000000   ; qtot 0.410620
  200         oh      6    ccc    O11    200 -0.57772000  16.000000   ; qtot -0.167100
  201         c3      6    ccc    C22    201 0.14548000  12.010000   ; qtot -0.021620
  202         ho      6    ccc    H33    202 0.40508000   1.008000   ; qtot 0.383460
  203         hn      6    ccc    H34    203 0.31758000   1.008000   ; qtot 0.701040
  204         h1      6    ccc    H35    204 0.06278000   1.008000   ; qtot 0.763820
  205         h1      6    ccc    H36    205 0.06278000   1.008000   ; qtot 0.826600
  206         oh      6    ccc    O12    206 -0.59472000  16.000000   ; qtot 0.231880
  207         ho      6    ccc    H37    207 0.41908000   1.008000   ; qtot 0.650960
  208         os      6    ccc    O13    208 -0.44552000  16.000000   ; qtot 0.205440
  209         ho      6    ccc    H38    209 0.41908000   1.008000   ; qtot 0.624520
  210         h1      6    ccc    H39    210 0.08578000   1.008000   ; qtot 0.710300
  211         oh      6    ccc     O5    211 -0.58672000  16.000000   ; qtot 0.123580
  212         ho      6    ccc    H40    212 0.41908000   1.008000   ; qtot 0.542660
  213         n3      6    ccc     N4    213 -0.54282000  14.010000   ; qtot -0.000160
; residue    7 ccc rtp ccc q -0.0
  214          n      7    ccc     N1    214 -0.46580000  14.010000   ; qtot -0.465960
  215         hn      7    ccc     H4    215 0.31480000   1.008000   ; qtot -0.151160
  216         c3      7    ccc     C3    216 -0.28250000  12.010000   ; qtot -0.433660
  217         h1      7    ccc     H5    217 0.15710000   1.008000   ; qtot -0.276560
  218         c3      7    ccc     C4    218 0.44180000  12.010000   ; qtot 0.165240
  219         h1      7    ccc     H6    219 0.15710000   1.008000   ; qtot 0.322340
  220         h1      7    ccc     H7    220 -0.03530000   1.008000   ; qtot 0.287040
  221         h1      7    ccc     H8    221 -0.03530000   1.008000   ; qtot 0.251740
  222         n3      7    ccc     N2    222 -0.74090000  14.010000   ; qtot -0.489160
  223         c3      7    ccc     C5    223 0.51680000  12.010000   ; qtot 0.027640
  224         c3      7    ccc     C6    224 0.51680000  12.010000   ; qtot 0.544440
  225         h1      7    ccc     H9    225 -0.05230000   1.008000   ; qtot 0.492140
  226         c3      7    ccc     C7    226 -0.60390000  12.010000   ; qtot -0.111760
  227         h1      7    ccc    H10    227 -0.05230000   1.008000   ; qtot -0.164060
  228         hc      7    ccc    H11    228 0.16730000   1.008000   ; qtot 0.003240
  229         hc      7    ccc    H12    229 0.16730000   1.008000   ; qtot 0.170540
  230          c      7    ccc     C8    230 0.72110000  12.010000   ; qtot 0.891640
  231          o      7    ccc     O2    231 -0.61950000  16.000000   ; qtot 0.272140
  232         h1      7    ccc    H13    232 -0.05230000   1.008000   ; qtot 0.219840
  233         h1      7    ccc    H14    233 -0.05230000   1.008000   ; qtot 0.167540
  234         c3      7    ccc     C9    234 -0.60390000  12.010000   ; qtot -0.436360
  235         hc      7    ccc    H15    235 0.16730000   1.008000   ; qtot -0.269060
  236         hc      7    ccc    H16    236 0.16730000   1.008000   ; qtot -0.101760
  237          c      7    ccc    C10    237 0.72110000  12.010000   ; qtot 0.619340
  238          o      7    ccc     O4    238 -0.61950000  16.000000   ; qtot -0.000160
  239         c3      7    ccc    C11    239 0.08518000  12.010000   ; qtot 0.085020
  240         c3      7    ccc    C12    240 0.07918000  12.010000   ; qtot 0.164200
  241         h1      7    ccc    H17    241 0.06978000   1.008000   ; qtot 0.233980
  242         c3      7    ccc    C13    242 0.07918000  12.010000   ; qtot 0.313160
  243         c3      7    ccc    C14    243 0.03578000  12.010000   ; qtot 0.348940
  244         c3      7    ccc    C15    244 0.33498000  12.010000   ; qtot 0.683920
  245         h1      7    ccc    H18    245 0.06178000   1.008000   ; qtot 0.745700
  246         h1      7    ccc    H19    246 0.11278000   1.008000   ; qtot 0.858480
  247         h2      7    ccc    H20    247 0.12178000   1.008000   ; qtot 0.980260
  248         oh      7    ccc     O1    248 -0.56972000  16.000000   ; qtot 0.410540
  249         oh      7    ccc     O6    249 -0.57772000  16.000000   ; qtot -0.167180
  250         c3      7    ccc    C16    250 0.14548000  12.010000   ; qtot -0.021700
  251         ho      7    ccc    H21    251 0.40508000   1.008000   ; qtot 0.383380
  252         hn      7    ccc    H22    252 0.31758000   1.008000   ; qtot 0.700960
  253         h1      7    ccc    H23    253 0.06278000   1.008000   ; qtot 0.763740
  254         h1      7    ccc    H24    254 0.06278000   1.008000   ; qtot 0.826520
  255         oh      7    ccc     O7    255 -0.59472000  16.000000   ; qtot 0.231800
  256         ho      7    ccc    H25    256 0.41908000   1.008000   ; qtot 0.650880
  257         os      7    ccc     O8    257 -0.44552000  16.000000   ; qtot 0.205360
  258         ho      7    ccc    H26    258 0.41908000   1.008000   ; qtot 0.624440
  259         h1      7    ccc    H27    259 0.08578000   1.008000   ; qtot 0.710220
  260         oh      7    ccc     O9    260 -0.58672000  16.000000   ; qtot 0.123500
  261         ho      7    ccc    H28    261 0.41908000   1.008000   ; qtot 0.542580
  262         n3      7    ccc     N3    262 -0.54282000  14.010000   ; qtot -0.000240
  263         c3      7    ccc    C17    263 0.08518000  12.010000   ; qtot 0.084940
  264         c3      7    ccc    C18    264 0.07918000  12.010000   ; qtot 0.164120
  265         h1      7    ccc    H29    265 0.06978000   1.008000   ; qtot 0.233900
  266         c3      7    ccc    C19    266 0.07918000  12.010000   ; qtot 0.313080
  267         c3      7    ccc    C20    267 0.03578000  12.010000   ; qtot 0.348860
  268         c3      7    ccc    C21    268 0.33498000  12.010000   ; qtot 0.683840
  269         h1      7    ccc    H30    269 0.06178000   1.008000   ; qtot 0.745620
  270         h1      7    ccc    H31    270 0.11278000   1.008000   ; qtot 0.858400
  271         h2      7    ccc    H32    271 0.12178000   1.008000   ; qtot 0.980180
  272         oh      7    ccc    O10    272 -0.56972000  16.000000   ; qtot 0.410460
  273         oh      7    ccc    O11    273 -0.57772000  16.000000   ; qtot -0.167260
  274         c3      7    ccc    C22    274 0.14548000  12.010000   ; qtot -0.021780
  275         ho      7    ccc    H33    275 0.40508000   1.008000   ; qtot 0.383300
  276         hn      7    ccc    H34    276 0.31758000   1.008000   ; qtot 0.700880
  277         h1      7    ccc    H35    277 0.06278000   1.008000   ; qtot 0.763660
  278         h1      7    ccc    H36    278 0.06278000   1.008000   ; qtot 0.826440
  279         oh      7    ccc    O12    279 -0.59472000  16.000000   ; qtot 0.231720
  280         ho      7    ccc    H37    280 0.41908000   1.008000   ; qtot 0.650800
  281         os      7    ccc    O13    281 -0.44552000  16.000000   ; qtot 0.205280
  282         ho      7    ccc    H38    282 0.41908000   1.008000   ; qtot 0.624360
  283         h1      7    ccc    H39    283 0.08578000   1.008000   ; qtot 0.710140
  284         oh      7    ccc     O5    284 -0.58672000  16.000000   ; qtot 0.123420
  285         ho      7    ccc    H40    285 0.41908000   1.008000   ; qtot 0.542500
  286         n3      7    ccc     N4    286 -0.54282000  14.010000   ; qtot -0.000320
; residue    8 ccc rtp ccc q -0.0
  287          n      8    ccc     N1    287 -0.46580000  14.010000   ; qtot -0.466120
  288         hn      8    ccc     H4    288 0.31480000   1.008000   ; qtot -0.151320
  289         c3      8    ccc     C3    289 -0.28250000  12.010000   ; qtot -0.433820
  290         h1      8    ccc     H5    290 0.15710000   1.008000   ; qtot -0.276720
  291         c3      8    ccc     C4    291 0.44180000  12.010000   ; qtot 0.165080
  292         h1      8    ccc     H6    292 0.15710000   1.008000   ; qtot 0.322180
  293         h1      8    ccc     H7    293 -0.03530000   1.008000   ; qtot 0.286880
  294         h1      8    ccc     H8    294 -0.03530000   1.008000   ; qtot 0.251580
  295         n3      8    ccc     N2    295 -0.74090000  14.010000   ; qtot -0.489320
  296         c3      8    ccc     C5    296 0.51680000  12.010000   ; qtot 0.027480
  297         c3      8    ccc     C6    297 0.51680000  12.010000   ; qtot 0.544280
  298         h1      8    ccc     H9    298 -0.05230000   1.008000   ; qtot 0.491980
  299         c3      8    ccc     C7    299 -0.60390000  12.010000   ; qtot -0.111920
  300         h1      8    ccc    H10    300 -0.05230000   1.008000   ; qtot -0.164220
  301         hc      8    ccc    H11    301 0.16730000   1.008000   ; qtot 0.003080
  302         hc      8    ccc    H12    302 0.16730000   1.008000   ; qtot 0.170380
  303          c      8    ccc     C8    303 0.72110000  12.010000   ; qtot 0.891480
  304          o      8    ccc     O2    304 -0.61950000  16.000000   ; qtot 0.271980
  305         h1      8    ccc    H13    305 -0.05230000   1.008000   ; qtot 0.219680
  306         h1      8    ccc    H14    306 -0.05230000   1.008000   ; qtot 0.167380
  307         c3      8    ccc     C9    307 -0.60390000  12.010000   ; qtot -0.436520
  308         hc      8    ccc    H15    308 0.16730000   1.008000   ; qtot -0.269220
  309         hc      8    ccc    H16    309 0.16730000   1.008000   ; qtot -0.101920
  310          c      8    ccc    C10    310 0.72110000  12.010000   ; qtot 0.619180
  311          o      8    ccc     O4    311 -0.61950000  16.000000   ; qtot -0.000320
  312         c3      8    ccc    C11    312 0.08518000  12.010000   ; qtot 0.084860
  313         c3      8    ccc    C12    313 0.07918000  12.010000   ; qtot 0.164040
  314         h1      8    ccc    H17    314 0.06978000   1.008000   ; qtot 0.233820
  315         c3      8    ccc    C13    315 0.07918000  12.010000   ; qtot 0.313000
  316         c3      8    ccc    C14    316 0.03578000  12.010000   ; qtot 0.348780
  317         c3      8    ccc    C15    317 0.33498000  12.010000   ; qtot 0.683760
  318         h1      8    ccc    H18    318 0.06178000   1.008000   ; qtot 0.745540
  319         h1      8    ccc    H19    319 0.11278000   1.008000   ; qtot 0.858320
  320         h2      8    ccc    H20    320 0.12178000   1.008000   ; qtot 0.980100
  321         oh      8    ccc     O1    321 -0.56972000  16.000000   ; qtot 0.410380
  322         oh      8    ccc     O6    322 -0.57772000  16.000000   ; qtot -0.167340
  323         c3      8    ccc    C16    323 0.14548000  12.010000   ; qtot -0.021860
  324         ho      8    ccc    H21    324 0.40508000   1.008000   ; qtot 0.383220
  325         hn      8    ccc    H22    325 0.31758000   1.008000   ; qtot 0.700800
  326         h1      8    ccc    H23    326 0.06278000   1.008000   ; qtot 0.763580
  327         h1      8    ccc    H24    327 0.06278000   1.008000   ; qtot 0.826360
  328         oh      8    ccc     O7    328 -0.59472000  16.000000   ; qtot 0.231640
  329         ho      8    ccc    H25    329 0.41908000   1.008000   ; qtot 0.650720
  330         os      8    ccc     O8    330 -0.44552000  16.000000   ; qtot 0.205200
  331         ho      8    ccc    H26    331 0.41908000   1.008000   ; qtot 0.624280
  332         h1      8    ccc    H27    332 0.08578000   1.008000   ; qtot 0.710060
  333         oh      8    ccc     O9    333 -0.58672000  16.000000   ; qtot 0.123340
  334         ho      8    ccc    H28    334 0.41908000   1.008000   ; qtot 0.542420
  335         n3      8    ccc     N3    335 -0.54282000  14.010000   ; qtot -0.000400
  336         c3      8    ccc    C17    336 0.08518000  12.010000   ; qtot 0.084780
  337         c3      8    ccc    C18    337 0.07918000  12.010000   ; qtot 0.163960
  338         h1      8    ccc    H29    338 0.06978000   1.008000   ; qtot 0.233740
  339         c3      8    ccc    C19    339 0.07918000  12.010000   ; qtot 0.312920
  340         c3      8    ccc    C20    340 0.03578000  12.010000   ; qtot 0.348700
  341         c3      8    ccc    C21    341 0.33498000  12.010000   ; qtot 0.683680
  342         h1      8    ccc    H30    342 0.06178000   1.008000   ; qtot 0.745460
  343         h1      8    ccc    H31    343 0.11278000   1.008000   ; qtot 0.858240
  344         h2      8    ccc    H32    344 0.12178000   1.008000   ; qtot 0.980020
  345         oh      8    ccc    O10    345 -0.56972000  16.000000   ; qtot 0.410300
  346         oh      8    ccc    O11    346 -0.57772000  16.000000   ; qtot -0.167420
  347         c3      8    ccc    C22    347 0.14548000  12.010000   ; qtot -0.021940
  348         ho      8    ccc    H33    348 0.40508000   1.008000   ; qtot 0.383140
  349         hn      8    ccc    H34    349 0.31758000   1.008000   ; qtot 0.700720
  350         h1      8    ccc    H35    350 0.06278000   1.008000   ; qtot 0.763500
  351         h1      8    ccc    H36    351 0.06278000   1.008000   ; qtot 0.826280
  352         oh      8    ccc    O12    352 -0.59472000  16.000000   ; qtot 0.231560
  353         ho      8    ccc    H37    353 0.41908000   1.008000   ; qtot 0.650640
  354         os      8    ccc    O13    354 -0.44552000  16.000000   ; qtot 0.205120
  355         ho      8    ccc    H38    355 0.41908000   1.008000   ; qtot 0.624200
  356         h1      8    ccc    H39    356 0.08578000   1.008000   ; qtot 0.709980
  357         oh      8    ccc     O5    357 -0.58672000  16.000000   ; qtot 0.123260
  358         ho      8    ccc    H40    358 0.41908000   1.008000   ; qtot 0.542340
  359         n3      8    ccc     N4    359 -0.54282000  14.010000   ; qtot -0.000480
; residue    9 ccc rtp ccc q -0.0
  360          n      9    ccc     N1    360 -0.46580000  14.010000   ; qtot -0.466280
  361         hn      9    ccc     H4    361 0.31480000   1.008000   ; qtot -0.151480
  362         c3      9    ccc     C3    362 -0.28250000  12.010000   ; qtot -0.433980
  363         h1      9    ccc     H5    363 0.15710000   1.008000   ; qtot -0.276880
  364         c3      9    ccc     C4    364 0.44180000  12.010000   ; qtot 0.164920
  365         h1      9    ccc     H6    365 0.15710000   1.008000   ; qtot 0.322020
  366         h1      9    ccc     H7    366 -0.03530000   1.008000   ; qtot 0.286720
  367         h1      9    ccc     H8    367 -0.03530000   1.008000   ; qtot 0.251420
  368         n3      9    ccc     N2    368 -0.74090000  14.010000   ; qtot -0.489480
  369         c3      9    ccc     C5    369 0.51680000  12.010000   ; qtot 0.027320
  370         c3      9    ccc     C6    370 0.51680000  12.010000   ; qtot 0.544120
  371         h1      9    ccc     H9    371 -0.05230000   1.008000   ; qtot 0.491820
  372         c3      9    ccc     C7    372 -0.60390000  12.010000   ; qtot -0.112080
  373         h1      9    ccc    H10    373 -0.05230000   1.008000   ; qtot -0.164380
  374         hc      9    ccc    H11    374 0.16730000   1.008000   ; qtot 0.002920
  375         hc      9    ccc    H12    375 0.16730000   1.008000   ; qtot 0.170220
  376          c      9    ccc     C8    376 0.72110000  12.010000   ; qtot 0.891320
  377          o      9    ccc     O2    377 -0.61950000  16.000000   ; qtot 0.271820
  378         h1      9    ccc    H13    378 -0.05230000   1.008000   ; qtot 0.219520
  379         h1      9    ccc    H14    379 -0.05230000   1.008000   ; qtot 0.167220
  380         c3      9    ccc     C9    380 -0.60390000  12.010000   ; qtot -0.436680
  381         hc      9    ccc    H15    381 0.16730000   1.008000   ; qtot -0.269380
  382         hc      9    ccc    H16    382 0.16730000   1.008000   ; qtot -0.102080
  383          c      9    ccc    C10    383 0.72110000  12.010000   ; qtot 0.619020
  384          o      9    ccc     O4    384 -0.61950000  16.000000   ; qtot -0.000480
  385         c3      9    ccc    C11    385 0.08518000  12.010000   ; qtot 0.084700
  386         c3      9    ccc    C12    386 0.07918000  12.010000   ; qtot 0.163880
  387         h1      9    ccc    H17    387 0.06978000   1.008000   ; qtot 0.233660
  388         c3      9    ccc    C13    388 0.07918000  12.010000   ; qtot 0.312840
  389         c3      9    ccc    C14    389 0.03578000  12.010000   ; qtot 0.348620
  390         c3      9    ccc    C15    390 0.33498000  12.010000   ; qtot 0.683600
  391         h1      9    ccc    H18    391 0.06178000   1.008000   ; qtot 0.745380
  392         h1      9    ccc    H19    392 0.11278000   1.008000   ; qtot 0.858160
  393         h2      9    ccc    H20    393 0.12178000   1.008000   ; qtot 0.979940
  394         oh      9    ccc     O1    394 -0.56972000  16.000000   ; qtot 0.410220
  395         oh      9    ccc     O6    395 -0.57772000  16.000000   ; qtot -0.167500
  396         c3      9    ccc    C16    396 0.14548000  12.010000   ; qtot -0.022020
  397         ho      9    ccc    H21    397 0.40508000   1.008000   ; qtot 0.383060
  398         hn      9    ccc    H22    398 0.31758000   1.008000   ; qtot 0.700640
  399         h1      9    ccc    H23    399 0.06278000   1.008000   ; qtot 0.763420
  400         h1      9    ccc    H24    400 0.06278000   1.008000   ; qtot 0.826200
  401         oh      9    ccc     O7    401 -0.59472000  16.000000   ; qtot 0.231480
  402         ho      9    ccc    H25    402 0.41908000   1.008000   ; qtot 0.650560
  403         os      9    ccc     O8    403 -0.44552000  16.000000   ; qtot 0.205040
  404         ho      9    ccc    H26    404 0.41908000   1.008000   ; qtot 0.624120
  405         h1      9    ccc    H27    405 0.08578000   1.008000   ; qtot 0.709900
  406         oh      9    ccc     O9    406 -0.58672000  16.000000   ; qtot 0.123180
  407         ho      9    ccc    H28    407 0.41908000   1.008000   ; qtot 0.542260
  408         n3      9    ccc     N3    408 -0.54282000  14.010000   ; qtot -0.000560
  409         c3      9    ccc    C17    409 0.08518000  12.010000   ; qtot 0.084620
  410         c3      9    ccc    C18    410 0.07918000  12.010000   ; qtot 0.163800
  411         h1      9    ccc    H29    411 0.06978000   1.008000   ; qtot 0.233580
  412         c3      9    ccc    C19    412 0.07918000  12.010000   ; qtot 0.312760
  413         c3      9    ccc    C20    413 0.03578000  12.010000   ; qtot 0.348540
  414         c3      9    ccc    C21    414 0.33498000  12.010000   ; qtot 0.683520
  415         h1      9    ccc    H30    415 0.06178000   1.008000   ; qtot 0.745300
  416         h1      9    ccc    H31    416 0.11278000   1.008000   ; qtot 0.858080
  417         h2      9    ccc    H32    417 0.12178000   1.008000   ; qtot 0.979860
  418         oh      9    ccc    O10    418 -0.56972000  16.000000   ; qtot 0.410140
  419         oh      9    ccc    O11    419 -0.57772000  16.000000   ; qtot -0.167580
  420         c3      9    ccc    C22    420 0.14548000  12.010000   ; qtot -0.022100
  421         ho      9    ccc    H33    421 0.40508000   1.008000   ; qtot 0.382980
  422         hn      9    ccc    H34    422 0.31758000   1.008000   ; qtot 0.700560
  423         h1      9    ccc    H35    423 0.06278000   1.008000   ; qtot 0.763340
  424         h1      9    ccc    H36    424 0.06278000   1.008000   ; qtot 0.826120
  425         oh      9    ccc    O12    425 -0.59472000  16.000000   ; qtot 0.231400
  426         ho      9    ccc    H37    426 0.41908000   1.008000   ; qtot 0.650480
  427         os      9    ccc    O13    427 -0.44552000  16.000000   ; qtot 0.204960
  428         ho      9    ccc    H38    428 0.41908000   1.008000   ; qtot 0.624040
  429         h1      9    ccc    H39    429 0.08578000   1.008000   ; qtot 0.709820
  430         oh      9    ccc     O5    430 -0.58672000  16.000000   ; qtot 0.123100
  431         ho      9    ccc    H40    431 0.41908000   1.008000   ; qtot 0.542180
  432         n3      9    ccc     N4    432 -0.54282000  14.010000   ; qtot -0.000640
; residue   10 ccc rtp ccc q -0.0
  433          n     10    ccc     N1    433 -0.46580000  14.010000   ; qtot -0.466440
  434         hn     10    ccc     H4    434 0.31480000   1.008000   ; qtot -0.151640
  435         c3     10    ccc     C3    435 -0.28250000  12.010000   ; qtot -0.434140
  436         h1     10    ccc     H5    436 0.15710000   1.008000   ; qtot -0.277040
  437         c3     10    ccc     C4    437 0.44180000  12.010000   ; qtot 0.164760
  438         h1     10    ccc     H6    438 0.15710000   1.008000   ; qtot 0.321860
  439         h1     10    ccc     H7    439 -0.03530000   1.008000   ; qtot 0.286560
  440         h1     10    ccc     H8    440 -0.03530000   1.008000   ; qtot 0.251260
  441         n3     10    ccc     N2    441 -0.74090000  14.010000   ; qtot -0.489640
  442         c3     10    ccc     C5    442 0.51680000  12.010000   ; qtot 0.027160
  443         c3     10    ccc     C6    443 0.51680000  12.010000   ; qtot 0.543960
  444         h1     10    ccc     H9    444 -0.05230000   1.008000   ; qtot 0.491660
  445         c3     10    ccc     C7    445 -0.60390000  12.010000   ; qtot -0.112240
  446         h1     10    ccc    H10    446 -0.05230000   1.008000   ; qtot -0.164540
  447         hc     10    ccc    H11    447 0.16730000   1.008000   ; qtot 0.002760
  448         hc     10    ccc    H12    448 0.16730000   1.008000   ; qtot 0.170060
  449          c     10    ccc     C8    449 0.72110000  12.010000   ; qtot 0.891160
  450          o     10    ccc     O2    450 -0.61950000  16.000000   ; qtot 0.271660
  451         h1     10    ccc    H13    451 -0.05230000   1.008000   ; qtot 0.219360
  452         h1     10    ccc    H14    452 -0.05230000   1.008000   ; qtot 0.167060
  453         c3     10    ccc     C9    453 -0.60390000  12.010000   ; qtot -0.436840
  454         hc     10    ccc    H15    454 0.16730000   1.008000   ; qtot -0.269540
  455         hc     10    ccc    H16    455 0.16730000   1.008000   ; qtot -0.102240
  456          c     10    ccc    C10    456 0.72110000  12.010000   ; qtot 0.618860
  457          o     10    ccc     O4    457 -0.61950000  16.000000   ; qtot -0.000640
  458         c3     10    ccc    C11    458 0.08518000  12.010000   ; qtot 0.084540
  459         c3     10    ccc    C12    459 0.07918000  12.010000   ; qtot 0.163720
  460         h1     10    ccc    H17    460 0.06978000   1.008000   ; qtot 0.233500
  461         c3     10    ccc    C13    461 0.07918000  12.010000   ; qtot 0.312680
  462         c3     10    ccc    C14    462 0.03578000  12.010000   ; qtot 0.348460
  463         c3     10    ccc    C15    463 0.33498000  12.010000   ; qtot 0.683440
  464         h1     10    ccc    H18    464 0.06178000   1.008000   ; qtot 0.745220
  465         h1     10    ccc    H19    465 0.11278000   1.008000   ; qtot 0.858000
  466         h2     10    ccc    H20    466 0.12178000   1.008000   ; qtot 0.979780
  467         oh     10    ccc     O1    467 -0.56972000  16.000000   ; qtot 0.410060
  468         oh     10    ccc     O6    468 -0.57772000  16.000000   ; qtot -0.167660
  469         c3     10    ccc    C16    469 0.14548000  12.010000   ; qtot -0.022180
  470         ho     10    ccc    H21    470 0.40508000   1.008000   ; qtot 0.382900
  471         hn     10    ccc    H22    471 0.31758000   1.008000   ; qtot 0.700480
  472         h1     10    ccc    H23    472 0.06278000   1.008000   ; qtot 0.763260
  473         h1     10    ccc    H24    473 0.06278000   1.008000   ; qtot 0.826040
  474         oh     10    ccc     O7    474 -0.59472000  16.000000   ; qtot 0.231320
  475         ho     10    ccc    H25    475 0.41908000   1.008000   ; qtot 0.650400
  476         os     10    ccc     O8    476 -0.44552000  16.000000   ; qtot 0.204880
  477         ho     10    ccc    H26    477 0.41908000   1.008000   ; qtot 0.623960
  478         h1     10    ccc    H27    478 0.08578000   1.008000   ; qtot 0.709740
  479         oh     10    ccc     O9    479 -0.58672000  16.000000   ; qtot 0.123020
  480         ho     10    ccc    H28    480 0.41908000   1.008000   ; qtot 0.542100
  481         n3     10    ccc     N3    481 -0.54282000  14.010000   ; qtot -0.000720
  482         c3     10    ccc    C17    482 0.08518000  12.010000   ; qtot 0.084460
  483         c3     10    ccc    C18    483 0.07918000  12.010000   ; qtot 0.163640
  484         h1     10    ccc    H29    484 0.06978000   1.008000   ; qtot 0.233420
  485         c3     10    ccc    C19    485 0.07918000  12.010000   ; qtot 0.312600
  486         c3     10    ccc    C20    486 0.03578000  12.010000   ; qtot 0.348380
  487         c3     10    ccc    C21    487 0.33498000  12.010000   ; qtot 0.683360
  488         h1     10    ccc    H30    488 0.06178000   1.008000   ; qtot 0.745140
  489         h1     10    ccc    H31    489 0.11278000   1.008000   ; qtot 0.857920
  490         h2     10    ccc    H32    490 0.12178000   1.008000   ; qtot 0.979700
  491         oh     10    ccc    O10    491 -0.56972000  16.000000   ; qtot 0.409980
  492         oh     10    ccc    O11    492 -0.57772000  16.000000   ; qtot -0.167740
  493         c3     10    ccc    C22    493 0.14548000  12.010000   ; qtot -0.022260
  494         ho     10    ccc    H33    494 0.40508000   1.008000   ; qtot 0.382820
  495         hn     10    ccc    H34    495 0.31758000   1.008000   ; qtot 0.700400
  496         h1     10    ccc    H35    496 0.06278000   1.008000   ; qtot 0.763180
  497         h1     10    ccc    H36    497 0.06278000   1.008000   ; qtot 0.825960
  498         oh     10    ccc    O12    498 -0.59472000  16.000000   ; qtot 0.231240
  499         ho     10    ccc    H37    499 0.41908000   1.008000   ; qtot 0.650320
  500         os     10    ccc    O13    500 -0.44552000  16.000000   ; qtot 0.204800
  501         ho     10    ccc    H38    501 0.41908000   1.008000   ; qtot 0.623880
  502         h1     10    ccc    H39    502 0.08578000   1.008000   ; qtot 0.709660
  503         oh     10    ccc     O5    503 -0.58672000  16.000000   ; qtot 0.122940
  504         ho     10    ccc    H40    504 0.41908000   1.008000   ; qtot 0.542020
  505         n3     10    ccc     N4    505 -0.54282000  14.010000   ; qtot -0.000800
; residue   11 ccc rtp ccc q -0.0
  506          n     11    ccc     N1    506 -0.46580000  14.010000   ; qtot -0.466600
  507         hn     11    ccc     H4    507 0.31480000   1.008000   ; qtot -0.151800
  508         c3     11    ccc     C3    508 -0.28250000  12.010000   ; qtot -0.434300
  509         h1     11    ccc     H5    509 0.15710000   1.008000   ; qtot -0.277200
  510         c3     11    ccc     C4    510 0.44180000  12.010000   ; qtot 0.164600
  511         h1     11    ccc     H6    511 0.15710000   1.008000   ; qtot 0.321700
  512         h1     11    ccc     H7    512 -0.03530000   1.008000   ; qtot 0.286400
  513         h1     11    ccc     H8    513 -0.03530000   1.008000   ; qtot 0.251100
  514         n3     11    ccc     N2    514 -0.74090000  14.010000   ; qtot -0.489800
  515         c3     11    ccc     C5    515 0.51680000  12.010000   ; qtot 0.027000
  516         c3     11    ccc     C6    516 0.51680000  12.010000   ; qtot 0.543800
  517         h1     11    ccc     H9    517 -0.05230000   1.008000   ; qtot 0.491500
  518         c3     11    ccc     C7    518 -0.60390000  12.010000   ; qtot -0.112400
  519         h1     11    ccc    H10    519 -0.05230000   1.008000   ; qtot -0.164700
  520         hc     11    ccc    H11    520 0.16730000   1.008000   ; qtot 0.002600
  521         hc     11    ccc    H12    521 0.16730000   1.008000   ; qtot 0.169900
  522          c     11    ccc     C8    522 0.72110000  12.010000   ; qtot 0.891000
  523          o     11    ccc     O2    523 -0.61950000  16.000000   ; qtot 0.271500
  524         h1     11    ccc    H13    524 -0.05230000   1.008000   ; qtot 0.219200
  525         h1     11    ccc    H14    525 -0.05230000   1.008000   ; qtot 0.166900
  526         c3     11    ccc     C9    526 -0.60390000  12.010000   ; qtot -0.437000
  527         hc     11    ccc    H15    527 0.16730000   1.008000   ; qtot -0.269700
  528         hc     11    ccc    H16    528 0.16730000   1.008000   ; qtot -0.102400
  529          c     11    ccc    C10    529 0.72110000  12.010000   ; qtot 0.618700
  530          o     11    ccc     O4    530 -0.61950000  16.000000   ; qtot -0.000800
  531         c3     11    ccc    C11    531 0.08518000  12.010000   ; qtot 0.084380
  532         c3     11    ccc    C12    532 0.07918000  12.010000   ; qtot 0.163560
  533         h1     11    ccc    H17    533 0.06978000   1.008000   ; qtot 0.233340
  534         c3     11    ccc    C13    534 0.07918000  12.010000   ; qtot 0.312520
  535         c3     11    ccc    C14    535 0.03578000  12.010000   ; qtot 0.348300
  536         c3     11    ccc    C15    536 0.33498000  12.010000   ; qtot 0.683280
  537         h1     11    ccc    H18    537 0.06178000   1.008000   ; qtot 0.745060
  538         h1     11    ccc    H19    538 0.11278000   1.008000   ; qtot 0.857840
  539         h2     11    ccc    H20    539 0.12178000   1.008000   ; qtot 0.979620
  540         oh     11    ccc     O1    540 -0.56972000  16.000000   ; qtot 0.409900
  541         oh     11    ccc     O6    541 -0.57772000  16.000000   ; qtot -0.167820
  542         c3     11    ccc    C16    542 0.14548000  12.010000   ; qtot -0.022340
  543         ho     11    ccc    H21    543 0.40508000   1.008000   ; qtot 0.382740
  544         hn     11    ccc    H22    544 0.31758000   1.008000   ; qtot 0.700320
  545         h1     11    ccc    H23    545 0.06278000   1.008000   ; qtot 0.763100
  546         h1     11    ccc    H24    546 0.06278000   1.008000   ; qtot 0.825880
  547         oh     11    ccc     O7    547 -0.59472000  16.000000   ; qtot 0.231160
  548         ho     11    ccc    H25    548 0.41908000   1.008000   ; qtot 0.650240
  549         os     11    ccc     O8    549 -0.44552000  16.000000   ; qtot 0.204720
  550         ho     11    ccc    H26    550 0.41908000   1.008000   ; qtot 0.623800
  551         h1     11    ccc    H27    551 0.08578000   1.008000   ; qtot 0.709580
  552         oh     11    ccc     O9    552 -0.58672000  16.000000   ; qtot 0.122860
  553         ho     11    ccc    H28    553 0.41908000   1.008000   ; qtot 0.541940
  554         n3     11    ccc     N3    554 -0.54282000  14.010000   ; qtot -0.000880
  555         c3     11    ccc    C17    555 0.08518000  12.010000   ; qtot 0.084300
  556         c3     11    ccc    C18    556 0.07918000  12.010000   ; qtot 0.163480
  557         h1     11    ccc    H29    557 0.06978000   1.008000   ; qtot 0.233260
  558         c3     11    ccc    C19    558 0.07918000  12.010000   ; qtot 0.312440
  559         c3     11    ccc    C20    559 0.03578000  12.010000   ; qtot 0.348220
  560         c3     11    ccc    C21    560 0.33498000  12.010000   ; qtot 0.683200
  561         h1     11    ccc    H30    561 0.06178000   1.008000   ; qtot 0.744980
  562         h1     11    ccc    H31    562 0.11278000   1.008000   ; qtot 0.857760
  563         h2     11    ccc    H32    563 0.12178000   1.008000   ; qtot 0.979540
  564         oh     11    ccc    O10    564 -0.56972000  16.000000   ; qtot 0.409820
  565         oh     11    ccc    O11    565 -0.57772000  16.000000   ; qtot -0.167900
  566         c3     11    ccc    C22    566 0.14548000  12.010000   ; qtot -0.022420
  567         ho     11    ccc    H33    567 0.40508000   1.008000   ; qtot 0.382660
  568         hn     11    ccc    H34    568 0.31758000   1.008000   ; qtot 0.700240
  569         h1     11    ccc    H35    569 0.06278000   1.008000   ; qtot 0.763020
  570         h1     11    ccc    H36    570 0.06278000   1.008000   ; qtot 0.825800
  571         oh     11    ccc    O12    571 -0.59472000  16.000000   ; qtot 0.231080
  572         ho     11    ccc    H37    572 0.41908000   1.008000   ; qtot 0.650160
  573         os     11    ccc    O13    573 -0.44552000  16.000000   ; qtot 0.204640
  574         ho     11    ccc    H38    574 0.41908000   1.008000   ; qtot 0.623720
  575         h1     11    ccc    H39    575 0.08578000   1.008000   ; qtot 0.709500
  576         oh     11    ccc     O5    576 -0.58672000  16.000000   ; qtot 0.122780
  577         ho     11    ccc    H40    577 0.41908000   1.008000   ; qtot 0.541860
  578         n3     11    ccc     N4    578 -0.54282000  14.010000   ; qtot -0.000960
; residue   12 ccc rtp ccc q -0.0
  579          n     12    ccc     N1    579 -0.46580000  14.010000   ; qtot -0.466760
  580         hn     12    ccc     H4    580 0.31480000   1.008000   ; qtot -0.151960
  581         c3     12    ccc     C3    581 -0.28250000  12.010000   ; qtot -0.434460
  582         h1     12    ccc     H5    582 0.15710000   1.008000   ; qtot -0.277360
  583         c3     12    ccc     C4    583 0.44180000  12.010000   ; qtot 0.164440
  584         h1     12    ccc     H6    584 0.15710000   1.008000   ; qtot 0.321540
  585         h1     12    ccc     H7    585 -0.03530000   1.008000   ; qtot 0.286240
  586         h1     12    ccc     H8    586 -0.03530000   1.008000   ; qtot 0.250940
  587         n3     12    ccc     N2    587 -0.74090000  14.010000   ; qtot -0.489960
  588         c3     12    ccc     C5    588 0.51680000  12.010000   ; qtot 0.026840
  589         c3     12    ccc     C6    589 0.51680000  12.010000   ; qtot 0.543640
  590         h1     12    ccc     H9    590 -0.05230000   1.008000   ; qtot 0.491340
  591         c3     12    ccc     C7    591 -0.60390000  12.010000   ; qtot -0.112560
  592         h1     12    ccc    H10    592 -0.05230000   1.008000   ; qtot -0.164860
  593         hc     12    ccc    H11    593 0.16730000   1.008000   ; qtot 0.002440
  594         hc     12    ccc    H12    594 0.16730000   1.008000   ; qtot 0.169740
  595          c     12    ccc     C8    595 0.72110000  12.010000   ; qtot 0.890840
  596          o     12    ccc     O2    596 -0.61950000  16.000000   ; qtot 0.271340
  597         h1     12    ccc    H13    597 -0.05230000   1.008000   ; qtot 0.219040
  598         h1     12    ccc    H14    598 -0.05230000   1.008000   ; qtot 0.166740
  599         c3     12    ccc     C9    599 -0.60390000  12.010000   ; qtot -0.437160
  600         hc     12    ccc    H15    600 0.16730000   1.008000   ; qtot -0.269860
  601         hc     12    ccc    H16    601 0.16730000   1.008000   ; qtot -0.102560
  602          c     12    ccc    C10    602 0.72110000  12.010000   ; qtot 0.618540
  603          o     12    ccc     O4    603 -0.61950000  16.000000   ; qtot -0.000960
  604         c3     12    ccc    C11    604 0.08518000  12.010000   ; qtot 0.084220
  605         c3     12    ccc    C12    605 0.07918000  12.010000   ; qtot 0.163400
  606         h1     12    ccc    H17    606 0.06978000   1.008000   ; qtot 0.233180
  607         c3     12    ccc    C13    607 0.07918000  12.010000   ; qtot 0.312360
  608         c3     12    ccc    C14    608 0.03578000  12.010000   ; qtot 0.348140
  609         c3     12    ccc    C15    609 0.33498000  12.010000   ; qtot 0.683120
  610         h1     12    ccc    H18    610 0.06178000   1.008000   ; qtot 0.744900
  611         h1     12    ccc    H19    611 0.11278000   1.008000   ; qtot 0.857680
  612         h2     12    ccc    H20    612 0.12178000   1.008000   ; qtot 0.979460
  613         oh     12    ccc     O1    613 -0.56972000  16.000000   ; qtot 0.409740
  614         oh     12    ccc     O6    614 -0.57772000  16.000000   ; qtot -0.167980
  615         c3     12    ccc    C16    615 0.14548000  12.010000   ; qtot -0.022500
  616         ho     12    ccc    H21    616 0.40508000   1.008000   ; qtot 0.382580
  617         hn     12    ccc    H22    617 0.31758000   1.008000   ; qtot 0.700160
  618         h1     12    ccc    H23    618 0.06278000   1.008000   ; qtot 0.762940
  619         h1     12    ccc    H24    619 0.06278000   1.008000   ; qtot 0.825720
  620         oh     12    ccc     O7    620 -0.59472000  16.000000   ; qtot 0.231000
  621         ho     12    ccc    H25    621 0.41908000   1.008000   ; qtot 0.650080
  622         os     12    ccc     O8    622 -0.44552000  16.000000   ; qtot 0.204560
  623         ho     12    ccc    H26    623 0.41908000   1.008000   ; qtot 0.623640
  624         h1     12    ccc    H27    624 0.08578000   1.008000   ; qtot 0.709420
  625         oh     12    ccc     O9    625 -0.58672000  16.000000   ; qtot 0.122700
  626         ho     12    ccc    H28    626 0.41908000   1.008000   ; qtot 0.541780
  627         n3     12    ccc     N3    627 -0.54282000  14.010000   ; qtot -0.001040
  628         c3     12    ccc    C17    628 0.08518000  12.010000   ; qtot 0.084140
  629         c3     12    ccc    C18    629 0.07918000  12.010000   ; qtot 0.163320
  630         h1     12    ccc    H29    630 0.06978000   1.008000   ; qtot 0.233100
  631         c3     12    ccc    C19    631 0.07918000  12.010000   ; qtot 0.312280
  632         c3     12    ccc    C20    632 0.03578000  12.010000   ; qtot 0.348060
  633         c3     12    ccc    C21    633 0.33498000  12.010000   ; qtot 0.683040
  634         h1     12    ccc    H30    634 0.06178000   1.008000   ; qtot 0.744820
  635         h1     12    ccc    H31    635 0.11278000   1.008000   ; qtot 0.857600
  636         h2     12    ccc    H32    636 0.12178000   1.008000   ; qtot 0.979380
  637         oh     12    ccc    O10    637 -0.56972000  16.000000   ; qtot 0.409660
  638         oh     12    ccc    O11    638 -0.57772000  16.000000   ; qtot -0.168060
  639         c3     12    ccc    C22    639 0.14548000  12.010000   ; qtot -0.022580
  640         ho     12    ccc    H33    640 0.40508000   1.008000   ; qtot 0.382500
  641         hn     12    ccc    H34    641 0.31758000   1.008000   ; qtot 0.700080
  642         h1     12    ccc    H35    642 0.06278000   1.008000   ; qtot 0.762860
  643         h1     12    ccc    H36    643 0.06278000   1.008000   ; qtot 0.825640
  644         oh     12    ccc    O12    644 -0.59472000  16.000000   ; qtot 0.230920
  645         ho     12    ccc    H37    645 0.41908000   1.008000   ; qtot 0.650000
  646         os     12    ccc    O13    646 -0.44552000  16.000000   ; qtot 0.204480
  647         ho     12    ccc    H38    647 0.41908000   1.008000   ; qtot 0.623560
  648         h1     12    ccc    H39    648 0.08578000   1.008000   ; qtot 0.709340
  649         oh     12    ccc     O5    649 -0.58672000  16.000000   ; qtot 0.122620
  650         ho     12    ccc    H40    650 0.41908000   1.008000   ; qtot 0.541700
  651         n3     12    ccc     N4    651 -0.54282000  14.010000   ; qtot -0.001120
; residue   13 ccc rtp ccc q -0.0
  652          n     13    ccc     N1    652 -0.46580000  14.010000   ; qtot -0.466920
  653         hn     13    ccc     H4    653 0.31480000   1.008000   ; qtot -0.152120
  654         c3     13    ccc     C3    654 -0.28250000  12.010000   ; qtot -0.434620
  655         h1     13    ccc     H5    655 0.15710000   1.008000   ; qtot -0.277520
  656         c3     13    ccc     C4    656 0.44180000  12.010000   ; qtot 0.164280
  657         h1     13    ccc     H6    657 0.15710000   1.008000   ; qtot 0.321380
  658         h1     13    ccc     H7    658 -0.03530000   1.008000   ; qtot 0.286080
  659         h1     13    ccc     H8    659 -0.03530000   1.008000   ; qtot 0.250780
  660         n3     13    ccc     N2    660 -0.74090000  14.010000   ; qtot -0.490120
  661         c3     13    ccc     C5    661 0.51680000  12.010000   ; qtot 0.026680
  662         c3     13    ccc     C6    662 0.51680000  12.010000   ; qtot 0.543480
  663         h1     13    ccc     H9    663 -0.05230000   1.008000   ; qtot 0.491180
  664         c3     13    ccc     C7    664 -0.60390000  12.010000   ; qtot -0.112720
  665         h1     13    ccc    H10    665 -0.05230000   1.008000   ; qtot -0.165020
  666         hc     13    ccc    H11    666 0.16730000   1.008000   ; qtot 0.002280
  667         hc     13    ccc    H12    667 0.16730000   1.008000   ; qtot 0.169580
  668          c     13    ccc     C8    668 0.72110000  12.010000   ; qtot 0.890680
  669          o     13    ccc     O2    669 -0.61950000  16.000000   ; qtot 0.271180
  670         h1     13    ccc    H13    670 -0.05230000   1.008000   ; qtot 0.218880
  671         h1     13    ccc    H14    671 -0.05230000   1.008000   ; qtot 0.166580
  672         c3     13    ccc     C9    672 -0.60390000  12.010000   ; qtot -0.437320
  673         hc     13    ccc    H15    673 0.16730000   1.008000   ; qtot -0.270020
  674         hc     13    ccc    H16    674 0.16730000   1.008000   ; qtot -0.102720
  675          c     13    ccc    C10    675 0.72110000  12.010000   ; qtot 0.618380
  676          o     13    ccc     O4    676 -0.61950000  16.000000   ; qtot -0.001120
  677         c3     13    ccc    C11    677 0.08518000  12.010000   ; qtot 0.084060
  678         c3     13    ccc    C12    678 0.07918000  12.010000   ; qtot 0.163240
  679         h1     13    ccc    H17    679 0.06978000   1.008000   ; qtot 0.233020
  680         c3     13    ccc    C13    680 0.07918000  12.010000   ; qtot 0.312200
  681         c3     13    ccc    C14    681 0.03578000  12.010000   ; qtot 0.347980
  682         c3     13    ccc    C15    682 0.33498000  12.010000   ; qtot 0.682960
  683         h1     13    ccc    H18    683 0.06178000   1.008000   ; qtot 0.744740
  684         h1     13    ccc    H19    684 0.11278000   1.008000   ; qtot 0.857520
  685         h2     13    ccc    H20    685 0.12178000   1.008000   ; qtot 0.979300
  686         oh     13    ccc     O1    686 -0.56972000  16.000000   ; qtot 0.409580
  687         oh     13    ccc     O6    687 -0.57772000  16.000000   ; qtot -0.168140
  688         c3     13    ccc    C16    688 0.14548000  12.010000   ; qtot -0.022660
  689         ho     13    ccc    H21    689 0.40508000   1.008000   ; qtot 0.382420
  690         hn     13    ccc    H22    690 0.31758000   1.008000   ; qtot 0.700000
  691         h1     13    ccc    H23    691 0.06278000   1.008000   ; qtot 0.762780
  692         h1     13    ccc    H24    692 0.06278000   1.008000   ; qtot 0.825560
  693         oh     13    ccc     O7    693 -0.59472000  16.000000   ; qtot 0.230840
  694         ho     13    ccc    H25    694 0.41908000   1.008000   ; qtot 0.649920
  695         os     13    ccc     O8    695 -0.44552000  16.000000   ; qtot 0.204400
  696         ho     13    ccc    H26    696 0.41908000   1.008000   ; qtot 0.623480
  697         h1     13    ccc    H27    697 0.08578000   1.008000   ; qtot 0.709260
  698         oh     13    ccc     O9    698 -0.58672000  16.000000   ; qtot 0.122540
  699         ho     13    ccc    H28    699 0.41908000   1.008000   ; qtot 0.541620
  700         n3     13    ccc     N3    700 -0.54282000  14.010000   ; qtot -0.001200
  701         c3     13    ccc    C17    701 0.08518000  12.010000   ; qtot 0.083980
  702         c3     13    ccc    C18    702 0.07918000  12.010000   ; qtot 0.163160
  703         h1     13    ccc    H29    703 0.06978000   1.008000   ; qtot 0.232940
  704         c3     13    ccc    C19    704 0.07918000  12.010000   ; qtot 0.312120
  705         c3     13    ccc    C20    705 0.03578000  12.010000   ; qtot 0.347900
  706         c3     13    ccc    C21    706 0.33498000  12.010000   ; qtot 0.682880
  707         h1     13    ccc    H30    707 0.06178000   1.008000   ; qtot 0.744660
  708         h1     13    ccc    H31    708 0.11278000   1.008000   ; qtot 0.857440
  709         h2     13    ccc    H32    709 0.12178000   1.008000   ; qtot 0.979220
  710         oh     13    ccc    O10    710 -0.56972000  16.000000   ; qtot 0.409500
  711         oh     13    ccc    O11    711 -0.57772000  16.000000   ; qtot -0.168220
  712         c3     13    ccc    C22    712 0.14548000  12.010000   ; qtot -0.022740
  713         ho     13    ccc    H33    713 0.40508000   1.008000   ; qtot 0.382340
  714         hn     13    ccc    H34    714 0.31758000   1.008000   ; qtot 0.699920
  715         h1     13    ccc    H35    715 0.06278000   1.008000   ; qtot 0.762700
  716         h1     13    ccc    H36    716 0.06278000   1.008000   ; qtot 0.825480
  717         oh     13    ccc    O12    717 -0.59472000  16.000000   ; qtot 0.230760
  718         ho     13    ccc    H37    718 0.41908000   1.008000   ; qtot 0.649840
  719         os     13    ccc    O13    719 -0.44552000  16.000000   ; qtot 0.204320
  720         ho     13    ccc    H38    720 0.41908000   1.008000   ; qtot 0.623400
  721         h1     13    ccc    H39    721 0.08578000   1.008000   ; qtot 0.709180
  722         oh     13    ccc     O5    722 -0.58672000  16.000000   ; qtot 0.122460
  723         ho     13    ccc    H40    723 0.41908000   1.008000   ; qtot 0.541540
  724         n3     13    ccc     N4    724 -0.54282000  14.010000   ; qtot -0.001280

[ bonds ]
;    ai     aj funct         c0         c1         c2         c3
      1      4     1   0.15375 251793.120000
      1      8     1   0.14647 272713.120000
      4      7     1   0.14647 272713.120000
      7     15     1   0.14647 272713.120000
      7     18     1   0.14647 272713.120000
      8      9     1   0.14647 272713.120000
      8     12     1   0.14647 272713.120000
      9     30     1   0.15375 251793.120000
     12     27     1   0.15375 251793.120000
     15     21     1   0.15375 251793.120000
     18     24     1   0.15375 251793.120000
     21     35     1   0.15241 261918.400000
     24     36     1   0.15241 261918.400000
     27     33     1   0.15241 261918.400000
     30     34     1   0.15241 261918.400000
     33     37     1   0.12183 533627.360000
     33     64     1   0.13789 357815.680000
     34     40     1   0.12183 533627.360000
     34     89     1   0.13789 357815.680000
     35     38     1   0.12183 533627.360000
     35    114     1   0.13789 357815.680000
     36     39     1   0.12183 533627.360000
     36    139     1   0.13789 357815.680000
     41     44     1   0.15375 251793.120000
     41     47     1   0.14647 272713.120000
     44     64     1   0.14619 275056.160000
     47     48     1   0.14647 272713.120000
     47     51     1   0.14647 272713.120000
     48     57     1   0.15375 251793.120000
     51     54     1   0.15375 251793.120000
     54     60     1   0.15241 261918.400000
     57     61     1   0.15241 261918.400000
     60    141     1   0.13789 357815.680000
     60     62     1   0.12183 533627.360000
     61     63     1   0.12183 533627.360000
     61    214     1   0.13789 357815.680000
     66     69     1   0.15375 251793.120000
     66     72     1   0.14647 272713.120000
     69     89     1   0.14619 275056.160000
     72     73     1   0.14647 272713.120000
     72     76     1   0.14647 272713.120000
     73     82     1   0.15375 251793.120000
     76     79     1   0.15375 251793.120000
     79     85     1   0.15241 261918.400000
     82     86     1   0.15241 261918.400000
     85    287     1   0.13789 357815.680000
     85     87     1   0.12183 533627.360000
     86     88     1   0.12183 533627.360000
     86    360     1   0.13789 357815.680000
     91     94     1   0.15375 251793.120000
     91     97     1   0.14647 272713.120000
     94    114     1   0.14619 275056.160000
     97     98     1   0.14647 272713.120000
     97    101     1   0.14647 272713.120000
     98    107     1   0.15375 251793.120000
    101    104     1   0.15375 251793.120000
    104    110     1   0.15241 261918.400000
    107    111     1   0.15241 261918.400000
    110    433     1   0.13789 357815.680000
    110    112     1   0.12183 533627.360000
    111    113     1   0.12183 533627.360000
    111    506     1   0.13789 357815.680000
    116    119     1   0.15375 251793.120000
    116    122     1   0.14647 272713.120000
    119    139     1   0.14619 275056.160000
    122    123     1   0.14647 272713.120000
    122    126     1   0.14647 272713.120000
    123    132     1   0.15375 251793.120000
    126    129     1   0.15375 251793.120000
    129    135     1   0.15241 261918.400000
    132    136     1   0.15241 261918.400000
    135    579     1   0.13789 357815.680000
    135    137     1   0.12183 533627.360000
    136    652     1   0.13789 357815.680000
    136    138     1   0.12183 533627.360000
    141    143     1   0.14619 275056.160000
    143    145     1   0.15375 251793.120000
    145    149     1   0.14647 272713.120000
    149    150     1   0.14647 272713.120000
    149    151     1   0.14647 272713.120000
    150    161     1   0.15375 251793.120000
    151    153     1   0.15375 251793.120000
    153    157     1   0.15241 261918.400000
    157    158     1   0.12183 533627.360000
    157    189     1   0.13400 406935.840000
    161    164     1   0.15241 261918.400000
    164    165     1   0.12183 533627.360000
    164    213     1   0.13400 406935.840000
    166    167     1   0.15375 251793.120000
    166    177     1   0.15375 251793.120000
    166    184     1   0.14316 258236.480000
    167    169     1   0.15375 251793.120000
    167    187     1   0.14233 265014.560000
    169    170     1   0.15375 251793.120000
    169    176     1   0.14233 265014.560000
    170    171     1   0.15375 251793.120000
    170    189     1   0.14647 272713.120000
    171    175     1   0.14233 265014.560000
    171    184     1   0.14316 258236.480000
    177    182     1   0.14233 265014.560000
    190    191     1   0.15375 251793.120000
    190    201     1   0.15375 251793.120000
    190    208     1   0.14316 258236.480000
    191    193     1   0.15375 251793.120000
    191    211     1   0.14233 265014.560000
    193    194     1   0.15375 251793.120000
    193    200     1   0.14233 265014.560000
    194    195     1   0.15375 251793.120000
    194    213     1   0.14647 272713.120000
    195    199     1   0.14233 265014.560000
    195    208     1   0.14316 258236.480000
    201    206     1   0.14233 265014.560000
    214    216     1   0.14619 275056.160000
    216    218     1   0.15375 251793.120000
    218    222     1   0.14647 272713.120000
    222    223     1   0.14647 272713.120000
    222    224     1   0.14647 272713.120000
    223    234     1   0.15375 251793.120000
    224    226     1   0.15375 251793.120000
    226    230     1   0.15241 261918.400000
    230    231     1   0.12183 533627.360000
    230    262     1   0.13400 406935.840000
    234    237     1   0.15241 261918.400000
    237    238     1   0.12183 533627.360000
    237    286     1   0.13400 406935.840000
    239    240     1   0.15375 251793.120000
    239    250     1   0.15375 251793.120000
    239    257     1   0.14316 258236.480000
    240    242     1   0.15375 251793.120000
    240    260     1   0.14233 265014.560000
    242    243     1   0.15375 251793.120000
    242    249     1   0.14233 265014.560000
    243    244     1   0.15375 251793.120000
    243    262     1   0.14647 272713.120000
    244    248     1   0.14233 265014.560000
    244    257     1   0.14316 258236.480000
    250    255     1   0.14233 265014.560000
    263    264     1   0.15375 251793.120000
    263    274     1   0.15375 251793.120000
    263    281     1   0.14316 258236.480000
    264    266     1   0.15375 251793.120000
    264    284     1   0.14233 265014.560000
    266    267     1   0.15375 251793.120000
    266    273     1   0.14233 265014.560000
    267    268     1   0.15375 251793.120000
    267    286     1   0.14647 272713.120000
    268    272     1   0.14233 265014.560000
    268    281     1   0.14316 258236.480000
    274    279     1   0.14233 265014.560000
    287    289     1   0.14619 275056.160000
    289    291     1   0.15375 251793.120000
    291    295     1   0.14647 272713.120000
    295    296     1   0.14647 272713.120000
    295    297     1   0.14647 272713.120000
    296    307     1   0.15375 251793.120000
    297    299     1   0.15375 251793.120000
    299    303     1   0.15241 261918.400000
    303    304     1   0.12183 533627.360000
    303    335     1   0.13400 406935.840000
    307    310     1   0.15241 261918.400000
    310    311     1   0.12183 533627.360000
    310    359     1   0.13400 406935.840000
    312    313     1   0.15375 251793.120000
    312    323     1   0.15375 251793.120000
    312    330     1   0.14316 258236.480000
    313    315     1   0.15375 251793.120000
    313    333     1   0.14233 265014.560000
    315    316     1   0.15375 251793.120000
    315    322     1   0.14233 265014.560000
    316    317     1   0.15375 251793.120000
    316    335     1   0.14647 272713.120000
    317    321     1   0.14233 265014.560000
    317    330     1   0.14316 258236.480000
    323    328     1   0.14233 265014.560000
    336    337     1   0.15375 251793.120000
    336    347     1   0.15375 251793.120000
    336    354     1   0.14316 258236.480000
    337    339     1   0.15375 251793.120000
    337    357     1   0.14233 265014.560000
    339    340     1   0.15375 251793.120000
    339    346     1   0.14233 265014.560000
    340    341     1   0.15375 251793.120000
    340    359     1   0.14647 272713.120000
    341    345     1   0.14233 265014.560000
    341    354     1   0.14316 258236.480000
    347    352     1   0.14233 265014.560000
    360    362     1   0.14619 275056.160000
    362    364     1   0.15375 251793.120000
    364    368     1   0.14647 272713.120000
    368    369     1   0.14647 272713.120000
    368    370     1   0.14647 272713.120000
    369    380     1   0.15375 251793.120000
    370    372     1   0.15375 251793.120000
    372    376     1   0.15241 261918.400000
    376    377     1   0.12183 533627.360000
    376    408     1   0.13400 406935.840000
    380    383     1   0.15241 261918.400000
    383    384     1   0.12183 533627.360000
    383    432     1   0.13400 406935.840000
    385    386     1   0.15375 251793.120000
    385    396     1   0.15375 251793.120000
    385    403     1   0.14316 258236.480000
    386    388     1   0.15375 251793.120000
    386    406     1   0.14233 265014.560000
    388    389     1   0.15375 251793.120000
    388    395     1   0.14233 265014.560000
    389    390     1   0.15375 251793.120000
    389    408     1   0.14647 272713.120000
    390    394     1   0.14233 265014.560000
    390    403     1   0.14316 258236.480000
    396    401     1   0.14233 265014.560000
    409    410     1   0.15375 251793.120000
    409    420     1   0.15375 251793.120000
    409    427     1   0.14316 258236.480000
    410    412     1   0.15375 251793.120000
    410    430     1   0.14233 265014.560000
    412    413     1   0.15375 251793.120000
    412    419     1   0.14233 265014.560000
    413    414     1   0.15375 251793.120000
    413    432     1   0.14647 272713.120000
    414    418     1   0.14233 265014.560000
    414    427     1   0.14316 258236.480000
    420    425     1   0.14233 265014.560000
    433    435     1   0.14619 275056.160000
    435    437     1   0.15375 251793.120000
    437    441     1   0.14647 272713.120000
    441    442     1   0.14647 272713.120000
    441    443     1   0.14647 272713.120000
    442    453     1   0.15375 251793.120000
    443    445     1   0.15375 251793.120000
    445    449     1   0.15241 261918.400000
    449    450     1   0.12183 533627.360000
    449    481     1   0.13400 406935.840000
    453    456     1   0.15241 261918.400000
    456    457     1   0.12183 533627.360000
    456    505     1   0.13400 406935.840000
    458    459     1   0.15375 251793.120000
    458    469     1   0.15375 251793.120000
    458    476     1   0.14316 258236.480000
    459    461     1   0.15375 251793.120000
    459    479     1   0.14233 265014.560000
    461    462     1   0.15375 251793.120000
    461    468     1   0.14233 265014.560000
    462    463     1   0.15375 251793.120000
    462    481     1   0.14647 272713.120000
    463    467     1   0.14233 265014.560000
    463    476     1   0.14316 258236.480000
    469    474     1   0.14233 265014.560000
    482    483     1   0.15375 251793.120000
    482    493     1   0.15375 251793.120000
    482    500     1   0.14316 258236.480000
    483    485     1   0.15375 251793.120000
    483    503     1   0.14233 265014.560000
    485    486     1   0.15375 251793.120000
    485    492     1   0.14233 265014.560000
    486    487     1   0.15375 251793.120000
    486    505     1   0.14647 272713.120000
    487    491     1   0.14233 265014.560000
    487    500     1   0.14316 258236.480000
    493    498     1   0.14233 265014.560000
    506    508     1   0.14619 275056.160000
    508    510     1   0.15375 251793.120000
    510    514     1   0.14647 272713.120000
    514    515     1   0.14647 272713.120000
    514    516     1   0.14647 272713.120000
    515    526     1   0.15375 251793.120000
    516    518     1   0.15375 251793.120000
    518    522     1   0.15241 261918.400000
    522    523     1   0.12183 533627.360000
    522    554     1   0.13400 406935.840000
    526    529     1   0.15241 261918.400000
    529    530     1   0.12183 533627.360000
    529    578     1   0.13400 406935.840000
    531    532     1   0.15375 251793.120000
    531    542     1   0.15375 251793.120000
    531    549     1   0.14316 258236.480000
    532    534     1   0.15375 251793.120000
    532    552     1   0.14233 265014.560000
    534    535     1   0.15375 251793.120000
    534    541     1   0.14233 265014.560000
    535    536     1   0.15375 251793.120000
    535    554     1   0.14647 272713.120000
    536    540     1   0.14233 265014.560000
    536    549     1   0.14316 258236.480000
    542    547     1   0.14233 265014.560000
    555    556     1   0.15375 251793.120000
    555    566     1   0.15375 251793.120000
    555    573     1   0.14316 258236.480000
    556    558     1   0.15375 251793.120000
    556    576     1   0.14233 265014.560000
    558    559     1   0.15375 251793.120000
    558    565     1   0.14233 265014.560000
    559    560     1   0.15375 251793.120000
    559    578     1   0.14647 272713.120000
    560    564     1   0.14233 265014.560000
    560    573     1   0.14316 258236.480000
    566    571     1   0.14233 265014.560000
    579    581     1   0.14619 275056.160000
    581    583     1   0.15375 251793.120000
    583    587     1   0.14647 272713.120000
    587    588     1   0.14647 272713.120000
    587    589     1   0.14647 272713.120000
    588    599     1   0.15375 251793.120000
    589    591     1   0.15375 251793.120000
    591    595     1   0.15241 261918.400000
    595    596     1   0.12183 533627.360000
    595    627     1   0.13400 406935.840000
    599    602     1   0.15241 261918.400000
    602    603     1   0.12183 533627.360000
    602    651     1   0.13400 406935.840000
    604    605     1   0.15375 251793.120000
    604    615     1   0.15375 251793.120000
    604    622     1   0.14316 258236.480000
    605    607     1   0.15375 251793.120000
    605    625     1   0.14233 265014.560000
    607    608     1   0.15375 251793.120000
    607    614     1   0.14233 265014.560000
    608    609     1   0.15375 251793.120000
    608    627     1   0.14647 272713.120000
    609    613     1   0.14233 265014.560000
    609    622     1   0.14316 258236.480000
    615    620     1   0.14233 265014.560000
    628    629     1   0.15375 251793.120000
    628    639     1   0.15375 251793.120000
    628    646     1   0.14316 258236.480000
    629    631     1   0.15375 251793.120000
    629    649     1   0.14233 265014.560000
    631    632     1   0.15375 251793.120000
    631    638     1   0.14233 265014.560000
    632    633     1   0.15375 251793.120000
    632    651     1   0.14647 272713.120000
    633    637     1   0.14233 265014.560000
    633    646     1   0.14316 258236.480000
    639    644     1   0.14233 265014.560000
    652    654     1   0.14619 275056.160000
    654    656     1   0.15375 251793.120000
    656    660     1   0.14647 272713.120000
    660    661     1   0.14647 272713.120000
    660    662     1   0.14647 272713.120000
    661    672     1   0.15375 251793.120000
    662    664     1   0.15375 251793.120000
    664    668     1   0.15241 261918.400000
    668    669     1   0.12183 533627.360000
    668    700     1   0.13400 406935.840000
    672    675     1   0.15241 261918.400000
    675    676     1   0.12183 533627.360000
    675    724     1   0.13400 406935.840000
    677    678     1   0.15375 251793.120000
    677    688     1   0.15375 251793.120000
    677    695     1   0.14316 258236.480000
    678    680     1   0.15375 251793.120000
    678    698     1   0.14233 265014.560000
    680    681     1   0.15375 251793.120000
    680    687     1   0.14233 265014.560000
    681    682     1   0.15375 251793.120000
    681    700     1   0.14647 272713.120000
    682    686     1   0.14233 265014.560000
    682    695     1   0.14316 258236.480000
    688    693     1   0.14233 265014.560000
    701    702     1   0.15375 251793.120000
    701    712     1   0.15375 251793.120000
    701    719     1   0.14316 258236.480000
    702    704     1   0.15375 251793.120000
    702    722     1   0.14233 265014.560000
    704    705     1   0.15375 251793.120000
    704    711     1   0.14233 265014.560000
    705    706     1   0.15375 251793.120000
    705    724     1   0.14647 272713.120000
    706    710     1   0.14233 265014.560000
    706    719     1   0.14316 258236.480000
    712    717     1   0.14233 265014.560000
      1      2     1   0.10969 276646.080000
      1      3     1   0.10969 276646.080000
      4      5     1   0.10969 276646.080000
      4      6     1   0.10969 276646.080000
      9     10     1   0.10969 276646.080000
      9     11     1   0.10969 276646.080000
     12     13     1   0.10969 276646.080000
     12     14     1   0.10969 276646.080000
     15     16     1   0.10969 276646.080000
     15     17     1   0.10969 276646.080000
     18     19     1   0.10969 276646.080000
     18     20     1   0.10969 276646.080000
     21     22     1   0.10969 276646.080000
     21     23     1   0.10969 276646.080000
     24     25     1   0.10969 276646.080000
     24     26     1   0.10969 276646.080000
     27     28     1   0.10969 276646.080000
     27     29     1   0.10969 276646.080000
     30     31     1   0.10969 276646.080000
     30     32     1   0.10969 276646.080000
     41     42     1   0.10969 276646.080000
     41     43     1   0.10969 276646.080000
     44     45     1   0.10969 276646.080000
     44     46     1   0.10969 276646.080000
     48     49     1   0.10969 276646.080000
     48     50     1   0.10969 276646.080000
     51     52     1   0.10969 276646.080000
     51     53     1   0.10969 276646.080000
     54     55     1   0.10969 276646.080000
     54     56     1   0.10969 276646.080000
     57     58     1   0.10969 276646.080000
     57     59     1   0.10969 276646.080000
     64     65     1   0.10129 337397.760000
     66     67     1   0.10969 276646.080000
     66     68     1   0.10969 276646.080000
     69     70     1   0.10969 276646.080000
     69     71     1   0.10969 276646.080000
     73     74     1   0.10969 276646.080000
     73     75     1   0.10969 276646.080000
     76     77     1   0.10969 276646.080000
     76     78     1   0.10969 276646.080000
     79     80     1   0.10969 276646.080000
     79     81     1   0.10969 276646.080000
     82     83     1   0.10969 276646.080000
     82     84     1   0.10969 276646.080000
     89     90     1   0.10129 337397.760000
     91     92     1   0.10969 276646.080000
     91     93     1   0.10969 276646.080000
     94     95     1   0.10969 276646.080000
     94     96     1   0.10969 276646.080000
     98     99     1   0.10969 276646.080000
     98    100     1   0.10969 276646.080000
    101    102     1   0.10969 276646.080000
    101    103     1   0.10969 276646.080000
    104    105     1   0.10969 276646.080000
    104    106     1   0.10969 276646.080000
    107    108     1   0.10969 276646.080000
    107    109     1   0.10969 276646.080000
    114    115     1   0.10129 337397.760000
    116    117     1   0.10969 276646.080000
    116    118     1   0.10969 276646.080000
    119    120     1   0.10969 276646.080000
    119    121     1   0.10969 276646.080000
    123    124     1   0.10969 276646.080000
    123    125     1   0.10969 276646.080000
    126    127     1   0.10969 276646.080000
    126    128     1   0.10969 276646.080000
    129    130     1   0.10969 276646.080000
    129    131     1   0.10969 276646.080000
    132    133     1   0.10969 276646.080000
    132    134     1   0.10969 276646.080000
    139    140     1   0.10129 337397.760000
    141    142     1   0.10129 337397.760000
    143    144     1   0.10969 276646.080000
    143    146     1   0.10969 276646.080000
    145    147     1   0.10969 276646.080000
    145    148     1   0.10969 276646.080000
    150    159     1   0.10969 276646.080000
    150    160     1   0.10969 276646.080000
    151    152     1   0.10969 276646.080000
    151    154     1   0.10969 276646.080000
    153    155     1   0.10969 276646.080000
    153    156     1   0.10969 276646.080000
    161    162     1   0.10969 276646.080000
    161    163     1   0.10969 276646.080000
    166    168     1   0.10969 276646.080000
    167    186     1   0.10969 276646.080000
    169    173     1   0.10969 276646.080000
    170    172     1   0.10969 276646.080000
    171    174     1   0.10961 277566.560000
    175    185     1   0.09730 310787.520000
    176    178     1   0.09730 310787.520000
    177    180     1   0.10969 276646.080000
    177    181     1   0.10969 276646.080000
    179    189     1   0.10190 328360.320000
    182    183     1   0.09730 310787.520000
    187    188     1   0.09730 310787.520000
    190    192     1   0.10969 276646.080000
    191    210     1   0.10969 276646.080000
    193    197     1   0.10969 276646.080000
    194    196     1   0.10969 276646.080000
    195    198     1   0.10961 277566.560000
    199    209     1   0.09730 310787.520000
    200    202     1   0.09730 310787.520000
    201    204     1   0.10969 276646.080000
    201    205     1   0.10969 276646.080000
    203    213     1   0.10190 328360.320000
    206    207     1   0.09730 310787.520000
    211    212     1   0.09730 310787.520000
    214    215     1   0.10129 337397.760000
    216    217     1   0.10969 276646.080000
    216    219     1   0.10969 276646.080000
    218    220     1   0.10969 276646.080000
    218    221     1   0.10969 276646.080000
    223    232     1   0.10969 276646.080000
    223    233     1   0.10969 276646.080000
    224    225     1   0.10969 276646.080000
    224    227     1   0.10969 276646.080000
    226    228     1   0.10969 276646.080000
    226    229     1   0.10969 276646.080000
    234    235     1   0.10969 276646.080000
    234    236     1   0.10969 276646.080000
    239    241     1   0.10969 276646.080000
    240    259     1   0.10969 276646.080000
    242    246     1   0.10969 276646.080000
    243    245     1   0.10969 276646.080000
    244    247     1   0.10961 277566.560000
    248    258     1   0.09730 310787.520000
    249    251     1   0.09730 310787.520000
    250    253     1   0.10969 276646.080000
    250    254     1   0.10969 276646.080000
    252    262     1   0.10190 328360.320000
    255    256     1   0.09730 310787.520000
    260    261     1   0.09730 310787.520000
    263    265     1   0.10969 276646.080000
    264    283     1   0.10969 276646.080000
    266    270     1   0.10969 276646.080000
    267    269     1   0.10969 276646.080000
    268    271     1   0.10961 277566.560000
    272    282     1   0.09730 310787.520000
    273    275     1   0.09730 310787.520000
    274    277     1   0.10969 276646.080000
    274    278     1   0.10969 276646.080000
    276    286     1   0.10190 328360.320000
    279    280     1   0.09730 310787.520000
    284    285     1   0.09730 310787.520000
    287    288     1   0.10129 337397.760000
    289    290     1   0.10969 276646.080000
    289    292     1   0.10969 276646.080000
    291    293     1   0.10969 276646.080000
    291    294     1   0.10969 276646.080000
    296    305     1   0.10969 276646.080000
    296    306     1   0.10969 276646.080000
    297    298     1   0.10969 276646.080000
    297    300     1   0.10969 276646.080000
    299    301     1   0.10969 276646.080000
    299    302     1   0.10969 276646.080000
    307    308     1   0.10969 276646.080000
    307    309     1   0.10969 276646.080000
    312    314     1   0.10969 276646.080000
    313    332     1   0.10969 276646.080000
    315    319     1   0.10969 276646.080000
    316    318     1   0.10969 276646.080000
    317    320     1   0.10961 277566.560000
    321    331     1   0.09730 310787.520000
    322    324     1   0.09730 310787.520000
    323    326     1   0.10969 276646.080000
    323    327     1   0.10969 276646.080000
    325    335     1   0.10190 328360.320000
    328    329     1   0.09730 310787.520000
    333    334     1   0.09730 310787.520000
    336    338     1   0.10969 276646.080000
    337    356     1   0.10969 276646.080000
    339    343     1   0.10969 276646.080000
    340    342     1   0.10969 276646.080000
    341    344     1   0.10961 277566.560000
    345    355     1   0.09730 310787.520000
    346    348     1   0.09730 310787.520000
    347    350     1   0.10969 276646.080000
    347    351     1   0.10969 276646.080000
    349    359     1   0.10190 328360.320000
    352    353     1   0.09730 310787.520000
    357    358     1   0.09730 310787.520000
    360    361     1   0.10129 337397.760000
    362    363     1   0.10969 276646.080000
    362    365     1   0.10969 276646.080000
    364    366     1   0.10969 276646.080000
    364    367     1   0.10969 276646.080000
    369    378     1   0.10969 276646.080000
    369    379     1   0.10969 276646.080000
    370    371     1   0.10969 276646.080000
    370    373     1   0.10969 276646.080000
    372    374     1   0.10969 276646.080000
    372    375     1   0.10969 276646.080000
    380    381     1   0.10969 276646.080000
    380    382     1   0.10969 276646.080000
    385    387     1   0.10969 276646.080000
    386    405     1   0.10969 276646.080000
    388    392     1   0.10969 276646.080000
    389    391     1   0.10969 276646.080000
    390    393     1   0.10961 277566.560000
    394    404     1   0.09730 310787.520000
    395    397     1   0.09730 310787.520000
    396    399     1   0.10969 276646.080000
    396    400     1   0.10969 276646.080000
    398    408     1   0.10190 328360.320000
    401    402     1   0.09730 310787.520000
    406    407     1   0.09730 310787.520000
    409    411     1   0.10969 276646.080000
    410    429     1   0.10969 276646.080000
    412    416     1   0.10969 276646.080000
    413    415     1   0.10969 276646.080000
    414    417     1   0.10961 277566.560000
    418    428     1   0.09730 310787.520000
    419    421     1   0.09730 310787.520000
    420    423     1   0.10969 276646.080000
    420    424     1   0.10969 276646.080000
    422    432     1   0.10190 328360.320000
    425    426     1   0.09730 310787.520000
    430    431     1   0.09730 310787.520000
    433    434     1   0.10129 337397.760000
    435    436     1   0.10969 276646.080000
    435    438     1   0.10969 276646.080000
    437    439     1   0.10969 276646.080000
    437    440     1   0.10969 276646.080000
    442    451     1   0.10969 276646.080000
    442    452     1   0.10969 276646.080000
    443    444     1   0.10969 276646.080000
    443    446     1   0.10969 276646.080000
    445    447     1   0.10969 276646.080000
    445    448     1   0.10969 276646.080000
    453    454     1   0.10969 276646.080000
    453    455     1   0.10969 276646.080000
    458    460     1   0.10969 276646.080000
    459    478     1   0.10969 276646.080000
    461    465     1   0.10969 276646.080000
    462    464     1   0.10969 276646.080000
    463    466     1   0.10961 277566.560000
    467    477     1   0.09730 310787.520000
    468    470     1   0.09730 310787.520000
    469    472     1   0.10969 276646.080000
    469    473     1   0.10969 276646.080000
    471    481     1   0.10190 328360.320000
    474    475     1   0.09730 310787.520000
    479    480     1   0.09730 310787.520000
    482    484     1   0.10969 276646.080000
    483    502     1   0.10969 276646.080000
    485    489     1   0.10969 276646.080000
    486    488     1   0.10969 276646.080000
    487    490     1   0.10961 277566.560000
    491    501     1   0.09730 310787.520000
    492    494     1   0.09730 310787.520000
    493    496     1   0.10969 276646.080000
    493    497     1   0.10969 276646.080000
    495    505     1   0.10190 328360.320000
    498    499     1   0.09730 310787.520000
    503    504     1   0.09730 310787.520000
    506    507     1   0.10129 337397.760000
    508    509     1   0.10969 276646.080000
    508    511     1   0.10969 276646.080000
    510    512     1   0.10969 276646.080000
    510    513     1   0.10969 276646.080000
    515    524     1   0.10969 276646.080000
    515    525     1   0.10969 276646.080000
    516    517     1   0.10969 276646.080000
    516    519     1   0.10969 276646.080000
    518    520     1   0.10969 276646.080000
    518    521     1   0.10969 276646.080000
    526    527     1   0.10969 276646.080000
    526    528     1   0.10969 276646.080000
    531    533     1   0.10969 276646.080000
    532    551     1   0.10969 276646.080000
    534    538     1   0.10969 276646.080000
    535    537     1   0.10969 276646.080000
    536    539     1   0.10961 277566.560000
    540    550     1   0.09730 310787.520000
    541    543     1   0.09730 310787.520000
    542    545     1   0.10969 276646.080000
    542    546     1   0.10969 276646.080000
    544    554     1   0.10190 328360.320000
    547    548     1   0.09730 310787.520000
    552    553     1   0.09730 310787.520000
    555    557     1   0.10969 276646.080000
    556    575     1   0.10969 276646.080000
    558    562     1   0.10969 276646.080000
    559    561     1   0.10969 276646.080000
    560    563     1   0.10961 277566.560000
    564    574     1   0.09730 310787.520000
    565    567     1   0.09730 310787.520000
    566    569     1   0.10969 276646.080000
    566    570     1   0.10969 276646.080000
    568    578     1   0.10190 328360.320000
    571    572     1   0.09730 310787.520000
    576    577     1   0.09730 310787.520000
    579    580     1   0.10129 337397.760000
    581    582     1   0.10969 276646.080000
    581    584     1   0.10969 276646.080000
    583    585     1   0.10969 276646.080000
    583    586     1   0.10969 276646.080000
    588    597     1   0.10969 276646.080000
    588    598     1   0.10969 276646.080000
    589    590     1   0.10969 276646.080000
    589    592     1   0.10969 276646.080000
    591    593     1   0.10969 276646.080000
    591    594     1   0.10969 276646.080000
    599    600     1   0.10969 276646.080000
    599    601     1   0.10969 276646.080000
    604    606     1   0.10969 276646.080000
    605    624     1   0.10969 276646.080000
    607    611     1   0.10969 276646.080000
    608    610     1   0.10969 276646.080000
    609    612     1   0.10961 277566.560000
    613    623     1   0.09730 310787.520000
    614    616     1   0.09730 310787.520000
    615    618     1   0.10969 276646.080000
    615    619     1   0.10969 276646.080000
    617    627     1   0.10190 328360.320000
    620    621     1   0.09730 310787.520000
    625    626     1   0.09730 310787.520000
    628    630     1   0.10969 276646.080000
    629    648     1   0.10969 276646.080000
    631    635     1   0.10969 276646.080000
    632    634     1   0.10969 276646.080000
    633    636     1   0.10961 277566.560000
    637    647     1   0.09730 310787.520000
    638    640     1   0.09730 310787.520000
    639    642     1   0.10969 276646.080000
    639    643     1   0.10969 276646.080000
    641    651     1   0.10190 328360.320000
    644    645     1   0.09730 310787.520000
    649    650     1   0.09730 310787.520000
    652    653     1   0.10129 337397.760000
    654    655     1   0.10969 276646.080000
    654    657     1   0.10969 276646.080000
    656    658     1   0.10969 276646.080000
    656    659     1   0.10969 276646.080000
    661    670     1   0.10969 276646.080000
    661    671     1   0.10969 276646.080000
    662    663     1   0.10969 276646.080000
    662    665     1   0.10969 276646.080000
    664    666     1   0.10969 276646.080000
    664    667     1   0.10969 276646.080000
    672    673     1   0.10969 276646.080000
    672    674     1   0.10969 276646.080000
    677    679     1   0.10969 276646.080000
    678    697     1   0.10969 276646.080000
    680    684     1   0.10969 276646.080000
    681    683     1   0.10969 276646.080000
    682    685     1   0.10961 277566.560000
    686    696     1   0.09730 310787.520000
    687    689     1   0.09730 310787.520000
    688    691     1   0.10969 276646.080000
    688    692     1   0.10969 276646.080000
    690    700     1   0.10190 328360.320000
    693    694     1   0.09730 310787.520000
    698    699     1   0.09730 310787.520000
    701    703     1   0.10969 276646.080000
    702    721     1   0.10969 276646.080000
    704    708     1   0.10969 276646.080000
    705    707     1   0.10969 276646.080000
    706    709     1   0.10961 277566.560000
    710    720     1   0.09730 310787.520000
    711    713     1   0.09730 310787.520000
    712    715     1   0.10969 276646.080000
    712    716     1   0.10969 276646.080000
    714    724     1   0.10190 328360.320000
    717    718     1   0.09730 310787.520000
    722    723     1   0.09730 310787.520000

[ pairs ]
;    ai     aj funct         c0         c1         c2         c3
      1     15     1
      1     18     1
      1     30     1
      1     27     1
      4      9     1
      4     12     1
      4     21     1
      4     24     1
      8      7     1
      7     35     1
      7     36     1
      8     34     1
      8     33     1
      9     27     1
      9     40     1
      9     89     1
     12     30     1
     12     37     1
     12     64     1
     15     24     1
     15     38     1
     15    114     1
     18     21     1
     18     39     1
     18    139     1
     21     94     1
     24    119     1
     27     44     1
     30     69     1
     33     41     1
     34     66     1
     35     91     1
     36    116     1
     37     44     1
     38     94     1
     39    119     1
     40     69     1
     41     57     1
     41     54     1
     44     48     1
     44     51     1
     47     64     1
     47     61     1
     47     60     1
     48     54     1
     48     63     1
     48    214     1
     51     57     1
     51    141     1
     51     62     1
     54    143     1
     57    216     1
     60    145     1
     61    218     1
     62    143     1
     63    216     1
     66     82     1
     66     79     1
     69     73     1
     69     76     1
     72     89     1
     72     86     1
     72     85     1
     73     79     1
     73     88     1
     73    360     1
     76     82     1
     76    287     1
     76     87     1
     79    289     1
     82    362     1
     85    291     1
     86    364     1
     87    289     1
     88    362     1
     91    107     1
     91    104     1
     94     98     1
     94    101     1
     97    114     1
     97    111     1
     97    110     1
     98    104     1
     98    113     1
     98    506     1
    101    107     1
    101    433     1
    101    112     1
    104    435     1
    107    508     1
    110    437     1
    111    510     1
    112    435     1
    113    508     1
    116    132     1
    116    129     1
    119    123     1
    119    126     1
    122    139     1
    122    136     1
    122    135     1
    123    129     1
    123    652     1
    123    138     1
    126    132     1
    126    579     1
    126    137     1
    129    581     1
    132    654     1
    135    583     1
    136    656     1
    137    581     1
    138    654     1
    141    149     1
    143    150     1
    143    151     1
    145    161     1
    145    153     1
    149    164     1
    149    157     1
    150    153     1
    150    165     1
    150    213     1
    151    161     1
    151    158     1
    151    189     1
    153    170     1
    157    169     1
    157    171     1
    158    170     1
    161    194     1
    164    193     1
    164    195     1
    165    194     1
    166    170     1
    166    176     1
    166    175     1
    167    182     1
    167    171     1
    167    189     1
    169    177     1
    169    184     1
    169    175     1
    170    187     1
    171    176     1
    171    177     1
    175    189     1
    176    187     1
    176    189     1
    177    187     1
    182    184     1
    184    187     1
    184    189     1
    190    194     1
    190    200     1
    190    199     1
    191    206     1
    191    195     1
    191    213     1
    193    201     1
    193    208     1
    193    199     1
    194    211     1
    195    200     1
    195    201     1
    199    213     1
    200    211     1
    200    213     1
    201    211     1
    206    208     1
    208    211     1
    208    213     1
    214    222     1
    216    223     1
    216    224     1
    218    234     1
    218    226     1
    222    237     1
    222    230     1
    223    238     1
    223    286     1
    223    226     1
    224    231     1
    224    262     1
    224    234     1
    226    243     1
    230    244     1
    230    242     1
    231    243     1
    234    267     1
    237    268     1
    237    266     1
    238    267     1
    239    243     1
    239    249     1
    239    248     1
    240    244     1
    240    262     1
    240    255     1
    242    248     1
    242    257     1
    242    250     1
    243    260     1
    244    250     1
    244    249     1
    248    262     1
    249    262     1
    249    260     1
    250    260     1
    255    257     1
    257    262     1
    257    260     1
    263    267     1
    263    273     1
    263    272     1
    264    268     1
    264    286     1
    264    279     1
    266    272     1
    266    281     1
    266    274     1
    267    284     1
    268    274     1
    268    273     1
    272    286     1
    273    286     1
    273    284     1
    274    284     1
    279    281     1
    281    286     1
    281    284     1
    287    295     1
    289    296     1
    289    297     1
    291    307     1
    291    299     1
    295    310     1
    295    303     1
    296    299     1
    296    311     1
    296    359     1
    297    307     1
    297    304     1
    297    335     1
    299    316     1
    303    315     1
    303    317     1
    304    316     1
    307    340     1
    310    339     1
    310    341     1
    311    340     1
    312    316     1
    312    322     1
    312    321     1
    313    328     1
    313    317     1
    313    335     1
    315    323     1
    315    330     1
    315    321     1
    316    333     1
    317    322     1
    317    323     1
    321    335     1
    322    333     1
    322    335     1
    323    333     1
    328    330     1
    330    333     1
    330    335     1
    336    340     1
    336    346     1
    336    345     1
    337    352     1
    337    341     1
    337    359     1
    339    347     1
    339    354     1
    339    345     1
    340    357     1
    341    346     1
    341    347     1
    345    359     1
    346    357     1
    346    359     1
    347    357     1
    352    354     1
    354    357     1
    354    359     1
    360    368     1
    362    369     1
    362    370     1
    364    380     1
    364    372     1
    368    383     1
    368    376     1
    369    384     1
    369    432     1
    369    372     1
    370    377     1
    370    408     1
    370    380     1
    372    389     1
    376    390     1
    376    388     1
    377    389     1
    380    413     1
    383    414     1
    383    412     1
    384    413     1
    385    389     1
    385    395     1
    385    394     1
    386    390     1
    386    408     1
    386    401     1
    388    394     1
    388    403     1
    388    396     1
    389    406     1
    390    396     1
    390    395     1
    394    408     1
    395    408     1
    395    406     1
    396    406     1
    401    403     1
    403    408     1
    403    406     1
    409    413     1
    409    419     1
    409    418     1
    410    414     1
    410    432     1
    410    425     1
    412    418     1
    412    427     1
    412    420     1
    413    430     1
    414    420     1
    414    419     1
    418    432     1
    419    432     1
    419    430     1
    420    430     1
    425    427     1
    427    432     1
    427    430     1
    433    441     1
    435    442     1
    435    443     1
    437    453     1
    437    445     1
    441    456     1
    441    449     1
    442    445     1
    442    457     1
    442    505     1
    443    453     1
    443    450     1
    443    481     1
    445    462     1
    449    461     1
    449    463     1
    450    462     1
    453    486     1
    456    485     1
    456    487     1
    457    486     1
    458    462     1
    458    468     1
    458    467     1
    459    474     1
    459    463     1
    459    481     1
    461    469     1
    461    476     1
    461    467     1
    462    479     1
    463    468     1
    463    469     1
    467    481     1
    468    479     1
    468    481     1
    469    479     1
    474    476     1
    476    479     1
    476    481     1
    482    486     1
    482    492     1
    482    491     1
    483    498     1
    483    487     1
    483    505     1
    485    493     1
    485    500     1
    485    491     1
    486    503     1
    487    492     1
    487    493     1
    491    505     1
    492    503     1
    492    505     1
    493    503     1
    498    500     1
    500    503     1
    500    505     1
    506    514     1
    508    515     1
    508    516     1
    510    526     1
    510    518     1
    514    529     1
    514    522     1
    515    530     1
    515    578     1
    515    518     1
    516    523     1
    516    554     1
    516    526     1
    518    535     1
    522    536     1
    522    534     1
    523    535     1
    526    559     1
    529    560     1
    529    558     1
    530    559     1
    531    535     1
    531    541     1
    531    540     1
    532    536     1
    532    554     1
    532    547     1
    534    540     1
    534    549     1
    534    542     1
    535    552     1
    536    542     1
    536    541     1
    540    554     1
    541    554     1
    541    552     1
    542    552     1
    547    549     1
    549    554     1
    549    552     1
    555    559     1
    555    565     1
    555    564     1
    556    560     1
    556    578     1
    556    571     1
    558    564     1
    558    573     1
    558    566     1
    559    576     1
    560    566     1
    560    565     1
    564    578     1
    565    578     1
    565    576     1
    566    576     1
    571    573     1
    573    578     1
    573    576     1
    579    587     1
    581    588     1
    581    589     1
    583    599     1
    583    591     1
    587    602     1
    587    595     1
    588    591     1
    588    603     1
    588    651     1
    589    599     1
    589    596     1
    589    627     1
    591    608     1
    595    607     1
    595    609     1
    596    608     1
    599    632     1
    602    631     1
    602    633     1
    603    632     1
    604    608     1
    604    614     1
    604    613     1
    605    620     1
    605    609     1
    605    627     1
    607    615     1
    607    622     1
    607    613     1
    608    625     1
    609    614     1
    609    615     1
    613    627     1
    614    625     1
    614    627     1
    615    625     1
    620    622     1
    622    625     1
    622    627     1
    628    632     1
    628    638     1
    628    637     1
    629    644     1
    629    633     1
    629    651     1
    631    639     1
    631    646     1
    631    637     1
    632    649     1
    633    638     1
    633    639     1
    637    651     1
    638    649     1
    638    651     1
    639    649     1
    644    646     1
    646    649     1
    646    651     1
    652    660     1
    654    661     1
    654    662     1
    656    672     1
    656    664     1
    660    675     1
    660    668     1
    661    676     1
    661    724     1
    661    664     1
    662    669     1
    662    700     1
    662    672     1
    664    681     1
    668    682     1
    668    680     1
    669    681     1
    672    705     1
    675    706     1
    675    704     1
    676    705     1
    677    681     1
    677    687     1
    677    686     1
    678    682     1
    678    700     1
    678    693     1
    680    686     1
    680    695     1
    680    688     1
    681    698     1
    682    688     1
    682    687     1
    686    700     1
    687    700     1
    687    698     1
    688    698     1
    693    695     1
    695    700     1
    695    698     1
    701    705     1
    701    711     1
    701    710     1
    702    706     1
    702    724     1
    702    717     1
    704    710     1
    704    719     1
    704    712     1
    705    722     1
    706    712     1
    706    711     1
    710    724     1
    711    724     1
    711    722     1
    712    722     1
    717    719     1
    719    724     1
    719    722     1
      1     10     1
      1     11     1
      1     13     1
      1     14     1
      2      7     1
      2      5     1
      2      6     1
      2      9     1
      2     12     1
      3      7     1
      3      5     1
      3      6     1
      3      9     1
      3     12     1
      4     16     1
      4     17     1
      4     19     1
      4     20     1
      8      5     1
      5     15     1
      5     18     1
      8      6     1
      6     15     1
      6     18     1
      7     22     1
      7     23     1
      7     25     1
      7     26     1
      8     31     1
      8     32     1
      8     28     1
      8     29     1
      9     13     1
      9     14     1
     10     12     1
     10     34     1
     10     31     1
     10     32     1
     11     12     1
     11     34     1
     11     31     1
     11     32     1
     13     33     1
     13     28     1
     13     29     1
     14     33     1
     14     28     1
     14     29     1
     15     19     1
     15     20     1
     16     18     1
     16     35     1
     16     22     1
     16     23     1
     17     18     1
     17     35     1
     17     22     1
     17     23     1
     19     36     1
     19     25     1
     19     26     1
     20     36     1
     20     25     1
     20     26     1
     21    115     1
     22     38     1
     22    114     1
     23     38     1
     23    114     1
     24    140     1
     25     39     1
     25    139     1
     26     39     1
     26    139     1
     27     65     1
     28     37     1
     28     64     1
     29     37     1
     29     64     1
     30     90     1
     31     40     1
     31     89     1
     32     40     1
     32     89     1
     33     45     1
     33     46     1
     34     70     1
     34     71     1
     35     95     1
     35     96     1
     36    120     1
     36    121     1
     37     65     1
     38    115     1
     39    140     1
     40     90     1
     41     65     1
     41     49     1
     41     50     1
     41     52     1
     41     53     1
     42     64     1
     42     45     1
     42     46     1
     42     48     1
     42     51     1
     43     64     1
     43     45     1
     43     46     1
     43     48     1
     43     51     1
     45     47     1
     45     65     1
     46     47     1
     46     65     1
     47     58     1
     47     59     1
     47     55     1
     47     56     1
     48     52     1
     48     53     1
     49     51     1
     49     61     1
     49     58     1
     49     59     1
     50     51     1
     50     61     1
     50     58     1
     50     59     1
     52     60     1
     52     55     1
     52     56     1
     53     60     1
     53     55     1
     53     56     1
     54    142     1
     55    141     1
     55     62     1
     56    141     1
     56     62     1
     57    215     1
     58     63     1
     58    214     1
     59     63     1
     59    214     1
     60    144     1
     60    146     1
     61    217     1
     61    219     1
     62    142     1
     63    215     1
     66     90     1
     66     74     1
     66     75     1
     66     77     1
     66     78     1
     67     89     1
     67     70     1
     67     71     1
     67     73     1
     67     76     1
     68     89     1
     68     70     1
     68     71     1
     68     73     1
     68     76     1
     70     72     1
     70     90     1
     71     72     1
     71     90     1
     72     83     1
     72     84     1
     72     80     1
     72     81     1
     73     77     1
     73     78     1
     74     76     1
     74     86     1
     74     83     1
     74     84     1
     75     76     1
     75     86     1
     75     83     1
     75     84     1
     77     85     1
     77     80     1
     77     81     1
     78     85     1
     78     80     1
     78     81     1
     79    288     1
     80    287     1
     80     87     1
     81    287     1
     81     87     1
     82    361     1
     83     88     1
     83    360     1
     84     88     1
     84    360     1
     85    290     1
     85    292     1
     86    363     1
     86    365     1
     87    288     1
     88    361     1
     91    115     1
     91     99     1
     91    100     1
     91    102     1
     91    103     1
     92    114     1
     92     95     1
     92     96     1
     92     98     1
     92    101     1
     93    114     1
     93     95     1
     93     96     1
     93     98     1
     93    101     1
     95     97     1
     95    115     1
     96     97     1
     96    115     1
     97    108     1
     97    109     1
     97    105     1
     97    106     1
     98    102     1
     98    103     1
     99    101     1
     99    111     1
     99    108     1
     99    109     1
    100    101     1
    100    111     1
    100    108     1
    100    109     1
    102    110     1
    102    105     1
    102    106     1
    103    110     1
    103    105     1
    103    106     1
    104    434     1
    105    433     1
    105    112     1
    106    433     1
    106    112     1
    107    507     1
    108    113     1
    108    506     1
    109    113     1
    109    506     1
    110    436     1
    110    438     1
    111    509     1
    111    511     1
    112    434     1
    113    507     1
    116    140     1
    116    124     1
    116    125     1
    116    127     1
    116    128     1
    117    139     1
    117    120     1
    117    121     1
    117    123     1
    117    126     1
    118    139     1
    118    120     1
    118    121     1
    118    123     1
    118    126     1
    120    122     1
    120    140     1
    121    122     1
    121    140     1
    122    133     1
    122    134     1
    122    130     1
    122    131     1
    123    127     1
    123    128     1
    124    126     1
    124    136     1
    124    133     1
    124    134     1
    125    126     1
    125    136     1
    125    133     1
    125    134     1
    127    135     1
    127    130     1
    127    131     1
    128    135     1
    128    130     1
    128    131     1
    129    580     1
    130    579     1
    130    137     1
    131    579     1
    131    137     1
    132    653     1
    133    652     1
    133    138     1
    134    652     1
    134    138     1
    135    582     1
    135    584     1
    136    655     1
    136    657     1
    137    580     1
    138    653     1
    141    147     1
    141    148     1
    142    145     1
    142    144     1
    142    146     1
    144    149     1
    144    147     1
    144    148     1
    145    159     1
    145    160     1
    145    152     1
    145    154     1
    146    149     1
    146    147     1
    146    148     1
    147    150     1
    147    151     1
    148    150     1
    148    151     1
    149    162     1
    149    163     1
    149    155     1
    149    156     1
    150    152     1
    150    154     1
    151    159     1
    151    160     1
    152    157     1
    152    155     1
    152    156     1
    153    179     1
    154    157     1
    154    155     1
    154    156     1
    155    158     1
    155    189     1
    156    158     1
    156    189     1
    157    172     1
    158    179     1
    159    164     1
    159    162     1
    159    163     1
    160    164     1
    160    162     1
    160    163     1
    161    203     1
    162    165     1
    162    213     1
    163    165     1
    163    213     1
    164    196     1
    165    203     1
    166    173     1
    166    188     1
    166    183     1
    166    174     1
    167    180     1
    167    181     1
    167    172     1
    167    178     1
    168    169     1
    168    187     1
    168    186     1
    168    182     1
    168    180     1
    168    181     1
    168    171     1
    169    188     1
    169    174     1
    169    179     1
    170    186     1
    170    178     1
    170    185     1
    171    173     1
    171    179     1
    172    176     1
    172    173     1
    172    175     1
    172    184     1
    172    174     1
    172    179     1
    173    187     1
    173    186     1
    173    189     1
    173    178     1
    174    189     1
    174    185     1
    176    186     1
    177    186     1
    180    184     1
    180    183     1
    181    184     1
    181    183     1
    184    186     1
    184    185     1
    186    188     1
    190    197     1
    190    212     1
    190    207     1
    190    198     1
    191    204     1
    191    205     1
    191    196     1
    191    202     1
    192    193     1
    192    211     1
    192    210     1
    192    206     1
    192    204     1
    192    205     1
    192    195     1
    193    212     1
    193    198     1
    193    203     1
    194    210     1
    194    202     1
    194    209     1
    195    197     1
    195    203     1
    196    200     1
    196    197     1
    196    199     1
    196    208     1
    196    198     1
    196    203     1
    197    211     1
    197    210     1
    197    213     1
    197    202     1
    198    213     1
    198    209     1
    200    210     1
    201    210     1
    204    208     1
    204    207     1
    205    208     1
    205    207     1
    208    210     1
    208    209     1
    210    212     1
    214    220     1
    214    221     1
    215    218     1
    215    217     1
    215    219     1
    217    222     1
    217    220     1
    217    221     1
    218    232     1
    218    233     1
    218    225     1
    218    227     1
    219    222     1
    219    220     1
    219    221     1
    220    223     1
    220    224     1
    221    223     1
    221    224     1
    222    235     1
    222    236     1
    222    228     1
    222    229     1
    223    225     1
    223    227     1
    224    232     1
    224    233     1
    225    230     1
    225    228     1
    225    229     1
    226    252     1
    227    230     1
    227    228     1
    227    229     1
    228    231     1
    228    262     1
    229    231     1
    229    262     1
    230    245     1
    231    252     1
    232    237     1
    232    235     1
    232    236     1
    233    237     1
    233    235     1
    233    236     1
    234    276     1
    235    238     1
    235    286     1
    236    238     1
    236    286     1
    237    269     1
    238    276     1
    239    246     1
    239    261     1
    239    256     1
    239    247     1
    240    245     1
    240    251     1
    240    253     1
    240    254     1
    241    242     1
    241    260     1
    241    259     1
    241    255     1
    241    253     1
    241    254     1
    241    244     1
    242    247     1
    242    252     1
    242    261     1
    243    258     1
    243    251     1
    243    259     1
    244    252     1
    244    246     1
    245    248     1
    245    257     1
    245    247     1
    245    252     1
    245    249     1
    245    246     1
    246    262     1
    246    251     1
    246    260     1
    246    259     1
    247    258     1
    247    262     1
    249    259     1
    250    259     1
    253    256     1
    253    257     1
    254    256     1
    254    257     1
    257    258     1
    257    259     1
    259    261     1
    263    270     1
    263    285     1
    263    280     1
    263    271     1
    264    269     1
    264    275     1
    264    277     1
    264    278     1
    265    266     1
    265    284     1
    265    283     1
    265    279     1
    265    277     1
    265    278     1
    265    268     1
    266    271     1
    266    276     1
    266    285     1
    267    282     1
    267    275     1
    267    283     1
    268    276     1
    268    270     1
    269    272     1
    269    281     1
    269    271     1
    269    276     1
    269    273     1
    269    270     1
    270    286     1
    270    275     1
    270    284     1
    270    283     1
    271    282     1
    271    286     1
    273    283     1
    274    283     1
    277    280     1
    277    281     1
    278    280     1
    278    281     1
    281    282     1
    281    283     1
    283    285     1
    287    293     1
    287    294     1
    288    291     1
    288    290     1
    288    292     1
    290    295     1
    290    293     1
    290    294     1
    291    305     1
    291    306     1
    291    298     1
    291    300     1
    292    295     1
    292    293     1
    292    294     1
    293    296     1
    293    297     1
    294    296     1
    294    297     1
    295    308     1
    295    309     1
    295    301     1
    295    302     1
    296    298     1
    296    300     1
    297    305     1
    297    306     1
    298    303     1
    298    301     1
    298    302     1
    299    325     1
    300    303     1
    300    301     1
    300    302     1
    301    304     1
    301    335     1
    302    304     1
    302    335     1
    303    318     1
    304    325     1
    305    310     1
    305    308     1
    305    309     1
    306    310     1
    306    308     1
    306    309     1
    307    349     1
    308    311     1
    308    359     1
    309    311     1
    309    359     1
    310    342     1
    311    349     1
    312    319     1
    312    334     1
    312    329     1
    312    320     1
    313    326     1
    313    327     1
    313    318     1
    313    324     1
    314    315     1
    314    333     1
    314    332     1
    314    328     1
    314    326     1
    314    327     1
    314    317     1
    315    334     1
    315    320     1
    315    325     1
    316    332     1
    316    324     1
    316    331     1
    317    319     1
    317    325     1
    318    322     1
    318    319     1
    318    321     1
    318    330     1
    318    320     1
    318    325     1
    319    333     1
    319    332     1
    319    335     1
    319    324     1
    320    335     1
    320    331     1
    322    332     1
    323    332     1
    326    330     1
    326    329     1
    327    330     1
    327    329     1
    330    332     1
    330    331     1
    332    334     1
    336    343     1
    336    358     1
    336    353     1
    336    344     1
    337    350     1
    337    351     1
    337    342     1
    337    348     1
    338    339     1
    338    357     1
    338    356     1
    338    352     1
    338    350     1
    338    351     1
    338    341     1
    339    358     1
    339    344     1
    339    349     1
    340    356     1
    340    348     1
    340    355     1
    341    343     1
    341    349     1
    342    346     1
    342    343     1
    342    345     1
    342    354     1
    342    344     1
    342    349     1
    343    357     1
    343    356     1
    343    359     1
    343    348     1
    344    359     1
    344    355     1
    346    356     1
    347    356     1
    350    354     1
    350    353     1
    351    354     1
    351    353     1
    354    356     1
    354    355     1
    356    358     1
    360    366     1
    360    367     1
    361    364     1
    361    363     1
    361    365     1
    363    368     1
    363    366     1
    363    367     1
    364    378     1
    364    379     1
    364    371     1
    364    373     1
    365    368     1
    365    366     1
    365    367     1
    366    369     1
    366    370     1
    367    369     1
    367    370     1
    368    381     1
    368    382     1
    368    374     1
    368    375     1
    369    371     1
    369    373     1
    370    378     1
    370    379     1
    371    376     1
    371    374     1
    371    375     1
    372    398     1
    373    376     1
    373    374     1
    373    375     1
    374    377     1
    374    408     1
    375    377     1
    375    408     1
    376    391     1
    377    398     1
    378    383     1
    378    381     1
    378    382     1
    379    383     1
    379    381     1
    379    382     1
    380    422     1
    381    384     1
    381    432     1
    382    384     1
    382    432     1
    383    415     1
    384    422     1
    385    392     1
    385    407     1
    385    402     1
    385    393     1
    386    391     1
    386    397     1
    386    399     1
    386    400     1
    387    388     1
    387    406     1
    387    405     1
    387    401     1
    387    399     1
    387    400     1
    387    390     1
    388    393     1
    388    398     1
    388    407     1
    389    404     1
    389    397     1
    389    405     1
    390    398     1
    390    392     1
    391    394     1
    391    403     1
    391    393     1
    391    398     1
    391    395     1
    391    392     1
    392    408     1
    392    397     1
    392    406     1
    392    405     1
    393    404     1
    393    408     1
    395    405     1
    396    405     1
    399    402     1
    399    403     1
    400    402     1
    400    403     1
    403    404     1
    403    405     1
    405    407     1
    409    416     1
    409    431     1
    409    426     1
    409    417     1
    410    415     1
    410    421     1
    410    423     1
    410    424     1
    411    412     1
    411    430     1
    411    429     1
    411    425     1
    411    423     1
    411    424     1
    411    414     1
    412    417     1
    412    422     1
    412    431     1
    413    428     1
    413    421     1
    413    429     1
    414    422     1
    414    416     1
    415    418     1
    415    427     1
    415    417     1
    415    422     1
    415    419     1
    415    416     1
    416    432     1
    416    421     1
    416    430     1
    416    429     1
    417    428     1
    417    432     1
    419    429     1
    420    429     1
    423    426     1
    423    427     1
    424    426     1
    424    427     1
    427    428     1
    427    429     1
    429    431     1
    433    439     1
    433    440     1
    434    437     1
    434    436     1
    434    438     1
    436    441     1
    436    439     1
    436    440     1
    437    451     1
    437    452     1
    437    444     1
    437    446     1
    438    441     1
    438    439     1
    438    440     1
    439    442     1
    439    443     1
    440    442     1
    440    443     1
    441    454     1
    441    455     1
    441    447     1
    441    448     1
    442    444     1
    442    446     1
    443    451     1
    443    452     1
    444    449     1
    444    447     1
    444    448     1
    445    471     1
    446    449     1
    446    447     1
    446    448     1
    447    450     1
    447    481     1
    448    450     1
    448    481     1
    449    464     1
    450    471     1
    451    456     1
    451    454     1
    451    455     1
    452    456     1
    452    454     1
    452    455     1
    453    495     1
    454    457     1
    454    505     1
    455    457     1
    455    505     1
    456    488     1
    457    495     1
    458    465     1
    458    480     1
    458    475     1
    458    466     1
    459    472     1
    459    473     1
    459    464     1
    459    470     1
    460    461     1
    460    479     1
    460    478     1
    460    474     1
    460    472     1
    460    473     1
    460    463     1
    461    480     1
    461    466     1
    461    471     1
    462    478     1
    462    470     1
    462    477     1
    463    465     1
    463    471     1
    464    468     1
    464    465     1
    464    467     1
    464    476     1
    464    466     1
    464    471     1
    465    479     1
    465    478     1
    465    481     1
    465    470     1
    466    481     1
    466    477     1
    468    478     1
    469    478     1
    472    476     1
    472    475     1
    473    476     1
    473    475     1
    476    478     1
    476    477     1
    478    480     1
    482    489     1
    482    504     1
    482    499     1
    482    490     1
    483    496     1
    483    497     1
    483    488     1
    483    494     1
    484    485     1
    484    503     1
    484    502     1
    484    498     1
    484    496     1
    484    497     1
    484    487     1
    485    504     1
    485    490     1
    485    495     1
    486    502     1
    486    494     1
    486    501     1
    487    489     1
    487    495     1
    488    492     1
    488    489     1
    488    491     1
    488    500     1
    488    490     1
    488    495     1
    489    503     1
    489    502     1
    489    505     1
    489    494     1
    490    505     1
    490    501     1
    492    502     1
    493    502     1
    496    500     1
    496    499     1
    497    500     1
    497    499     1
    500    502     1
    500    501     1
    502    504     1
    506    512     1
    506    513     1
    507    510     1
    507    509     1
    507    511     1
    509    514     1
    509    512     1
    509    513     1
    510    524     1
    510    525     1
    510    517     1
    510    519     1
    511    514     1
    511    512     1
    511    513     1
    512    515     1
    512    516     1
    513    515     1
    513    516     1
    514    527     1
    514    528     1
    514    520     1
    514    521     1
    515    517     1
    515    519     1
    516    524     1
    516    525     1
    517    522     1
    517    520     1
    517    521     1
    518    544     1
    519    522     1
    519    520     1
    519    521     1
    520    523     1
    520    554     1
    521    523     1
    521    554     1
    522    537     1
    523    544     1
    524    529     1
    524    527     1
    524    528     1
    525    529     1
    525    527     1
    525    528     1
    526    568     1
    527    530     1
    527    578     1
    528    530     1
    528    578     1
    529    561     1
    530    568     1
    531    538     1
    531    553     1
    531    548     1
    531    539     1
    532    537     1
    532    543     1
    532    545     1
    532    546     1
    533    534     1
    533    552     1
    533    551     1
    533    547     1
    533    545     1
    533    546     1
    533    536     1
    534    539     1
    534    544     1
    534    553     1
    535    550     1
    535    543     1
    535    551     1
    536    544     1
    536    538     1
    537    540     1
    537    549     1
    537    539     1
    537    544     1
    537    541     1
    537    538     1
    538    554     1
    538    543     1
    538    552     1
    538    551     1
    539    550     1
    539    554     1
    541    551     1
    542    551     1
    545    548     1
    545    549     1
    546    548     1
    546    549     1
    549    550     1
    549    551     1
    551    553     1
    555    562     1
    555    577     1
    555    572     1
    555    563     1
    556    561     1
    556    567     1
    556    569     1
    556    570     1
    557    558     1
    557    576     1
    557    575     1
    557    571     1
    557    569     1
    557    570     1
    557    560     1
    558    563     1
    558    568     1
    558    577     1
    559    574     1
    559    567     1
    559    575     1
    560    568     1
    560    562     1
    561    564     1
    561    573     1
    561    563     1
    561    568     1
    561    565     1
    561    562     1
    562    578     1
    562    567     1
    562    576     1
    562    575     1
    563    574     1
    563    578     1
    565    575     1
    566    575     1
    569    572     1
    569    573     1
    570    572     1
    570    573     1
    573    574     1
    573    575     1
    575    577     1
    579    585     1
    579    586     1
    580    583     1
    580    582     1
    580    584     1
    582    587     1
    582    585     1
    582    586     1
    583    597     1
    583    598     1
    583    590     1
    583    592     1
    584    587     1
    584    585     1
    584    586     1
    585    588     1
    585    589     1
    586    588     1
    586    589     1
    587    600     1
    587    601     1
    587    593     1
    587    594     1
    588    590     1
    588    592     1
    589    597     1
    589    598     1
    590    595     1
    590    593     1
    590    594     1
    591    617     1
    592    595     1
    592    593     1
    592    594     1
    593    596     1
    593    627     1
    594    596     1
    594    627     1
    595    610     1
    596    617     1
    597    602     1
    597    600     1
    597    601     1
    598    602     1
    598    600     1
    598    601     1
    599    641     1
    600    603     1
    600    651     1
    601    603     1
    601    651     1
    602    634     1
    603    641     1
    604    611     1
    604    626     1
    604    621     1
    604    612     1
    605    618     1
    605    619     1
    605    610     1
    605    616     1
    606    607     1
    606    625     1
    606    624     1
    606    620     1
    606    618     1
    606    619     1
    606    609     1
    607    626     1
    607    612     1
    607    617     1
    608    624     1
    608    616     1
    608    623     1
    609    611     1
    609    617     1
    610    614     1
    610    611     1
    610    613     1
    610    622     1
    610    612     1
    610    617     1
    611    625     1
    611    624     1
    611    627     1
    611    616     1
    612    627     1
    612    623     1
    614    624     1
    615    624     1
    618    622     1
    618    621     1
    619    622     1
    619    621     1
    622    624     1
    622    623     1
    624    626     1
    628    635     1
    628    650     1
    628    645     1
    628    636     1
    629    642     1
    629    643     1
    629    634     1
    629    640     1
    630    631     1
    630    649     1
    630    648     1
    630    644     1
    630    642     1
    630    643     1
    630    633     1
    631    650     1
    631    636     1
    631    641     1
    632    648     1
    632    640     1
    632    647     1
    633    635     1
    633    641     1
    634    638     1
    634    635     1
    634    637     1
    634    646     1
    634    636     1
    634    641     1
    635    649     1
    635    648     1
    635    651     1
    635    640     1
    636    651     1
    636    647     1
    638    648     1
    639    648     1
    642    646     1
    642    645     1
    643    646     1
    643    645     1
    646    648     1
    646    647     1
    648    650     1
    652    658     1
    652    659     1
    653    656     1
    653    655     1
    653    657     1
    655    660     1
    655    658     1
    655    659     1
    656    670     1
    656    671     1
    656    663     1
    656    665     1
    657    660     1
    657    658     1
    657    659     1
    658    661     1
    658    662     1
    659    661     1
    659    662     1
    660    673     1
    660    674     1
    660    666     1
    660    667     1
    661    663     1
    661    665     1
    662    670     1
    662    671     1
    663    668     1
    663    666     1
    663    667     1
    664    690     1
    665    668     1
    665    666     1
    665    667     1
    666    669     1
    666    700     1
    667    669     1
    667    700     1
    668    683     1
    669    690     1
    670    675     1
    670    673     1
    670    674     1
    671    675     1
    671    673     1
    671    674     1
    672    714     1
    673    676     1
    673    724     1
    674    676     1
    674    724     1
    675    707     1
    676    714     1
    677    684     1
    677    699     1
    677    694     1
    677    685     1
    678    683     1
    678    689     1
    678    691     1
    678    692     1
    679    680     1
    679    698     1
    679    697     1
    679    693     1
    679    691     1
    679    692     1
    679    682     1
    680    685     1
    680    690     1
    680    699     1
    681    696     1
    681    689     1
    681    697     1
    682    690     1
    682    684     1
    683    686     1
    683    695     1
    683    685     1
    683    690     1
    683    687     1
    683    684     1
    684    700     1
    684    689     1
    684    698     1
    684    697     1
    685    696     1
    685    700     1
    687    697     1
    688    697     1
    691    694     1
    691    695     1
    692    694     1
    692    695     1
    695    696     1
    695    697     1
    697    699     1
    701    708     1
    701    723     1
    701    718     1
    701    709     1
    702    707     1
    702    713     1
    702    715     1
    702    716     1
    703    704     1
    703    722     1
    703    721     1
    703    717     1
    703    715     1
    703    716     1
    703    706     1
    704    709     1
    704    714     1
    704    723     1
    705    720     1
    705    713     1
    705    721     1
    706    714     1
    706    708     1
    707    710     1
    707    719     1
    707    709     1
    707    714     1
    707    711     1
    707    708     1
    708    724     1
    708    713     1
    708    722     1
    708    721     1
    709    720     1
    709    724     1
    711    721     1
    712    721     1
    715    718     1
    715    719     1
    716    718     1
    716    719     1
    719    720     1
    719    721     1
    721    723     1

[ angles ]
;    ai     aj     ak funct         c0         c1         c2         c3
      1      4      7     1   111.0400475 552.288000
      1      8      9     1   112.3500484 533.878400
      1      8     12     1   112.3500484 533.878400
      4      1      8     1   111.0400475 552.288000
      4      7     15     1   112.3500484 533.878400
      4      7     18     1   112.3500484 533.878400
      7     15     21     1   111.0400475 552.288000
      7     18     24     1   111.0400475 552.288000
      8      9     30     1   111.0400475 552.288000
      8     12     27     1   111.0400475 552.288000
      9      8     12     1   112.3500484 533.878400
      9     30     34     1   111.0400475 529.694400
     12     27     33     1   111.0400475 529.694400
     15      7     18     1   112.3500484 533.878400
     15     21     35     1   111.0400475 529.694400
     18     24     36     1   111.0400475 529.694400
     21     35     38     1   123.2000528 564.003200
     21     35    114     1   115.1800491 558.982400
     24     36     39     1   123.2000528 564.003200
     24     36    139     1   115.1800491 558.982400
     27     33     37     1   123.2000528 564.003200
     27     33     64     1   115.1800491 558.982400
     30     34     40     1   123.2000528 564.003200
     30     34     89     1   115.1800491 558.982400
     33     64     44     1   120.6900519 530.531200
     34     89     69     1   120.6900519 530.531200
     35    114     94     1   120.6900519 530.531200
     36    139    119     1   120.6900519 530.531200
     37     33     64     1   123.0500530 620.905600
     38     35    114     1   123.0500530 620.905600
     39     36    139     1   123.0500530 620.905600
     40     34     89     1   123.0500530 620.905600
     41     44     64     1   111.6100477 551.451200
     41     47     48     1   112.3500484 533.878400
     41     47     51     1   112.3500484 533.878400
     44     41     47     1   111.0400475 552.288000
     47     48     57     1   111.0400475 552.288000
     47     51     54     1   111.0400475 552.288000
     48     47     51     1   112.3500484 533.878400
     48     57     61     1   111.0400475 529.694400
     51     54     60     1   111.0400475 529.694400
     54     60    141     1   115.1800491 558.982400
     54     60     62     1   123.2000528 564.003200
     57     61     63     1   123.2000528 564.003200
     57     61    214     1   115.1800491 558.982400
     60    141    143     1   120.6900519 530.531200
     61    214    216     1   120.6900519 530.531200
     62     60    141     1   123.0500530 620.905600
     63     61    214     1   123.0500530 620.905600
     66     69     89     1   111.6100477 551.451200
     66     72     73     1   112.3500484 533.878400
     66     72     76     1   112.3500484 533.878400
     69     66     72     1   111.0400475 552.288000
     72     73     82     1   111.0400475 552.288000
     72     76     79     1   111.0400475 552.288000
     73     72     76     1   112.3500484 533.878400
     73     82     86     1   111.0400475 529.694400
     76     79     85     1   111.0400475 529.694400
     79     85    287     1   115.1800491 558.982400
     79     85     87     1   123.2000528 564.003200
     82     86     88     1   123.2000528 564.003200
     82     86    360     1   115.1800491 558.982400
     85    287    289     1   120.6900519 530.531200
     86    360    362     1   120.6900519 530.531200
     87     85    287     1   123.0500530 620.905600
     88     86    360     1   123.0500530 620.905600
     91     94    114     1   111.6100477 551.451200
     91     97     98     1   112.3500484 533.878400
     91     97    101     1   112.3500484 533.878400
     94     91     97     1   111.0400475 552.288000
     97     98    107     1   111.0400475 552.288000
     97    101    104     1   111.0400475 552.288000
     98     97    101     1   112.3500484 533.878400
     98    107    111     1   111.0400475 529.694400
    101    104    110     1   111.0400475 529.694400
    104    110    433     1   115.1800491 558.982400
    104    110    112     1   123.2000528 564.003200
    107    111    113     1   123.2000528 564.003200
    107    111    506     1   115.1800491 558.982400
    110    433    435     1   120.6900519 530.531200
    111    506    508     1   120.6900519 530.531200
    112    110    433     1   123.0500530 620.905600
    113    111    506     1   123.0500530 620.905600
    116    119    139     1   111.6100477 551.451200
    116    122    123     1   112.3500484 533.878400
    116    122    126     1   112.3500484 533.878400
    119    116    122     1   111.0400475 552.288000
    122    123    132     1   111.0400475 552.288000
    122    126    129     1   111.0400475 552.288000
    123    122    126     1   112.3500484 533.878400
    123    132    136     1   111.0400475 529.694400
    126    129    135     1   111.0400475 529.694400
    129    135    579     1   115.1800491 558.982400
    129    135    137     1   123.2000528 564.003200
    132    136    652     1   115.1800491 558.982400
    132    136    138     1   123.2000528 564.003200
    135    579    581     1   120.6900519 530.531200
    136    652    654     1   120.6900519 530.531200
    137    135    579     1   123.0500530 620.905600
    138    136    652     1   123.0500530 620.905600
    141    143    145     1   111.6100477 551.451200
    143    145    149     1   111.0400475 552.288000
    145    149    150     1   112.3500484 533.878400
    145    149    151     1   112.3500484 533.878400
    149    150    161     1   111.0400475 552.288000
    149    151    153     1   111.0400475 552.288000
    150    149    151     1   112.3500484 533.878400
    150    161    164     1   111.0400475 529.694400
    151    153    157     1   111.0400475 529.694400
    153    157    158     1   123.2000528 564.003200
    153    157    189     1   112.2600482 538.062400
    157    189    170     1   118.5150508 540.957728
    158    157    189     1   118.8300510 581.576000
    161    164    165     1   123.2000528 564.003200
    161    164    213     1   112.2600482 538.062400
    164    213    194     1   118.5150508 540.957728
    165    164    213     1   118.8300510 581.576000
    166    167    169     1   111.5100476 526.347200
    166    167    187     1   110.1900474 564.840000
    166    177    182     1   110.1900474 564.840000
    166    184    171     1   112.4800480 524.673600
    167    166    177     1   111.5100476 526.347200
    167    166    184     1   107.9700462 569.024000
    167    169    170     1   111.5100476 526.347200
    167    169    176     1   110.1900474 564.840000
    169    167    187     1   110.1900474 564.840000
    169    170    171     1   111.5100476 526.347200
    169    170    189     1   111.0400475 552.288000
    170    169    176     1   110.1900474 564.840000
    170    171    175     1   110.1900474 564.840000
    170    171    184     1   107.9700462 569.024000
    171    170    189     1   111.0400475 552.288000
    175    171    184     1   109.3800466 607.516800
    177    166    184     1   107.9700462 569.024000
    190    191    193     1   111.5100476 526.347200
    190    191    211     1   110.1900474 564.840000
    190    201    206     1   110.1900474 564.840000
    190    208    195     1   112.4800480 524.673600
    191    190    201     1   111.5100476 526.347200
    191    190    208     1   107.9700462 569.024000
    191    193    194     1   111.5100476 526.347200
    191    193    200     1   110.1900474 564.840000
    193    191    211     1   110.1900474 564.840000
    193    194    195     1   111.5100476 526.347200
    193    194    213     1   111.0400475 552.288000
    194    193    200     1   110.1900474 564.840000
    194    195    199     1   110.1900474 564.840000
    194    195    208     1   107.9700462 569.024000
    195    194    213     1   111.0400475 552.288000
    199    195    208     1   109.3800466 607.516800
    201    190    208     1   107.9700462 569.024000
    214    216    218     1   111.6100477 551.451200
    216    218    222     1   111.0400475 552.288000
    218    222    223     1   112.3500484 533.878400
    218    222    224     1   112.3500484 533.878400
    222    223    234     1   111.0400475 552.288000
    222    224    226     1   111.0400475 552.288000
    223    234    237     1   111.0400475 529.694400
    223    222    224     1   112.3500484 533.878400
    224    226    230     1   111.0400475 529.694400
    226    230    231     1   123.2000528 564.003200
    226    230    262     1   112.2600482 538.062400
    230    262    243     1   118.5150508 540.957728
    231    230    262     1   118.8300510 581.576000
    234    237    238     1   123.2000528 564.003200
    234    237    286     1   112.2600482 538.062400
    237    286    267     1   118.5150508 540.957728
    238    237    286     1   118.8300510 581.576000
    239    240    242     1   111.5100476 526.347200
    239    240    260     1   110.1900474 564.840000
    239    250    255     1   110.1900474 564.840000
    239    257    244     1   112.4800480 524.673600
    240    242    243     1   111.5100476 526.347200
    240    242    249     1   110.1900474 564.840000
    240    239    250     1   111.5100476 526.347200
    240    239    257     1   107.9700462 569.024000
    242    243    244     1   111.5100476 526.347200
    242    243    262     1   111.0400475 552.288000
    242    240    260     1   110.1900474 564.840000
    243    244    248     1   110.1900474 564.840000
    243    244    257     1   107.9700462 569.024000
    243    242    249     1   110.1900474 564.840000
    244    243    262     1   111.0400475 552.288000
    248    244    257     1   109.3800466 607.516800
    250    239    257     1   107.9700462 569.024000
    263    264    266     1   111.5100476 526.347200
    263    264    284     1   110.1900474 564.840000
    263    274    279     1   110.1900474 564.840000
    263    281    268     1   112.4800480 524.673600
    264    266    267     1   111.5100476 526.347200
    264    266    273     1   110.1900474 564.840000
    264    263    274     1   111.5100476 526.347200
    264    263    281     1   107.9700462 569.024000
    266    267    268     1   111.5100476 526.347200
    266    267    286     1   111.0400475 552.288000
    266    264    284     1   110.1900474 564.840000
    267    268    272     1   110.1900474 564.840000
    267    268    281     1   107.9700462 569.024000
    267    266    273     1   110.1900474 564.840000
    268    267    286     1   111.0400475 552.288000
    272    268    281     1   109.3800466 607.516800
    274    263    281     1   107.9700462 569.024000
    287    289    291     1   111.6100477 551.451200
    289    291    295     1   111.0400475 552.288000
    291    295    296     1   112.3500484 533.878400
    291    295    297     1   112.3500484 533.878400
    295    296    307     1   111.0400475 552.288000
    295    297    299     1   111.0400475 552.288000
    296    295    297     1   112.3500484 533.878400
    296    307    310     1   111.0400475 529.694400
    297    299    303     1   111.0400475 529.694400
    299    303    304     1   123.2000528 564.003200
    299    303    335     1   112.2600482 538.062400
    303    335    316     1   118.5150508 540.957728
    304    303    335     1   118.8300510 581.576000
    307    310    311     1   123.2000528 564.003200
    307    310    359     1   112.2600482 538.062400
    310    359    340     1   118.5150508 540.957728
    311    310    359     1   118.8300510 581.576000
    312    313    315     1   111.5100476 526.347200
    312    313    333     1   110.1900474 564.840000
    312    323    328     1   110.1900474 564.840000
    312    330    317     1   112.4800480 524.673600
    313    312    323     1   111.5100476 526.347200
    313    312    330     1   107.9700462 569.024000
    313    315    316     1   111.5100476 526.347200
    313    315    322     1   110.1900474 564.840000
    315    313    333     1   110.1900474 564.840000
    315    316    317     1   111.5100476 526.347200
    315    316    335     1   111.0400475 552.288000
    316    315    322     1   110.1900474 564.840000
    316    317    321     1   110.1900474 564.840000
    316    317    330     1   107.9700462 569.024000
    317    316    335     1   111.0400475 552.288000
    321    317    330     1   109.3800466 607.516800
    323    312    330     1   107.9700462 569.024000
    336    337    339     1   111.5100476 526.347200
    336    337    357     1   110.1900474 564.840000
    336    347    352     1   110.1900474 564.840000
    336    354    341     1   112.4800480 524.673600
    337    336    347     1   111.5100476 526.347200
    337    336    354     1   107.9700462 569.024000
    337    339    340     1   111.5100476 526.347200
    337    339    346     1   110.1900474 564.840000
    339    337    357     1   110.1900474 564.840000
    339    340    341     1   111.5100476 526.347200
    339    340    359     1   111.0400475 552.288000
    340    339    346     1   110.1900474 564.840000
    340    341    345     1   110.1900474 564.840000
    340    341    354     1   107.9700462 569.024000
    341    340    359     1   111.0400475 552.288000
    345    341    354     1   109.3800466 607.516800
    347    336    354     1   107.9700462 569.024000
    360    362    364     1   111.6100477 551.451200
    362    364    368     1   111.0400475 552.288000
    364    368    369     1   112.3500484 533.878400
    364    368    370     1   112.3500484 533.878400
    368    369    380     1   111.0400475 552.288000
    368    370    372     1   111.0400475 552.288000
    369    380    383     1   111.0400475 529.694400
    369    368    370     1   112.3500484 533.878400
    370    372    376     1   111.0400475 529.694400
    372    376    377     1   123.2000528 564.003200
    372    376    408     1   112.2600482 538.062400
    376    408    389     1   118.5150508 540.957728
    377    376    408     1   118.8300510 581.576000
    380    383    384     1   123.2000528 564.003200
    380    383    432     1   112.2600482 538.062400
    383    432    413     1   118.5150508 540.957728
    384    383    432     1   118.8300510 581.576000
    385    386    388     1   111.5100476 526.347200
    385    386    406     1   110.1900474 564.840000
    385    396    401     1   110.1900474 564.840000
    385    403    390     1   112.4800480 524.673600
    386    388    389     1   111.5100476 526.347200
    386    388    395     1   110.1900474 564.840000
    386    385    396     1   111.5100476 526.347200
    386    385    403     1   107.9700462 569.024000
    388    389    390     1   111.5100476 526.347200
    388    389    408     1   111.0400475 552.288000
    388    386    406     1   110.1900474 564.840000
    389    390    394     1   110.1900474 564.840000
    389    390    403     1   107.9700462 569.024000
    389    388    395     1   110.1900474 564.840000
    390    389    408     1   111.0400475 552.288000
    394    390    403     1   109.3800466 607.516800
    396    385    403     1   107.9700462 569.024000
    409    410    412     1   111.5100476 526.347200
    409    410    430     1   110.1900474 564.840000
    409    420    425     1   110.1900474 564.840000
    409    427    414     1   112.4800480 524.673600
    410    412    413     1   111.5100476 526.347200
    410    412    419     1   110.1900474 564.840000
    410    409    420     1   111.5100476 526.347200
    410    409    427     1   107.9700462 569.024000
    412    413    414     1   111.5100476 526.347200
    412    413    432     1   111.0400475 552.288000
    412    410    430     1   110.1900474 564.840000
    413    414    418     1   110.1900474 564.840000
    413    414    427     1   107.9700462 569.024000
    413    412    419     1   110.1900474 564.840000
    414    413    432     1   111.0400475 552.288000
    418    414    427     1   109.3800466 607.516800
    420    409    427     1   107.9700462 569.024000
    433    435    437     1   111.6100477 551.451200
    435    437    441     1   111.0400475 552.288000
    437    441    442     1   112.3500484 533.878400
    437    441    443     1   112.3500484 533.878400
    441    442    453     1   111.0400475 552.288000
    441    443    445     1   111.0400475 552.288000
    442    441    443     1   112.3500484 533.878400
    442    453    456     1   111.0400475 529.694400
    443    445    449     1   111.0400475 529.694400
    445    449    450     1   123.2000528 564.003200
    445    449    481     1   112.2600482 538.062400
    449    481    462     1   118.5150508 540.957728
    450    449    481     1   118.8300510 581.576000
    453    456    457     1   123.2000528 564.003200
    453    456    505     1   112.2600482 538.062400
    456    505    486     1   118.5150508 540.957728
    457    456    505     1   118.8300510 581.576000
    458    459    461     1   111.5100476 526.347200
    458    459    479     1   110.1900474 564.840000
    458    469    474     1   110.1900474 564.840000
    458    476    463     1   112.4800480 524.673600
    459    458    469     1   111.5100476 526.347200
    459    458    476     1   107.9700462 569.024000
    459    461    462     1   111.5100476 526.347200
    459    461    468     1   110.1900474 564.840000
    461    459    479     1   110.1900474 564.840000
    461    462    463     1   111.5100476 526.347200
    461    462    481     1   111.0400475 552.288000
    462    461    468     1   110.1900474 564.840000
    462    463    467     1   110.1900474 564.840000
    462    463    476     1   107.9700462 569.024000
    463    462    481     1   111.0400475 552.288000
    467    463    476     1   109.3800466 607.516800
    469    458    476     1   107.9700462 569.024000
    482    483    485     1   111.5100476 526.347200
    482    483    503     1   110.1900474 564.840000
    482    493    498     1   110.1900474 564.840000
    482    500    487     1   112.4800480 524.673600
    483    482    493     1   111.5100476 526.347200
    483    482    500     1   107.9700462 569.024000
    483    485    486     1   111.5100476 526.347200
    483    485    492     1   110.1900474 564.840000
    485    483    503     1   110.1900474 564.840000
    485    486    487     1   111.5100476 526.347200
    485    486    505     1   111.0400475 552.288000
    486    485    492     1   110.1900474 564.840000
    486    487    491     1   110.1900474 564.840000
    486    487    500     1   107.9700462 569.024000
    487    486    505     1   111.0400475 552.288000
    491    487    500     1   109.3800466 607.516800
    493    482    500     1   107.9700462 569.024000
    506    508    510     1   111.6100477 551.451200
    508    510    514     1   111.0400475 552.288000
    510    514    515     1   112.3500484 533.878400
    510    514    516     1   112.3500484 533.878400
    514    515    526     1   111.0400475 552.288000
    514    516    518     1   111.0400475 552.288000
    515    526    529     1   111.0400475 529.694400
    515    514    516     1   112.3500484 533.878400
    516    518    522     1   111.0400475 529.694400
    518    522    523     1   123.2000528 564.003200
    518    522    554     1   112.2600482 538.062400
    522    554    535     1   118.5150508 540.957728
    523    522    554     1   118.8300510 581.576000
    526    529    530     1   123.2000528 564.003200
    526    529    578     1   112.2600482 538.062400
    529    578    559     1   118.5150508 540.957728
    530    529    578     1   118.8300510 581.576000
    531    532    534     1   111.5100476 526.347200
    531    532    552     1   110.1900474 564.840000
    531    542    547     1   110.1900474 564.840000
    531    549    536     1   112.4800480 524.673600
    532    534    535     1   111.5100476 526.347200
    532    534    541     1   110.1900474 564.840000
    532    531    542     1   111.5100476 526.347200
    532    531    549     1   107.9700462 569.024000
    534    535    536     1   111.5100476 526.347200
    534    535    554     1   111.0400475 552.288000
    534    532    552     1   110.1900474 564.840000
    535    536    540     1   110.1900474 564.840000
    535    536    549     1   107.9700462 569.024000
    535    534    541     1   110.1900474 564.840000
    536    535    554     1   111.0400475 552.288000
    540    536    549     1   109.3800466 607.516800
    542    531    549     1   107.9700462 569.024000
    555    556    558     1   111.5100476 526.347200
    555    556    576     1   110.1900474 564.840000
    555    566    571     1   110.1900474 564.840000
    555    573    560     1   112.4800480 524.673600
    556    558    559     1   111.5100476 526.347200
    556    558    565     1   110.1900474 564.840000
    556    555    566     1   111.5100476 526.347200
    556    555    573     1   107.9700462 569.024000
    558    559    560     1   111.5100476 526.347200
    558    559    578     1   111.0400475 552.288000
    558    556    576     1   110.1900474 564.840000
    559    560    564     1   110.1900474 564.840000
    559    560    573     1   107.9700462 569.024000
    559    558    565     1   110.1900474 564.840000
    560    559    578     1   111.0400475 552.288000
    564    560    573     1   109.3800466 607.516800
    566    555    573     1   107.9700462 569.024000
    579    581    583     1   111.6100477 551.451200
    581    583    587     1   111.0400475 552.288000
    583    587    588     1   112.3500484 533.878400
    583    587    589     1   112.3500484 533.878400
    587    588    599     1   111.0400475 552.288000
    587    589    591     1   111.0400475 552.288000
    588    587    589     1   112.3500484 533.878400
    588    599    602     1   111.0400475 529.694400
    589    591    595     1   111.0400475 529.694400
    591    595    596     1   123.2000528 564.003200
    591    595    627     1   112.2600482 538.062400
    595    627    608     1   118.5150508 540.957728
    596    595    627     1   118.8300510 581.576000
    599    602    603     1   123.2000528 564.003200
    599    602    651     1   112.2600482 538.062400
    602    651    632     1   118.5150508 540.957728
    603    602    651     1   118.8300510 581.576000
    604    605    607     1   111.5100476 526.347200
    604    605    625     1   110.1900474 564.840000
    604    615    620     1   110.1900474 564.840000
    604    622    609     1   112.4800480 524.673600
    605    604    615     1   111.5100476 526.347200
    605    604    622     1   107.9700462 569.024000
    605    607    608     1   111.5100476 526.347200
    605    607    614     1   110.1900474 564.840000
    607    605    625     1   110.1900474 564.840000
    607    608    609     1   111.5100476 526.347200
    607    608    627     1   111.0400475 552.288000
    608    607    614     1   110.1900474 564.840000
    608    609    613     1   110.1900474 564.840000
    608    609    622     1   107.9700462 569.024000
    609    608    627     1   111.0400475 552.288000
    613    609    622     1   109.3800466 607.516800
    615    604    622     1   107.9700462 569.024000
    628    629    631     1   111.5100476 526.347200
    628    629    649     1   110.1900474 564.840000
    628    639    644     1   110.1900474 564.840000
    628    646    633     1   112.4800480 524.673600
    629    628    639     1   111.5100476 526.347200
    629    628    646     1   107.9700462 569.024000
    629    631    632     1   111.5100476 526.347200
    629    631    638     1   110.1900474 564.840000
    631    629    649     1   110.1900474 564.840000
    631    632    633     1   111.5100476 526.347200
    631    632    651     1   111.0400475 552.288000
    632    631    638     1   110.1900474 564.840000
    632    633    637     1   110.1900474 564.840000
    632    633    646     1   107.9700462 569.024000
    633    632    651     1   111.0400475 552.288000
    637    633    646     1   109.3800466 607.516800
    639    628    646     1   107.9700462 569.024000
    652    654    656     1   111.6100477 551.451200
    654    656    660     1   111.0400475 552.288000
    656    660    661     1   112.3500484 533.878400
    656    660    662     1   112.3500484 533.878400
    660    661    672     1   111.0400475 552.288000
    660    662    664     1   111.0400475 552.288000
    661    672    675     1   111.0400475 529.694400
    661    660    662     1   112.3500484 533.878400
    662    664    668     1   111.0400475 529.694400
    664    668    669     1   123.2000528 564.003200
    664    668    700     1   112.2600482 538.062400
    668    700    681     1   118.5150508 540.957728
    669    668    700     1   118.8300510 581.576000
    672    675    676     1   123.2000528 564.003200
    672    675    724     1   112.2600482 538.062400
    675    724    705     1   118.5150508 540.957728
    676    675    724     1   118.8300510 581.576000
    677    678    680     1   111.5100476 526.347200
    677    678    698     1   110.1900474 564.840000
    677    688    693     1   110.1900474 564.840000
    677    695    682     1   112.4800480 524.673600
    678    680    681     1   111.5100476 526.347200
    678    680    687     1   110.1900474 564.840000
    678    677    688     1   111.5100476 526.347200
    678    677    695     1   107.9700462 569.024000
    680    681    682     1   111.5100476 526.347200
    680    681    700     1   111.0400475 552.288000
    680    678    698     1   110.1900474 564.840000
    681    682    686     1   110.1900474 564.840000
    681    682    695     1   107.9700462 569.024000
    681    680    687     1   110.1900474 564.840000
    682    681    700     1   111.0400475 552.288000
    686    682    695     1   109.3800466 607.516800
    688    677    695     1   107.9700462 569.024000
    701    702    704     1   111.5100476 526.347200
    701    702    722     1   110.1900474 564.840000
    701    712    717     1   110.1900474 564.840000
    701    719    706     1   112.4800480 524.673600
    702    704    705     1   111.5100476 526.347200
    702    704    711     1   110.1900474 564.840000
    702    701    712     1   111.5100476 526.347200
    702    701    719     1   107.9700462 569.024000
    704    705    706     1   111.5100476 526.347200
    704    705    724     1   111.0400475 552.288000
    704    702    722     1   110.1900474 564.840000
    705    706    710     1   110.1900474 564.840000
    705    706    719     1   107.9700462 569.024000
    705    704    711     1   110.1900474 564.840000
    706    705    724     1   111.0400475 552.288000
    710    706    719     1   109.3800466 607.516800
    712    701    719     1   107.9700462 569.024000
      1      4      5     1   109.5600471 388.275200
      1      4      6     1   109.5600471 388.275200
      2      1      4     1   109.5600471 388.275200
      2      1      8     1   109.8800469 414.216000
      2      1      3     1   108.4600466 328.025600
      3      1      4     1   109.5600471 388.275200
      3      1      8     1   109.8800469 414.216000
      5      4      7     1   109.8800469 414.216000
      5      4      6     1   108.4600466 328.025600
      6      4      7     1   109.8800469 414.216000
      7     15     16     1   109.8800469 414.216000
      7     15     17     1   109.8800469 414.216000
      7     18     19     1   109.8800469 414.216000
      7     18     20     1   109.8800469 414.216000
      8      9     10     1   109.8800469 414.216000
      8      9     11     1   109.8800469 414.216000
      8     12     13     1   109.8800469 414.216000
      8     12     14     1   109.8800469 414.216000
      9     30     31     1   109.8000471 387.438400
      9     30     32     1   109.8000471 387.438400
     10      9     30     1   109.5600471 388.275200
     10      9     11     1   108.4600466 328.025600
     11      9     30     1   109.5600471 388.275200
     12     27     28     1   109.8000471 387.438400
     12     27     29     1   109.8000471 387.438400
     13     12     27     1   109.5600471 388.275200
     13     12     14     1   108.4600466 328.025600
     14     12     27     1   109.5600471 388.275200
     15     21     22     1   109.8000471 387.438400
     15     21     23     1   109.8000471 387.438400
     16     15     21     1   109.5600471 388.275200
     16     15     17     1   108.4600466 328.025600
     17     15     21     1   109.5600471 388.275200
     18     24     25     1   109.8000471 387.438400
     18     24     26     1   109.8000471 387.438400
     19     18     24     1   109.5600471 388.275200
     19     18     20     1   108.4600466 328.025600
     20     18     24     1   109.5600471 388.275200
     22     21     35     1   108.7700466 392.459200
     22     21     23     1   107.5800459 329.699200
     23     21     35     1   108.7700466 392.459200
     25     24     36     1   108.7700466 392.459200
     25     24     26     1   107.5800459 329.699200
     26     24     36     1   108.7700466 392.459200
     28     27     33     1   108.7700466 392.459200
     28     27     29     1   107.5800459 329.699200
     29     27     33     1   108.7700466 392.459200
     31     30     34     1   108.7700466 392.459200
     31     30     32     1   107.5800459 329.699200
     32     30     34     1   108.7700466 392.459200
     33     64     65     1   117.5500507 404.174400
     34     89     90     1   117.5500507 404.174400
     35    114    115     1   117.5500507 404.174400
     36    139    140     1   117.5500507 404.174400
     41     44     45     1   109.5600471 388.275200
     41     44     46     1   109.5600471 388.275200
     42     41     44     1   109.5600471 388.275200
     42     41     47     1   109.8800469 414.216000
     42     41     43     1   108.4600466 328.025600
     43     41     44     1   109.5600471 388.275200
     43     41     47     1   109.8800469 414.216000
     44     64     65     1   117.6800502 383.254400
     45     44     64     1   108.8800464 416.726400
     45     44     46     1   108.4600466 328.025600
     46     44     64     1   108.8800464 416.726400
     47     48     49     1   109.8800469 414.216000
     47     48     50     1   109.8800469 414.216000
     47     51     52     1   109.8800469 414.216000
     47     51     53     1   109.8800469 414.216000
     48     57     58     1   109.8000471 387.438400
     48     57     59     1   109.8000471 387.438400
     49     48     57     1   109.5600471 388.275200
     49     48     50     1   108.4600466 328.025600
     50     48     57     1   109.5600471 388.275200
     51     54     55     1   109.8000471 387.438400
     51     54     56     1   109.8000471 387.438400
     52     51     54     1   109.5600471 388.275200
     52     51     53     1   108.4600466 328.025600
     53     51     54     1   109.5600471 388.275200
     55     54     60     1   108.7700466 392.459200
     55     54     56     1   107.5800459 329.699200
     56     54     60     1   108.7700466 392.459200
     58     57     61     1   108.7700466 392.459200
     58     57     59     1   107.5800459 329.699200
     59     57     61     1   108.7700466 392.459200
     60    141    142     1   117.5500507 404.174400
     61    214    215     1   117.5500507 404.174400
     66     69     70     1   109.5600471 388.275200
     66     69     71     1   109.5600471 388.275200
     67     66     69     1   109.5600471 388.275200
     67     66     72     1   109.8800469 414.216000
     67     66     68     1   108.4600466 328.025600
     68     66     69     1   109.5600471 388.275200
     68     66     72     1   109.8800469 414.216000
     69     89     90     1   117.6800502 383.254400
     70     69     89     1   108.8800464 416.726400
     70     69     71     1   108.4600466 328.025600
     71     69     89     1   108.8800464 416.726400
     72     73     74     1   109.8800469 414.216000
     72     73     75     1   109.8800469 414.216000
     72     76     77     1   109.8800469 414.216000
     72     76     78     1   109.8800469 414.216000
     73     82     83     1   109.8000471 387.438400
     73     82     84     1   109.8000471 387.438400
     74     73     82     1   109.5600471 388.275200
     74     73     75     1   108.4600466 328.025600
     75     73     82     1   109.5600471 388.275200
     76     79     80     1   109.8000471 387.438400
     76     79     81     1   109.8000471 387.438400
     77     76     79     1   109.5600471 388.275200
     77     76     78     1   108.4600466 328.025600
     78     76     79     1   109.5600471 388.275200
     80     79     85     1   108.7700466 392.459200
     80     79     81     1   107.5800459 329.699200
     81     79     85     1   108.7700466 392.459200
     83     82     86     1   108.7700466 392.459200
     83     82     84     1   107.5800459 329.699200
     84     82     86     1   108.7700466 392.459200
     85    287    288     1   117.5500507 404.174400
     86    360    361     1   117.5500507 404.174400
     91     94     95     1   109.5600471 388.275200
     91     94     96     1   109.5600471 388.275200
     92     91     94     1   109.5600471 388.275200
     92     91     97     1   109.8800469 414.216000
     92     91     93     1   108.4600466 328.025600
     93     91     94     1   109.5600471 388.275200
     93     91     97     1   109.8800469 414.216000
     94    114    115     1   117.6800502 383.254400
     95     94    114     1   108.8800464 416.726400
     95     94     96     1   108.4600466 328.025600
     96     94    114     1   108.8800464 416.726400
     97     98     99     1   109.8800469 414.216000
     97     98    100     1   109.8800469 414.216000
     97    101    102     1   109.8800469 414.216000
     97    101    103     1   109.8800469 414.216000
     98    107    108     1   109.8000471 387.438400
     98    107    109     1   109.8000471 387.438400
     99     98    107     1   109.5600471 388.275200
     99     98    100     1   108.4600466 328.025600
    100     98    107     1   109.5600471 388.275200
    101    104    105     1   109.8000471 387.438400
    101    104    106     1   109.8000471 387.438400
    102    101    104     1   109.5600471 388.275200
    102    101    103     1   108.4600466 328.025600
    103    101    104     1   109.5600471 388.275200
    105    104    110     1   108.7700466 392.459200
    105    104    106     1   107.5800459 329.699200
    106    104    110     1   108.7700466 392.459200
    108    107    111     1   108.7700466 392.459200
    108    107    109     1   107.5800459 329.699200
    109    107    111     1   108.7700466 392.459200
    110    433    434     1   117.5500507 404.174400
    111    506    507     1   117.5500507 404.174400
    116    119    120     1   109.5600471 388.275200
    116    119    121     1   109.5600471 388.275200
    117    116    119     1   109.5600471 388.275200
    117    116    122     1   109.8800469 414.216000
    117    116    118     1   108.4600466 328.025600
    118    116    119     1   109.5600471 388.275200
    118    116    122     1   109.8800469 414.216000
    119    139    140     1   117.6800502 383.254400
    120    119    139     1   108.8800464 416.726400
    120    119    121     1   108.4600466 328.025600
    121    119    139     1   108.8800464 416.726400
    122    123    124     1   109.8800469 414.216000
    122    123    125     1   109.8800469 414.216000
    122    126    127     1   109.8800469 414.216000
    122    126    128     1   109.8800469 414.216000
    123    132    133     1   109.8000471 387.438400
    123    132    134     1   109.8000471 387.438400
    124    123    132     1   109.5600471 388.275200
    124    123    125     1   108.4600466 328.025600
    125    123    132     1   109.5600471 388.275200
    126    129    130     1   109.8000471 387.438400
    126    129    131     1   109.8000471 387.438400
    127    126    129     1   109.5600471 388.275200
    127    126    128     1   108.4600466 328.025600
    128    126    129     1   109.5600471 388.275200
    130    129    135     1   108.7700466 392.459200
    130    129    131     1   107.5800459 329.699200
    131    129    135     1   108.7700466 392.459200
    133    132    136     1   108.7700466 392.459200
    133    132    134     1   107.5800459 329.699200
    134    132    136     1   108.7700466 392.459200
    135    579    580     1   117.5500507 404.174400
    136    652    653     1   117.5500507 404.174400
    141    143    144     1   108.8800464 416.726400
    141    143    146     1   108.8800464 416.726400
    142    141    143     1   117.6800502 383.254400
    143    145    147     1   109.5600471 388.275200
    143    145    148     1   109.5600471 388.275200
    144    143    145     1   109.5600471 388.275200
    144    143    146     1   108.4600466 328.025600
    145    143    146     1   109.5600471 388.275200
    147    145    149     1   109.8800469 414.216000
    147    145    148     1   108.4600466 328.025600
    148    145    149     1   109.8800469 414.216000
    149    150    159     1   109.8800469 414.216000
    149    150    160     1   109.8800469 414.216000
    149    151    152     1   109.8800469 414.216000
    149    151    154     1   109.8800469 414.216000
    150    161    162     1   109.8000471 387.438400
    150    161    163     1   109.8000471 387.438400
    151    153    155     1   109.8000471 387.438400
    151    153    156     1   109.8000471 387.438400
    152    151    153     1   109.5600471 388.275200
    152    151    154     1   108.4600466 328.025600
    153    151    154     1   109.5600471 388.275200
    155    153    157     1   108.7700466 392.459200
    155    153    156     1   107.5800459 329.699200
    156    153    157     1   108.7700466 392.459200
    157    189    179     1   119.3800509 410.868800
    159    150    161     1   109.5600471 388.275200
    159    150    160     1   108.4600466 328.025600
    160    150    161     1   109.5600471 388.275200
    162    161    164     1   108.7700466 392.459200
    162    161    163     1   107.5800459 329.699200
    163    161    164     1   108.7700466 392.459200
    164    213    203     1   119.3800509 410.868800
    166    167    186     1   109.5600471 388.275200
    166    177    180     1   109.5600471 388.275200
    166    177    181     1   109.5600471 388.275200
    167    166    168     1   109.5600471 388.275200
    167    169    173     1   109.5600471 388.275200
    167    187    188     1   107.2600461 396.643200
    168    166    177     1   109.5600471 388.275200
    168    166    184     1   109.7800468 425.094400
    169    167    186     1   109.5600471 388.275200
    169    170    172     1   109.5600471 388.275200
    169    176    178     1   107.2600461 396.643200
    170    169    173     1   109.5600471 388.275200
    170    171    174     1   110.2200475 386.601600
    170    189    179     1   109.2900470 396.643200
    171    170    172     1   109.5600471 388.275200
    171    175    185     1   107.2600461 396.643200
    172    170    189     1   109.8800469 414.216000
    173    169    176     1   110.2600474 425.931200
    174    171    175     1   109.4300470 427.604800
    174    171    184     1   109.5800467 425.931200
    177    182    183     1   107.2600461 396.643200
    180    177    182     1   110.2600474 425.931200
    180    177    181     1   108.4600466 328.025600
    181    177    182     1   110.2600474 425.931200
    186    167    187     1   110.2600474 425.931200
    190    191    210     1   109.5600471 388.275200
    190    201    204     1   109.5600471 388.275200
    190    201    205     1   109.5600471 388.275200
    191    190    192     1   109.5600471 388.275200
    191    193    197     1   109.5600471 388.275200
    191    211    212     1   107.2600461 396.643200
    192    190    201     1   109.5600471 388.275200
    192    190    208     1   109.7800468 425.094400
    193    191    210     1   109.5600471 388.275200
    193    194    196     1   109.5600471 388.275200
    193    200    202     1   107.2600461 396.643200
    194    193    197     1   109.5600471 388.275200
    194    195    198     1   110.2200475 386.601600
    194    213    203     1   109.2900470 396.643200
    195    194    196     1   109.5600471 388.275200
    195    199    209     1   107.2600461 396.643200
    196    194    213     1   109.8800469 414.216000
    197    193    200     1   110.2600474 425.931200
    198    195    199     1   109.4300470 427.604800
    198    195    208     1   109.5800467 425.931200
    201    206    207     1   107.2600461 396.643200
    204    201    206     1   110.2600474 425.931200
    204    201    205     1   108.4600466 328.025600
    205    201    206     1   110.2600474 425.931200
    210    191    211     1   110.2600474 425.931200
    214    216    217     1   108.8800464 416.726400
    214    216    219     1   108.8800464 416.726400
    215    214    216     1   117.6800502 383.254400
    216    218    220     1   109.5600471 388.275200
    216    218    221     1   109.5600471 388.275200
    217    216    218     1   109.5600471 388.275200
    217    216    219     1   108.4600466 328.025600
    218    216    219     1   109.5600471 388.275200
    220    218    222     1   109.8800469 414.216000
    220    218    221     1   108.4600466 328.025600
    221    218    222     1   109.8800469 414.216000
    222    223    232     1   109.8800469 414.216000
    222    223    233     1   109.8800469 414.216000
    222    224    225     1   109.8800469 414.216000
    222    224    227     1   109.8800469 414.216000
    223    234    235     1   109.8000471 387.438400
    223    234    236     1   109.8000471 387.438400
    224    226    228     1   109.8000471 387.438400
    224    226    229     1   109.8000471 387.438400
    225    224    226     1   109.5600471 388.275200
    225    224    227     1   108.4600466 328.025600
    226    224    227     1   109.5600471 388.275200
    228    226    230     1   108.7700466 392.459200
    228    226    229     1   107.5800459 329.699200
    229    226    230     1   108.7700466 392.459200
    230    262    252     1   119.3800509 410.868800
    232    223    234     1   109.5600471 388.275200
    232    223    233     1   108.4600466 328.025600
    233    223    234     1   109.5600471 388.275200
    235    234    237     1   108.7700466 392.459200
    235    234    236     1   107.5800459 329.699200
    236    234    237     1   108.7700466 392.459200
    237    286    276     1   119.3800509 410.868800
    239    240    259     1   109.5600471 388.275200
    239    250    253     1   109.5600471 388.275200
    239    250    254     1   109.5600471 388.275200
    240    242    246     1   109.5600471 388.275200
    240    260    261     1   107.2600461 396.643200
    240    239    241     1   109.5600471 388.275200
    241    239    250     1   109.5600471 388.275200
    241    239    257     1   109.7800468 425.094400
    242    243    245     1   109.5600471 388.275200
    242    249    251     1   107.2600461 396.643200
    242    240    259     1   109.5600471 388.275200
    243    244    247     1   110.2200475 386.601600
    243    262    252     1   109.2900470 396.643200
    243    242    246     1   109.5600471 388.275200
    244    248    258     1   107.2600461 396.643200
    244    243    245     1   109.5600471 388.275200
    245    243    262     1   109.8800469 414.216000
    246    242    249     1   110.2600474 425.931200
    247    244    248     1   109.4300470 427.604800
    247    244    257     1   109.5800467 425.931200
    250    255    256     1   107.2600461 396.643200
    253    250    255     1   110.2600474 425.931200
    253    250    254     1   108.4600466 328.025600
    254    250    255     1   110.2600474 425.931200
    259    240    260     1   110.2600474 425.931200
    263    264    283     1   109.5600471 388.275200
    263    274    277     1   109.5600471 388.275200
    263    274    278     1   109.5600471 388.275200
    264    266    270     1   109.5600471 388.275200
    264    284    285     1   107.2600461 396.643200
    264    263    265     1   109.5600471 388.275200
    265    263    274     1   109.5600471 388.275200
    265    263    281     1   109.7800468 425.094400
    266    267    269     1   109.5600471 388.275200
    266    273    275     1   107.2600461 396.643200
    266    264    283     1   109.5600471 388.275200
    267    268    271     1   110.2200475 386.601600
    267    286    276     1   109.2900470 396.643200
    267    266    270     1   109.5600471 388.275200
    268    272    282     1   107.2600461 396.643200
    268    267    269     1   109.5600471 388.275200
    269    267    286     1   109.8800469 414.216000
    270    266    273     1   110.2600474 425.931200
    271    268    272     1   109.4300470 427.604800
    271    268    281     1   109.5800467 425.931200
    274    279    280     1   107.2600461 396.643200
    277    274    279     1   110.2600474 425.931200
    277    274    278     1   108.4600466 328.025600
    278    274    279     1   110.2600474 425.931200
    283    264    284     1   110.2600474 425.931200
    287    289    290     1   108.8800464 416.726400
    287    289    292     1   108.8800464 416.726400
    288    287    289     1   117.6800502 383.254400
    289    291    293     1   109.5600471 388.275200
    289    291    294     1   109.5600471 388.275200
    290    289    291     1   109.5600471 388.275200
    290    289    292     1   108.4600466 328.025600
    291    289    292     1   109.5600471 388.275200
    293    291    295     1   109.8800469 414.216000
    293    291    294     1   108.4600466 328.025600
    294    291    295     1   109.8800469 414.216000
    295    296    305     1   109.8800469 414.216000
    295    296    306     1   109.8800469 414.216000
    295    297    298     1   109.8800469 414.216000
    295    297    300     1   109.8800469 414.216000
    296    307    308     1   109.8000471 387.438400
    296    307    309     1   109.8000471 387.438400
    297    299    301     1   109.8000471 387.438400
    297    299    302     1   109.8000471 387.438400
    298    297    299     1   109.5600471 388.275200
    298    297    300     1   108.4600466 328.025600
    299    297    300     1   109.5600471 388.275200
    301    299    303     1   108.7700466 392.459200
    301    299    302     1   107.5800459 329.699200
    302    299    303     1   108.7700466 392.459200
    303    335    325     1   119.3800509 410.868800
    305    296    307     1   109.5600471 388.275200
    305    296    306     1   108.4600466 328.025600
    306    296    307     1   109.5600471 388.275200
    308    307    310     1   108.7700466 392.459200
    308    307    309     1   107.5800459 329.699200
    309    307    310     1   108.7700466 392.459200
    310    359    349     1   119.3800509 410.868800
    312    313    332     1   109.5600471 388.275200
    312    323    326     1   109.5600471 388.275200
    312    323    327     1   109.5600471 388.275200
    313    312    314     1   109.5600471 388.275200
    313    315    319     1   109.5600471 388.275200
    313    333    334     1   107.2600461 396.643200
    314    312    323     1   109.5600471 388.275200
    314    312    330     1   109.7800468 425.094400
    315    313    332     1   109.5600471 388.275200
    315    316    318     1   109.5600471 388.275200
    315    322    324     1   107.2600461 396.643200
    316    315    319     1   109.5600471 388.275200
    316    317    320     1   110.2200475 386.601600
    316    335    325     1   109.2900470 396.643200
    317    316    318     1   109.5600471 388.275200
    317    321    331     1   107.2600461 396.643200
    318    316    335     1   109.8800469 414.216000
    319    315    322     1   110.2600474 425.931200
    320    317    321     1   109.4300470 427.604800
    320    317    330     1   109.5800467 425.931200
    323    328    329     1   107.2600461 396.643200
    326    323    328     1   110.2600474 425.931200
    326    323    327     1   108.4600466 328.025600
    327    323    328     1   110.2600474 425.931200
    332    313    333     1   110.2600474 425.931200
    336    337    356     1   109.5600471 388.275200
    336    347    350     1   109.5600471 388.275200
    336    347    351     1   109.5600471 388.275200
    337    336    338     1   109.5600471 388.275200
    337    339    343     1   109.5600471 388.275200
    337    357    358     1   107.2600461 396.643200
    338    336    347     1   109.5600471 388.275200
    338    336    354     1   109.7800468 425.094400
    339    337    356     1   109.5600471 388.275200
    339    340    342     1   109.5600471 388.275200
    339    346    348     1   107.2600461 396.643200
    340    339    343     1   109.5600471 388.275200
    340    341    344     1   110.2200475 386.601600
    340    359    349     1   109.2900470 396.643200
    341    340    342     1   109.5600471 388.275200
    341    345    355     1   107.2600461 396.643200
    342    340    359     1   109.8800469 414.216000
    343    339    346     1   110.2600474 425.931200
    344    341    345     1   109.4300470 427.604800
    344    341    354     1   109.5800467 425.931200
    347    352    353     1   107.2600461 396.643200
    350    347    352     1   110.2600474 425.931200
    350    347    351     1   108.4600466 328.025600
    351    347    352     1   110.2600474 425.931200
    356    337    357     1   110.2600474 425.931200
    360    362    363     1   108.8800464 416.726400
    360    362    365     1   108.8800464 416.726400
    361    360    362     1   117.6800502 383.254400
    362    364    366     1   109.5600471 388.275200
    362    364    367     1   109.5600471 388.275200
    363    362    364     1   109.5600471 388.275200
    363    362    365     1   108.4600466 328.025600
    364    362    365     1   109.5600471 388.275200
    366    364    368     1   109.8800469 414.216000
    366    364    367     1   108.4600466 328.025600
    367    364    368     1   109.8800469 414.216000
    368    369    378     1   109.8800469 414.216000
    368    369    379     1   109.8800469 414.216000
    368    370    371     1   109.8800469 414.216000
    368    370    373     1   109.8800469 414.216000
    369    380    381     1   109.8000471 387.438400
    369    380    382     1   109.8000471 387.438400
    370    372    374     1   109.8000471 387.438400
    370    372    375     1   109.8000471 387.438400
    371    370    372     1   109.5600471 388.275200
    371    370    373     1   108.4600466 328.025600
    372    370    373     1   109.5600471 388.275200
    374    372    376     1   108.7700466 392.459200
    374    372    375     1   107.5800459 329.699200
    375    372    376     1   108.7700466 392.459200
    376    408    398     1   119.3800509 410.868800
    378    369    380     1   109.5600471 388.275200
    378    369    379     1   108.4600466 328.025600
    379    369    380     1   109.5600471 388.275200
    381    380    383     1   108.7700466 392.459200
    381    380    382     1   107.5800459 329.699200
    382    380    383     1   108.7700466 392.459200
    383    432    422     1   119.3800509 410.868800
    385    386    405     1   109.5600471 388.275200
    385    396    399     1   109.5600471 388.275200
    385    396    400     1   109.5600471 388.275200
    386    388    392     1   109.5600471 388.275200
    386    406    407     1   107.2600461 396.643200
    386    385    387     1   109.5600471 388.275200
    387    385    396     1   109.5600471 388.275200
    387    385    403     1   109.7800468 425.094400
    388    389    391     1   109.5600471 388.275200
    388    395    397     1   107.2600461 396.643200
    388    386    405     1   109.5600471 388.275200
    389    390    393     1   110.2200475 386.601600
    389    408    398     1   109.2900470 396.643200
    389    388    392     1   109.5600471 388.275200
    390    394    404     1   107.2600461 396.643200
    390    389    391     1   109.5600471 388.275200
    391    389    408     1   109.8800469 414.216000
    392    388    395     1   110.2600474 425.931200
    393    390    394     1   109.4300470 427.604800
    393    390    403     1   109.5800467 425.931200
    396    401    402     1   107.2600461 396.643200
    399    396    401     1   110.2600474 425.931200
    399    396    400     1   108.4600466 328.025600
    400    396    401     1   110.2600474 425.931200
    405    386    406     1   110.2600474 425.931200
    409    410    429     1   109.5600471 388.275200
    409    420    423     1   109.5600471 388.275200
    409    420    424     1   109.5600471 388.275200
    410    412    416     1   109.5600471 388.275200
    410    430    431     1   107.2600461 396.643200
    410    409    411     1   109.5600471 388.275200
    411    409    420     1   109.5600471 388.275200
    411    409    427     1   109.7800468 425.094400
    412    413    415     1   109.5600471 388.275200
    412    419    421     1   107.2600461 396.643200
    412    410    429     1   109.5600471 388.275200
    413    414    417     1   110.2200475 386.601600
    413    432    422     1   109.2900470 396.643200
    413    412    416     1   109.5600471 388.275200
    414    418    428     1   107.2600461 396.643200
    414    413    415     1   109.5600471 388.275200
    415    413    432     1   109.8800469 414.216000
    416    412    419     1   110.2600474 425.931200
    417    414    418     1   109.4300470 427.604800
    417    414    427     1   109.5800467 425.931200
    420    425    426     1   107.2600461 396.643200
    423    420    425     1   110.2600474 425.931200
    423    420    424     1   108.4600466 328.025600
    424    420    425     1   110.2600474 425.931200
    429    410    430     1   110.2600474 425.931200
    433    435    436     1   108.8800464 416.726400
    433    435    438     1   108.8800464 416.726400
    434    433    435     1   117.6800502 383.254400
    435    437    439     1   109.5600471 388.275200
    435    437    440     1   109.5600471 388.275200
    436    435    437     1   109.5600471 388.275200
    436    435    438     1   108.4600466 328.025600
    437    435    438     1   109.5600471 388.275200
    439    437    441     1   109.8800469 414.216000
    439    437    440     1   108.4600466 328.025600
    440    437    441     1   109.8800469 414.216000
    441    442    451     1   109.8800469 414.216000
    441    442    452     1   109.8800469 414.216000
    441    443    444     1   109.8800469 414.216000
    441    443    446     1   109.8800469 414.216000
    442    453    454     1   109.8000471 387.438400
    442    453    455     1   109.8000471 387.438400
    443    445    447     1   109.8000471 387.438400
    443    445    448     1   109.8000471 387.438400
    444    443    445     1   109.5600471 388.275200
    444    443    446     1   108.4600466 328.025600
    445    443    446     1   109.5600471 388.275200
    447    445    449     1   108.7700466 392.459200
    447    445    448     1   107.5800459 329.699200
    448    445    449     1   108.7700466 392.459200
    449    481    471     1   119.3800509 410.868800
    451    442    453     1   109.5600471 388.275200
    451    442    452     1   108.4600466 328.025600
    452    442    453     1   109.5600471 388.275200
    454    453    456     1   108.7700466 392.459200
    454    453    455     1   107.5800459 329.699200
    455    453    456     1   108.7700466 392.459200
    456    505    495     1   119.3800509 410.868800
    458    459    478     1   109.5600471 388.275200
    458    469    472     1   109.5600471 388.275200
    458    469    473     1   109.5600471 388.275200
    459    458    460     1   109.5600471 388.275200
    459    461    465     1   109.5600471 388.275200
    459    479    480     1   107.2600461 396.643200
    460    458    469     1   109.5600471 388.275200
    460    458    476     1   109.7800468 425.094400
    461    459    478     1   109.5600471 388.275200
    461    462    464     1   109.5600471 388.275200
    461    468    470     1   107.2600461 396.643200
    462    461    465     1   109.5600471 388.275200
    462    463    466     1   110.2200475 386.601600
    462    481    471     1   109.2900470 396.643200
    463    462    464     1   109.5600471 388.275200
    463    467    477     1   107.2600461 396.643200
    464    462    481     1   109.8800469 414.216000
    465    461    468     1   110.2600474 425.931200
    466    463    467     1   109.4300470 427.604800
    466    463    476     1   109.5800467 425.931200
    469    474    475     1   107.2600461 396.643200
    472    469    474     1   110.2600474 425.931200
    472    469    473     1   108.4600466 328.025600
    473    469    474     1   110.2600474 425.931200
    478    459    479     1   110.2600474 425.931200
    482    483    502     1   109.5600471 388.275200
    482    493    496     1   109.5600471 388.275200
    482    493    497     1   109.5600471 388.275200
    483    482    484     1   109.5600471 388.275200
    483    485    489     1   109.5600471 388.275200
    483    503    504     1   107.2600461 396.643200
    484    482    493     1   109.5600471 388.275200
    484    482    500     1   109.7800468 425.094400
    485    483    502     1   109.5600471 388.275200
    485    486    488     1   109.5600471 388.275200
    485    492    494     1   107.2600461 396.643200
    486    485    489     1   109.5600471 388.275200
    486    487    490     1   110.2200475 386.601600
    486    505    495     1   109.2900470 396.643200
    487    486    488     1   109.5600471 388.275200
    487    491    501     1   107.2600461 396.643200
    488    486    505     1   109.8800469 414.216000
    489    485    492     1   110.2600474 425.931200
    490    487    491     1   109.4300470 427.604800
    490    487    500     1   109.5800467 425.931200
    493    498    499     1   107.2600461 396.643200
    496    493    498     1   110.2600474 425.931200
    496    493    497     1   108.4600466 328.025600
    497    493    498     1   110.2600474 425.931200
    502    483    503     1   110.2600474 425.931200
    506    508    509     1   108.8800464 416.726400
    506    508    511     1   108.8800464 416.726400
    507    506    508     1   117.6800502 383.254400
    508    510    512     1   109.5600471 388.275200
    508    510    513     1   109.5600471 388.275200
    509    508    510     1   109.5600471 388.275200
    509    508    511     1   108.4600466 328.025600
    510    508    511     1   109.5600471 388.275200
    512    510    514     1   109.8800469 414.216000
    512    510    513     1   108.4600466 328.025600
    513    510    514     1   109.8800469 414.216000
    514    515    524     1   109.8800469 414.216000
    514    515    525     1   109.8800469 414.216000
    514    516    517     1   109.8800469 414.216000
    514    516    519     1   109.8800469 414.216000
    515    526    527     1   109.8000471 387.438400
    515    526    528     1   109.8000471 387.438400
    516    518    520     1   109.8000471 387.438400
    516    518    521     1   109.8000471 387.438400
    517    516    518     1   109.5600471 388.275200
    517    516    519     1   108.4600466 328.025600
    518    516    519     1   109.5600471 388.275200
    520    518    522     1   108.7700466 392.459200
    520    518    521     1   107.5800459 329.699200
    521    518    522     1   108.7700466 392.459200
    522    554    544     1   119.3800509 410.868800
    524    515    526     1   109.5600471 388.275200
    524    515    525     1   108.4600466 328.025600
    525    515    526     1   109.5600471 388.275200
    527    526    529     1   108.7700466 392.459200
    527    526    528     1   107.5800459 329.699200
    528    526    529     1   108.7700466 392.459200
    529    578    568     1   119.3800509 410.868800
    531    532    551     1   109.5600471 388.275200
    531    542    545     1   109.5600471 388.275200
    531    542    546     1   109.5600471 388.275200
    532    534    538     1   109.5600471 388.275200
    532    552    553     1   107.2600461 396.643200
    532    531    533     1   109.5600471 388.275200
    533    531    542     1   109.5600471 388.275200
    533    531    549     1   109.7800468 425.094400
    534    535    537     1   109.5600471 388.275200
    534    541    543     1   107.2600461 396.643200
    534    532    551     1   109.5600471 388.275200
    535    536    539     1   110.2200475 386.601600
    535    554    544     1   109.2900470 396.643200
    535    534    538     1   109.5600471 388.275200
    536    540    550     1   107.2600461 396.643200
    536    535    537     1   109.5600471 388.275200
    537    535    554     1   109.8800469 414.216000
    538    534    541     1   110.2600474 425.931200
    539    536    540     1   109.4300470 427.604800
    539    536    549     1   109.5800467 425.931200
    542    547    548     1   107.2600461 396.643200
    545    542    547     1   110.2600474 425.931200
    545    542    546     1   108.4600466 328.025600
    546    542    547     1   110.2600474 425.931200
    551    532    552     1   110.2600474 425.931200
    555    556    575     1   109.5600471 388.275200
    555    566    569     1   109.5600471 388.275200
    555    566    570     1   109.5600471 388.275200
    556    558    562     1   109.5600471 388.275200
    556    576    577     1   107.2600461 396.643200
    556    555    557     1   109.5600471 388.275200
    557    555    566     1   109.5600471 388.275200
    557    555    573     1   109.7800468 425.094400
    558    559    561     1   109.5600471 388.275200
    558    565    567     1   107.2600461 396.643200
    558    556    575     1   109.5600471 388.275200
    559    560    563     1   110.2200475 386.601600
    559    578    568     1   109.2900470 396.643200
    559    558    562     1   109.5600471 388.275200
    560    564    574     1   107.2600461 396.643200
    560    559    561     1   109.5600471 388.275200
    561    559    578     1   109.8800469 414.216000
    562    558    565     1   110.2600474 425.931200
    563    560    564     1   109.4300470 427.604800
    563    560    573     1   109.5800467 425.931200
    566    571    572     1   107.2600461 396.643200
    569    566    571     1   110.2600474 425.931200
    569    566    570     1   108.4600466 328.025600
    570    566    571     1   110.2600474 425.931200
    575    556    576     1   110.2600474 425.931200
    579    581    582     1   108.8800464 416.726400
    579    581    584     1   108.8800464 416.726400
    580    579    581     1   117.6800502 383.254400
    581    583    585     1   109.5600471 388.275200
    581    583    586     1   109.5600471 388.275200
    582    581    583     1   109.5600471 388.275200
    582    581    584     1   108.4600466 328.025600
    583    581    584     1   109.5600471 388.275200
    585    583    587     1   109.8800469 414.216000
    585    583    586     1   108.4600466 328.025600
    586    583    587     1   109.8800469 414.216000
    587    588    597     1   109.8800469 414.216000
    587    588    598     1   109.8800469 414.216000
    587    589    590     1   109.8800469 414.216000
    587    589    592     1   109.8800469 414.216000
    588    599    600     1   109.8000471 387.438400
    588    599    601     1   109.8000471 387.438400
    589    591    593     1   109.8000471 387.438400
    589    591    594     1   109.8000471 387.438400
    590    589    591     1   109.5600471 388.275200
    590    589    592     1   108.4600466 328.025600
    591    589    592     1   109.5600471 388.275200
    593    591    595     1   108.7700466 392.459200
    593    591    594     1   107.5800459 329.699200
    594    591    595     1   108.7700466 392.459200
    595    627    617     1   119.3800509 410.868800
    597    588    599     1   109.5600471 388.275200
    597    588    598     1   108.4600466 328.025600
    598    588    599     1   109.5600471 388.275200
    600    599    602     1   108.7700466 392.459200
    600    599    601     1   107.5800459 329.699200
    601    599    602     1   108.7700466 392.459200
    602    651    641     1   119.3800509 410.868800
    604    605    624     1   109.5600471 388.275200
    604    615    618     1   109.5600471 388.275200
    604    615    619     1   109.5600471 388.275200
    605    604    606     1   109.5600471 388.275200
    605    607    611     1   109.5600471 388.275200
    605    625    626     1   107.2600461 396.643200
    606    604    615     1   109.5600471 388.275200
    606    604    622     1   109.7800468 425.094400
    607    605    624     1   109.5600471 388.275200
    607    608    610     1   109.5600471 388.275200
    607    614    616     1   107.2600461 396.643200
    608    607    611     1   109.5600471 388.275200
    608    609    612     1   110.2200475 386.601600
    608    627    617     1   109.2900470 396.643200
    609    608    610     1   109.5600471 388.275200
    609    613    623     1   107.2600461 396.643200
    610    608    627     1   109.8800469 414.216000
    611    607    614     1   110.2600474 425.931200
    612    609    613     1   109.4300470 427.604800
    612    609    622     1   109.5800467 425.931200
    615    620    621     1   107.2600461 396.643200
    618    615    620     1   110.2600474 425.931200
    618    615    619     1   108.4600466 328.025600
    619    615    620     1   110.2600474 425.931200
    624    605    625     1   110.2600474 425.931200
    628    629    648     1   109.5600471 388.275200
    628    639    642     1   109.5600471 388.275200
    628    639    643     1   109.5600471 388.275200
    629    628    630     1   109.5600471 388.275200
    629    631    635     1   109.5600471 388.275200
    629    649    650     1   107.2600461 396.643200
    630    628    639     1   109.5600471 388.275200
    630    628    646     1   109.7800468 425.094400
    631    629    648     1   109.5600471 388.275200
    631    632    634     1   109.5600471 388.275200
    631    638    640     1   107.2600461 396.643200
    632    631    635     1   109.5600471 388.275200
    632    633    636     1   110.2200475 386.601600
    632    651    641     1   109.2900470 396.643200
    633    632    634     1   109.5600471 388.275200
    633    637    647     1   107.2600461 396.643200
    634    632    651     1   109.8800469 414.216000
    635    631    638     1   110.2600474 425.931200
    636    633    637     1   109.4300470 427.604800
    636    633    646     1   109.5800467 425.931200
    639    644    645     1   107.2600461 396.643200
    642    639    644     1   110.2600474 425.931200
    642    639    643     1   108.4600466 328.025600
    643    639    644     1   110.2600474 425.931200
    648    629    649     1   110.2600474 425.931200
    652    654    655     1   108.8800464 416.726400
    652    654    657     1   108.8800464 416.726400
    653    652    654     1   117.6800502 383.254400
    654    656    658     1   109.5600471 388.275200
    654    656    659     1   109.5600471 388.275200
    655    654    656     1   109.5600471 388.275200
    655    654    657     1   108.4600466 328.025600
    656    654    657     1   109.5600471 388.275200
    658    656    660     1   109.8800469 414.216000
    658    656    659     1   108.4600466 328.025600
    659    656    660     1   109.8800469 414.216000
    660    661    670     1   109.8800469 414.216000
    660    661    671     1   109.8800469 414.216000
    660    662    663     1   109.8800469 414.216000
    660    662    665     1   109.8800469 414.216000
    661    672    673     1   109.8000471 387.438400
    661    672    674     1   109.8000471 387.438400
    662    664    666     1   109.8000471 387.438400
    662    664    667     1   109.8000471 387.438400
    663    662    664     1   109.5600471 388.275200
    663    662    665     1   108.4600466 328.025600
    664    662    665     1   109.5600471 388.275200
    666    664    668     1   108.7700466 392.459200
    666    664    667     1   107.5800459 329.699200
    667    664    668     1   108.7700466 392.459200
    668    700    690     1   119.3800509 410.868800
    670    661    672     1   109.5600471 388.275200
    670    661    671     1   108.4600466 328.025600
    671    661    672     1   109.5600471 388.275200
    673    672    675     1   108.7700466 392.459200
    673    672    674     1   107.5800459 329.699200
    674    672    675     1   108.7700466 392.459200
    675    724    714     1   119.3800509 410.868800
    677    678    697     1   109.5600471 388.275200
    677    688    691     1   109.5600471 388.275200
    677    688    692     1   109.5600471 388.275200
    678    680    684     1   109.5600471 388.275200
    678    698    699     1   107.2600461 396.643200
    678    677    679     1   109.5600471 388.275200
    679    677    688     1   109.5600471 388.275200
    679    677    695     1   109.7800468 425.094400
    680    681    683     1   109.5600471 388.275200
    680    687    689     1   107.2600461 396.643200
    680    678    697     1   109.5600471 388.275200
    681    682    685     1   110.2200475 386.601600
    681    700    690     1   109.2900470 396.643200
    681    680    684     1   109.5600471 388.275200
    682    686    696     1   107.2600461 396.643200
    682    681    683     1   109.5600471 388.275200
    683    681    700     1   109.8800469 414.216000
    684    680    687     1   110.2600474 425.931200
    685    682    686     1   109.4300470 427.604800
    685    682    695     1   109.5800467 425.931200
    688    693    694     1   107.2600461 396.643200
    691    688    693     1   110.2600474 425.931200
    691    688    692     1   108.4600466 328.025600
    692    688    693     1   110.2600474 425.931200
    697    678    698     1   110.2600474 425.931200
    701    702    721     1   109.5600471 388.275200
    701    712    715     1   109.5600471 388.275200
    701    712    716     1   109.5600471 388.275200
    702    704    708     1   109.5600471 388.275200
    702    722    723     1   107.2600461 396.643200
    702    701    703     1   109.5600471 388.275200
    703    701    712     1   109.5600471 388.275200
    703    701    719     1   109.7800468 425.094400
    704    705    707     1   109.5600471 388.275200
    704    711    713     1   107.2600461 396.643200
    704    702    721     1   109.5600471 388.275200
    705    706    709     1   110.2200475 386.601600
    705    724    714     1   109.2900470 396.643200
    705    704    708     1   109.5600471 388.275200
    706    710    720     1   107.2600461 396.643200
    706    705    707     1   109.5600471 388.275200
    707    705    724     1   109.8800469 414.216000
    708    704    711     1   110.2600474 425.931200
    709    706    710     1   109.4300470 427.604800
    709    706    719     1   109.5800467 425.931200
    712    717    718     1   107.2600461 396.643200
    715    712    717     1   110.2600474 425.931200
    715    712    716     1   108.4600466 328.025600
    716    712    717     1   110.2600474 425.931200
    721    702    722     1   110.2600474 425.931200

[ dihedrals ]
;    ai     aj     ak     al funct         c0         c1         c2         c3         c4         c5
      1      4      7     15     1  180.0000771  2.0083200  2
      1      4      7     15     1  0.0000000  1.2552000  3
      1      4      7     18     1  180.0000771  2.0083200  2
      1      4      7     18     1  0.0000000  1.2552000  3
      1      8      9     30     1  180.0000771  2.0083200  2
      1      8      9     30     1  0.0000000  1.2552000  3
      1      8     12     27     1  180.0000771  2.0083200  2
      1      8     12     27     1  0.0000000  1.2552000  3
      4      1      8      9     1  180.0000771  2.0083200  2
      4      1      8      9     1  0.0000000  1.2552000  3
      4      1      8     12     1  180.0000771  2.0083200  2
      4      1      8     12     1  0.0000000  1.2552000  3
      4      7     15     21     1  180.0000771  2.0083200  2
      4      7     15     21     1  0.0000000  1.2552000  3
      4      7     18     24     1  180.0000771  2.0083200  2
      4      7     18     24     1  0.0000000  1.2552000  3
      8      1      4      7     1  0.0000000  0.6508444  3
      7     15     21     35     1  0.0000000  0.6508444  3
      7     18     24     36     1  0.0000000  0.6508444  3
      8      9     30     34     1  0.0000000  0.6508444  3
      8     12     27     33     1  0.0000000  0.6508444  3
      9      8     12     27     1  180.0000771  2.0083200  2
      9      8     12     27     1  0.0000000  1.2552000  3
      9     30     34     40     1  180.0000771  0.0000000  2
      9     30     34     89     1  0.0000000  0.2928800  2
      9     30     34     89     1  0.0000000  0.4184000  4
     12      8      9     30     1  180.0000771  2.0083200  2
     12      8      9     30     1  0.0000000  1.2552000  3
     12     27     33     37     1  180.0000771  0.0000000  2
     12     27     33     64     1  0.0000000  0.2928800  2
     12     27     33     64     1  0.0000000  0.4184000  4
     15      7     18     24     1  180.0000771  2.0083200  2
     15      7     18     24     1  0.0000000  1.2552000  3
     15     21     35     38     1  180.0000771  0.0000000  2
     15     21     35    114     1  0.0000000  0.2928800  2
     15     21     35    114     1  0.0000000  0.4184000  4
     18      7     15     21     1  180.0000771  2.0083200  2
     18      7     15     21     1  0.0000000  1.2552000  3
     18     24     36     39     1  180.0000771  0.0000000  2
     18     24     36    139     1  0.0000000  0.2928800  2
     18     24     36    139     1  0.0000000  0.4184000  4
     21     35    114     94     1  180.0000771  6.2760000  1
     21     35    114     94     1  0.0000000  0.0000000  2
     24     36    139    119     1  180.0000771  6.2760000  1
     24     36    139    119     1  0.0000000  0.0000000  2
     27     33     64     44     1  180.0000771  6.2760000  1
     27     33     64     44     1  0.0000000  0.0000000  2
     30     34     89     69     1  180.0000771  6.2760000  1
     30     34     89     69     1  0.0000000  0.0000000  2
     33     64     44     41     1  0.0000000  2.2175200  1
     33     64     44     41     1  0.0000000  0.0000000  2
     33     64     44     41     1  180.0000771  0.6276000  3
     33     64     44     41     1  180.0000771  2.0920000  4
     34     89     69     66     1  0.0000000  2.2175200  1
     34     89     69     66     1  0.0000000  0.0000000  2
     34     89     69     66     1  180.0000771  0.6276000  3
     34     89     69     66     1  180.0000771  2.0920000  4
     35    114     94     91     1  0.0000000  2.2175200  1
     35    114     94     91     1  0.0000000  0.0000000  2
     35    114     94     91     1  180.0000771  0.6276000  3
     35    114     94     91     1  180.0000771  2.0920000  4
     36    139    119    116     1  0.0000000  2.2175200  1
     36    139    119    116     1  0.0000000  0.0000000  2
     36    139    119    116     1  180.0000771  0.6276000  3
     36    139    119    116     1  180.0000771  2.0920000  4
     37     33     64     44     1  180.0000771  10.4600000  2
     38     35    114     94     1  180.0000771  10.4600000  2
     39     36    139    119     1  180.0000771  10.4600000  2
     40     34     89     69     1  180.0000771  10.4600000  2
     41     47     48     57     1  180.0000771  2.0083200  2
     41     47     48     57     1  0.0000000  1.2552000  3
     41     47     51     54     1  180.0000771  2.0083200  2
     41     47     51     54     1  0.0000000  1.2552000  3
     44     41     47     48     1  180.0000771  2.0083200  2
     44     41     47     48     1  0.0000000  1.2552000  3
     44     41     47     51     1  180.0000771  2.0083200  2
     44     41     47     51     1  0.0000000  1.2552000  3
     47     41     44     64     1  0.0000000  0.6508444  3
     47     48     57     61     1  0.0000000  0.6508444  3
     47     51     54     60     1  0.0000000  0.6508444  3
     48     47     51     54     1  180.0000771  2.0083200  2
     48     47     51     54     1  0.0000000  1.2552000  3
     48     57     61     63     1  180.0000771  0.0000000  2
     48     57     61    214     1  0.0000000  0.2928800  2
     48     57     61    214     1  0.0000000  0.4184000  4
     51     47     48     57     1  180.0000771  2.0083200  2
     51     47     48     57     1  0.0000000  1.2552000  3
     51     54     60    141     1  0.0000000  0.2928800  2
     51     54     60    141     1  0.0000000  0.4184000  4
     51     54     60     62     1  180.0000771  0.0000000  2
     54     60    141    143     1  180.0000771  6.2760000  1
     54     60    141    143     1  0.0000000  0.0000000  2
     57     61    214    216     1  180.0000771  6.2760000  1
     57     61    214    216     1  0.0000000  0.0000000  2
     60    141    143    145     1  0.0000000  2.2175200  1
     60    141    143    145     1  0.0000000  0.0000000  2
     60    141    143    145     1  180.0000771  0.6276000  3
     60    141    143    145     1  180.0000771  2.0920000  4
     61    214    216    218     1  0.0000000  2.2175200  1
     61    214    216    218     1  0.0000000  0.0000000  2
     61    214    216    218     1  180.0000771  0.6276000  3
     61    214    216    218     1  180.0000771  2.0920000  4
     62     60    141    143     1  180.0000771  10.4600000  2
     63     61    214    216     1  180.0000771  10.4600000  2
     66     72     73     82     1  180.0000771  2.0083200  2
     66     72     73     82     1  0.0000000  1.2552000  3
     66     72     76     79     1  180.0000771  2.0083200  2
     66     72     76     79     1  0.0000000  1.2552000  3
     69     66     72     73     1  180.0000771  2.0083200  2
     69     66     72     73     1  0.0000000  1.2552000  3
     69     66     72     76     1  180.0000771  2.0083200  2
     69     66     72     76     1  0.0000000  1.2552000  3
     72     66     69     89     1  0.0000000  0.6508444  3
     72     73     82     86     1  0.0000000  0.6508444  3
     72     76     79     85     1  0.0000000  0.6508444  3
     73     72     76     79     1  180.0000771  2.0083200  2
     73     72     76     79     1  0.0000000  1.2552000  3
     73     82     86     88     1  180.0000771  0.0000000  2
     73     82     86    360     1  0.0000000  0.2928800  2
     73     82     86    360     1  0.0000000  0.4184000  4
     76     72     73     82     1  180.0000771  2.0083200  2
     76     72     73     82     1  0.0000000  1.2552000  3
     76     79     85    287     1  0.0000000  0.2928800  2
     76     79     85    287     1  0.0000000  0.4184000  4
     76     79     85     87     1  180.0000771  0.0000000  2
     79     85    287    289     1  180.0000771  6.2760000  1
     79     85    287    289     1  0.0000000  0.0000000  2
     82     86    360    362     1  180.0000771  6.2760000  1
     82     86    360    362     1  0.0000000  0.0000000  2
     85    287    289    291     1  0.0000000  2.2175200  1
     85    287    289    291     1  0.0000000  0.0000000  2
     85    287    289    291     1  180.0000771  0.6276000  3
     85    287    289    291     1  180.0000771  2.0920000  4
     86    360    362    364     1  0.0000000  2.2175200  1
     86    360    362    364     1  0.0000000  0.0000000  2
     86    360    362    364     1  180.0000771  0.6276000  3
     86    360    362    364     1  180.0000771  2.0920000  4
     87     85    287    289     1  180.0000771  10.4600000  2
     88     86    360    362     1  180.0000771  10.4600000  2
     91     97     98    107     1  180.0000771  2.0083200  2
     91     97     98    107     1  0.0000000  1.2552000  3
     91     97    101    104     1  180.0000771  2.0083200  2
     91     97    101    104     1  0.0000000  1.2552000  3
     94     91     97     98     1  180.0000771  2.0083200  2
     94     91     97     98     1  0.0000000  1.2552000  3
     94     91     97    101     1  180.0000771  2.0083200  2
     94     91     97    101     1  0.0000000  1.2552000  3
     97     91     94    114     1  0.0000000  0.6508444  3
     97     98    107    111     1  0.0000000  0.6508444  3
     97    101    104    110     1  0.0000000  0.6508444  3
     98     97    101    104     1  180.0000771  2.0083200  2
     98     97    101    104     1  0.0000000  1.2552000  3
     98    107    111    113     1  180.0000771  0.0000000  2
     98    107    111    506     1  0.0000000  0.2928800  2
     98    107    111    506     1  0.0000000  0.4184000  4
    101     97     98    107     1  180.0000771  2.0083200  2
    101     97     98    107     1  0.0000000  1.2552000  3
    101    104    110    433     1  0.0000000  0.2928800  2
    101    104    110    433     1  0.0000000  0.4184000  4
    101    104    110    112     1  180.0000771  0.0000000  2
    104    110    433    435     1  180.0000771  6.2760000  1
    104    110    433    435     1  0.0000000  0.0000000  2
    107    111    506    508     1  180.0000771  6.2760000  1
    107    111    506    508     1  0.0000000  0.0000000  2
    110    433    435    437     1  0.0000000  2.2175200  1
    110    433    435    437     1  0.0000000  0.0000000  2
    110    433    435    437     1  180.0000771  0.6276000  3
    110    433    435    437     1  180.0000771  2.0920000  4
    111    506    508    510     1  0.0000000  2.2175200  1
    111    506    508    510     1  0.0000000  0.0000000  2
    111    506    508    510     1  180.0000771  0.6276000  3
    111    506    508    510     1  180.0000771  2.0920000  4
    112    110    433    435     1  180.0000771  10.4600000  2
    113    111    506    508     1  180.0000771  10.4600000  2
    116    122    123    132     1  180.0000771  2.0083200  2
    116    122    123    132     1  0.0000000  1.2552000  3
    116    122    126    129     1  180.0000771  2.0083200  2
    116    122    126    129     1  0.0000000  1.2552000  3
    119    116    122    123     1  180.0000771  2.0083200  2
    119    116    122    123     1  0.0000000  1.2552000  3
    119    116    122    126     1  180.0000771  2.0083200  2
    119    116    122    126     1  0.0000000  1.2552000  3
    122    116    119    139     1  0.0000000  0.6508444  3
    122    123    132    136     1  0.0000000  0.6508444  3
    122    126    129    135     1  0.0000000  0.6508444  3
    123    122    126    129     1  180.0000771  2.0083200  2
    123    122    126    129     1  0.0000000  1.2552000  3
    123    132    136    652     1  0.0000000  0.2928800  2
    123    132    136    652     1  0.0000000  0.4184000  4
    123    132    136    138     1  180.0000771  0.0000000  2
    126    122    123    132     1  180.0000771  2.0083200  2
    126    122    123    132     1  0.0000000  1.2552000  3
    126    129    135    579     1  0.0000000  0.2928800  2
    126    129    135    579     1  0.0000000  0.4184000  4
    126    129    135    137     1  180.0000771  0.0000000  2
    129    135    579    581     1  180.0000771  6.2760000  1
    129    135    579    581     1  0.0000000  0.0000000  2
    132    136    652    654     1  180.0000771  6.2760000  1
    132    136    652    654     1  0.0000000  0.0000000  2
    135    579    581    583     1  0.0000000  2.2175200  1
    135    579    581    583     1  0.0000000  0.0000000  2
    135    579    581    583     1  180.0000771  0.6276000  3
    135    579    581    583     1  180.0000771  2.0920000  4
    136    652    654    656     1  0.0000000  2.2175200  1
    136    652    654    656     1  0.0000000  0.0000000  2
    136    652    654    656     1  180.0000771  0.6276000  3
    136    652    654    656     1  180.0000771  2.0920000  4
    137    135    579    581     1  180.0000771  10.4600000  2
    138    136    652    654     1  180.0000771  10.4600000  2
    141    143    145    149     1  0.0000000  0.6508444  3
    143    145    149    150     1  180.0000771  2.0083200  2
    143    145    149    150     1  0.0000000  1.2552000  3
    143    145    149    151     1  180.0000771  2.0083200  2
    143    145    149    151     1  0.0000000  1.2552000  3
    145    149    150    161     1  180.0000771  2.0083200  2
    145    149    150    161     1  0.0000000  1.2552000  3
    145    149    151    153     1  180.0000771  2.0083200  2
    145    149    151    153     1  0.0000000  1.2552000  3
    149    150    161    164     1  0.0000000  0.6508444  3
    149    151    153    157     1  0.0000000  0.6508444  3
    150    149    151    153     1  180.0000771  2.0083200  2
    150    149    151    153     1  0.0000000  1.2552000  3
    150    161    164    165     1  180.0000771  0.0000000  2
    150    161    164    213     1  180.0000771  0.0000000  2
    151    149    150    161     1  180.0000771  2.0083200  2
    151    149    150    161     1  0.0000000  1.2552000  3
    151    153    157    158     1  180.0000771  0.0000000  2
    151    153    157    189     1  180.0000771  0.0000000  2
    153    157    189    170     1  180.0000771  6.0668000  2
    153    157    189    170     1  180.0000771  1.4644000  4
    157    189    170    169     1  0.0000000  1.2552000  3
    157    189    170    171     1  0.0000000  1.2552000  3
    158    157    189    170     1  180.0000771  6.0668000  2
    158    157    189    170     1  180.0000771  1.4644000  4
    161    164    213    194     1  180.0000771  6.0668000  2
    161    164    213    194     1  180.0000771  1.4644000  4
    164    213    194    193     1  0.0000000  1.2552000  3
    164    213    194    195     1  0.0000000  1.2552000  3
    165    164    213    194     1  180.0000771  6.0668000  2
    165    164    213    194     1  180.0000771  1.4644000  4
    166    167    169    170     1  180.0000771  0.8368000  1
    166    167    169    170     1  180.0000771  1.0460000  2
    166    167    169    170     1  0.0000000  0.7531200  3
    166    167    169    176     1  0.0000000  0.6508444  3
    166    184    171    170     1  180.0000771  0.4184000  2
    166    184    171    170     1  0.0000000  1.6024720  3
    166    184    171    175     1  0.0000000  1.6038667  3
    167    166    177    182     1  0.0000000  0.6508444  3
    167    166    184    171     1  180.0000771  0.4184000  2
    167    166    184    171     1  0.0000000  1.6024720  3
    167    169    170    171     1  180.0000771  0.8368000  1
    167    169    170    171     1  180.0000771  1.0460000  2
    167    169    170    171     1  0.0000000  0.7531200  3
    167    169    170    189     1  0.0000000  0.6508444  3
    169    167    166    177     1  180.0000771  0.8368000  1
    169    167    166    177     1  180.0000771  1.0460000  2
    169    167    166    177     1  0.0000000  0.7531200  3
    169    167    166    184     1  0.0000000  0.6508444  3
    169    170    171    175     1  0.0000000  0.6508444  3
    169    170    171    184     1  0.0000000  0.6508444  3
    170    169    167    187     1  0.0000000  0.6508444  3
    171    170    169    176     1  0.0000000  0.6508444  3
    171    184    166    177     1  180.0000771  0.4184000  2
    171    184    166    177     1  0.0000000  1.6024720  3
    175    171    170    189     1  0.0000000  0.6508444  3
    176    169    167    187     1  0.0000000  4.9162000  2
    176    169    167    187     1  0.0000000  0.6024960  3
    176    169    170    189     1  0.0000000  0.6508444  3
    177    166    167    187     1  0.0000000  0.6508444  3
    182    177    166    184     1  0.0000000  4.9162000  2
    182    177    166    184     1  0.0000000  0.6024960  3
    184    166    167    187     1  0.0000000  4.9162000  2
    184    166    167    187     1  0.0000000  0.6024960  3
    184    171    170    189     1  0.0000000  0.6508444  3
    190    191    193    194     1  180.0000771  0.8368000  1
    190    191    193    194     1  180.0000771  1.0460000  2
    190    191    193    194     1  0.0000000  0.7531200  3
    190    191    193    200     1  0.0000000  0.6508444  3
    190    208    195    194     1  180.0000771  0.4184000  2
    190    208    195    194     1  0.0000000  1.6024720  3
    190    208    195    199     1  0.0000000  1.6038667  3
    191    190    201    206     1  0.0000000  0.6508444  3
    191    190    208    195     1  180.0000771  0.4184000  2
    191    190    208    195     1  0.0000000  1.6024720  3
    191    193    194    195     1  180.0000771  0.8368000  1
    191    193    194    195     1  180.0000771  1.0460000  2
    191    193    194    195     1  0.0000000  0.7531200  3
    191    193    194    213     1  0.0000000  0.6508444  3
    193    191    190    201     1  180.0000771  0.8368000  1
    193    191    190    201     1  180.0000771  1.0460000  2
    193    191    190    201     1  0.0000000  0.7531200  3
    193    191    190    208     1  0.0000000  0.6508444  3
    193    194    195    199     1  0.0000000  0.6508444  3
    193    194    195    208     1  0.0000000  0.6508444  3
    194    193    191    211     1  0.0000000  0.6508444  3
    195    194    193    200     1  0.0000000  0.6508444  3
    195    208    190    201     1  180.0000771  0.4184000  2
    195    208    190    201     1  0.0000000  1.6024720  3
    199    195    194    213     1  0.0000000  0.6508444  3
    200    193    191    211     1  0.0000000  4.9162000  2
    200    193    191    211     1  0.0000000  0.6024960  3
    200    193    194    213     1  0.0000000  0.6508444  3
    201    190    191    211     1  0.0000000  0.6508444  3
    206    201    190    208     1  0.0000000  4.9162000  2
    206    201    190    208     1  0.0000000  0.6024960  3
    208    190    191    211     1  0.0000000  4.9162000  2
    208    190    191    211     1  0.0000000  0.6024960  3
    208    195    194    213     1  0.0000000  0.6508444  3
    214    216    218    222     1  0.0000000  0.6508444  3
    216    218    222    223     1  180.0000771  2.0083200  2
    216    218    222    223     1  0.0000000  1.2552000  3
    216    218    222    224     1  180.0000771  2.0083200  2
    216    218    222    224     1  0.0000000  1.2552000  3
    218    222    223    234     1  180.0000771  2.0083200  2
    218    222    223    234     1  0.0000000  1.2552000  3
    218    222    224    226     1  180.0000771  2.0083200  2
    218    222    224    226     1  0.0000000  1.2552000  3
    222    223    234    237     1  0.0000000  0.6508444  3
    222    224    226    230     1  0.0000000  0.6508444  3
    223    234    237    238     1  180.0000771  0.0000000  2
    223    234    237    286     1  180.0000771  0.0000000  2
    223    222    224    226     1  180.0000771  2.0083200  2
    223    222    224    226     1  0.0000000  1.2552000  3
    224    226    230    231     1  180.0000771  0.0000000  2
    224    226    230    262     1  180.0000771  0.0000000  2
    224    222    223    234     1  180.0000771  2.0083200  2
    224    222    223    234     1  0.0000000  1.2552000  3
    226    230    262    243     1  180.0000771  6.0668000  2
    226    230    262    243     1  180.0000771  1.4644000  4
    230    262    243    244     1  0.0000000  1.2552000  3
    230    262    243    242     1  0.0000000  1.2552000  3
    231    230    262    243     1  180.0000771  6.0668000  2
    231    230    262    243     1  180.0000771  1.4644000  4
    234    237    286    267     1  180.0000771  6.0668000  2
    234    237    286    267     1  180.0000771  1.4644000  4
    237    286    267    268     1  0.0000000  1.2552000  3
    237    286    267    266     1  0.0000000  1.2552000  3
    238    237    286    267     1  180.0000771  6.0668000  2
    238    237    286    267     1  180.0000771  1.4644000  4
    239    240    242    243     1  180.0000771  0.8368000  1
    239    240    242    243     1  180.0000771  1.0460000  2
    239    240    242    243     1  0.0000000  0.7531200  3
    239    240    242    249     1  0.0000000  0.6508444  3
    239    257    244    248     1  0.0000000  1.6038667  3
    239    257    244    243     1  180.0000771  0.4184000  2
    239    257    244    243     1  0.0000000  1.6024720  3
    240    242    243    244     1  180.0000771  0.8368000  1
    240    242    243    244     1  180.0000771  1.0460000  2
    240    242    243    244     1  0.0000000  0.7531200  3
    240    242    243    262     1  0.0000000  0.6508444  3
    240    239    250    255     1  0.0000000  0.6508444  3
    240    239    257    244     1  180.0000771  0.4184000  2
    240    239    257    244     1  0.0000000  1.6024720  3
    242    243    244    248     1  0.0000000  0.6508444  3
    242    243    244    257     1  0.0000000  0.6508444  3
    242    240    239    250     1  180.0000771  0.8368000  1
    242    240    239    250     1  180.0000771  1.0460000  2
    242    240    239    250     1  0.0000000  0.7531200  3
    242    240    239    257     1  0.0000000  0.6508444  3
    243    242    240    260     1  0.0000000  0.6508444  3
    244    257    239    250     1  180.0000771  0.4184000  2
    244    257    239    250     1  0.0000000  1.6024720  3
    244    243    242    249     1  0.0000000  0.6508444  3
    248    244    243    262     1  0.0000000  0.6508444  3
    249    242    243    262     1  0.0000000  0.6508444  3
    249    242    240    260     1  0.0000000  4.9162000  2
    249    242    240    260     1  0.0000000  0.6024960  3
    250    239    240    260     1  0.0000000  0.6508444  3
    255    250    239    257     1  0.0000000  4.9162000  2
    255    250    239    257     1  0.0000000  0.6024960  3
    257    244    243    262     1  0.0000000  0.6508444  3
    257    239    240    260     1  0.0000000  4.9162000  2
    257    239    240    260     1  0.0000000  0.6024960  3
    263    264    266    267     1  180.0000771  0.8368000  1
    263    264    266    267     1  180.0000771  1.0460000  2
    263    264    266    267     1  0.0000000  0.7531200  3
    263    264    266    273     1  0.0000000  0.6508444  3
    263    281    268    272     1  0.0000000  1.6038667  3
    263    281    268    267     1  180.0000771  0.4184000  2
    263    281    268    267     1  0.0000000  1.6024720  3
    264    266    267    268     1  180.0000771  0.8368000  1
    264    266    267    268     1  180.0000771  1.0460000  2
    264    266    267    268     1  0.0000000  0.7531200  3
    264    266    267    286     1  0.0000000  0.6508444  3
    264    263    274    279     1  0.0000000  0.6508444  3
    264    263    281    268     1  180.0000771  0.4184000  2
    264    263    281    268     1  0.0000000  1.6024720  3
    266    267    268    272     1  0.0000000  0.6508444  3
    266    267    268    281     1  0.0000000  0.6508444  3
    266    264    263    274     1  180.0000771  0.8368000  1
    266    264    263    274     1  180.0000771  1.0460000  2
    266    264    263    274     1  0.0000000  0.7531200  3
    266    264    263    281     1  0.0000000  0.6508444  3
    267    266    264    284     1  0.0000000  0.6508444  3
    268    281    263    274     1  180.0000771  0.4184000  2
    268    281    263    274     1  0.0000000  1.6024720  3
    268    267    266    273     1  0.0000000  0.6508444  3
    272    268    267    286     1  0.0000000  0.6508444  3
    273    266    267    286     1  0.0000000  0.6508444  3
    273    266    264    284     1  0.0000000  4.9162000  2
    273    266    264    284     1  0.0000000  0.6024960  3
    274    263    264    284     1  0.0000000  0.6508444  3
    279    274    263    281     1  0.0000000  4.9162000  2
    279    274    263    281     1  0.0000000  0.6024960  3
    281    268    267    286     1  0.0000000  0.6508444  3
    281    263    264    284     1  0.0000000  4.9162000  2
    281    263    264    284     1  0.0000000  0.6024960  3
    287    289    291    295     1  0.0000000  0.6508444  3
    289    291    295    296     1  180.0000771  2.0083200  2
    289    291    295    296     1  0.0000000  1.2552000  3
    289    291    295    297     1  180.0000771  2.0083200  2
    289    291    295    297     1  0.0000000  1.2552000  3
    291    295    296    307     1  180.0000771  2.0083200  2
    291    295    296    307     1  0.0000000  1.2552000  3
    291    295    297    299     1  180.0000771  2.0083200  2
    291    295    297    299     1  0.0000000  1.2552000  3
    295    296    307    310     1  0.0000000  0.6508444  3
    295    297    299    303     1  0.0000000  0.6508444  3
    296    295    297    299     1  180.0000771  2.0083200  2
    296    295    297    299     1  0.0000000  1.2552000  3
    296    307    310    311     1  180.0000771  0.0000000  2
    296    307    310    359     1  180.0000771  0.0000000  2
    297    295    296    307     1  180.0000771  2.0083200  2
    297    295    296    307     1  0.0000000  1.2552000  3
    297    299    303    304     1  180.0000771  0.0000000  2
    297    299    303    335     1  180.0000771  0.0000000  2
    299    303    335    316     1  180.0000771  6.0668000  2
    299    303    335    316     1  180.0000771  1.4644000  4
    303    335    316    315     1  0.0000000  1.2552000  3
    303    335    316    317     1  0.0000000  1.2552000  3
    304    303    335    316     1  180.0000771  6.0668000  2
    304    303    335    316     1  180.0000771  1.4644000  4
    307    310    359    340     1  180.0000771  6.0668000  2
    307    310    359    340     1  180.0000771  1.4644000  4
    310    359    340    339     1  0.0000000  1.2552000  3
    310    359    340    341     1  0.0000000  1.2552000  3
    311    310    359    340     1  180.0000771  6.0668000  2
    311    310    359    340     1  180.0000771  1.4644000  4
    312    313    315    316     1  180.0000771  0.8368000  1
    312    313    315    316     1  180.0000771  1.0460000  2
    312    313    315    316     1  0.0000000  0.7531200  3
    312    313    315    322     1  0.0000000  0.6508444  3
    312    330    317    316     1  180.0000771  0.4184000  2
    312    330    317    316     1  0.0000000  1.6024720  3
    312    330    317    321     1  0.0000000  1.6038667  3
    313    312    323    328     1  0.0000000  0.6508444  3
    313    312    330    317     1  180.0000771  0.4184000  2
    313    312    330    317     1  0.0000000  1.6024720  3
    313    315    316    317     1  180.0000771  0.8368000  1
    313    315    316    317     1  180.0000771  1.0460000  2
    313    315    316    317     1  0.0000000  0.7531200  3
    313    315    316    335     1  0.0000000  0.6508444  3
    315    313    312    323     1  180.0000771  0.8368000  1
    315    313    312    323     1  180.0000771  1.0460000  2
    315    313    312    323     1  0.0000000  0.7531200  3
    315    313    312    330     1  0.0000000  0.6508444  3
    315    316    317    321     1  0.0000000  0.6508444  3
    315    316    317    330     1  0.0000000  0.6508444  3
    316    315    313    333     1  0.0000000  0.6508444  3
    317    316    315    322     1  0.0000000  0.6508444  3
    317    330    312    323     1  180.0000771  0.4184000  2
    317    330    312    323     1  0.0000000  1.6024720  3
    321    317    316    335     1  0.0000000  0.6508444  3
    322    315    313    333     1  0.0000000  4.9162000  2
    322    315    313    333     1  0.0000000  0.6024960  3
    322    315    316    335     1  0.0000000  0.6508444  3
    323    312    313    333     1  0.0000000  0.6508444  3
    328    323    312    330     1  0.0000000  4.9162000  2
    328    323    312    330     1  0.0000000  0.6024960  3
    330    312    313    333     1  0.0000000  4.9162000  2
    330    312    313    333     1  0.0000000  0.6024960  3
    330    317    316    335     1  0.0000000  0.6508444  3
    336    337    339    340     1  180.0000771  0.8368000  1
    336    337    339    340     1  180.0000771  1.0460000  2
    336    337    339    340     1  0.0000000  0.7531200  3
    336    337    339    346     1  0.0000000  0.6508444  3
    336    354    341    340     1  180.0000771  0.4184000  2
    336    354    341    340     1  0.0000000  1.6024720  3
    336    354    341    345     1  0.0000000  1.6038667  3
    337    336    347    352     1  0.0000000  0.6508444  3
    337    336    354    341     1  180.0000771  0.4184000  2
    337    336    354    341     1  0.0000000  1.6024720  3
    337    339    340    341     1  180.0000771  0.8368000  1
    337    339    340    341     1  180.0000771  1.0460000  2
    337    339    340    341     1  0.0000000  0.7531200  3
    337    339    340    359     1  0.0000000  0.6508444  3
    339    337    336    347     1  180.0000771  0.8368000  1
    339    337    336    347     1  180.0000771  1.0460000  2
    339    337    336    347     1  0.0000000  0.7531200  3
    339    337    336    354     1  0.0000000  0.6508444  3
    339    340    341    345     1  0.0000000  0.6508444  3
    339    340    341    354     1  0.0000000  0.6508444  3
    340    339    337    357     1  0.0000000  0.6508444  3
    341    340    339    346     1  0.0000000  0.6508444  3
    341    354    336    347     1  180.0000771  0.4184000  2
    341    354    336    347     1  0.0000000  1.6024720  3
    345    341    340    359     1  0.0000000  0.6508444  3
    346    339    337    357     1  0.0000000  4.9162000  2
    346    339    337    357     1  0.0000000  0.6024960  3
    346    339    340    359     1  0.0000000  0.6508444  3
    347    336    337    357     1  0.0000000  0.6508444  3
    352    347    336    354     1  0.0000000  4.9162000  2
    352    347    336    354     1  0.0000000  0.6024960  3
    354    336    337    357     1  0.0000000  4.9162000  2
    354    336    337    357     1  0.0000000  0.6024960  3
    354    341    340    359     1  0.0000000  0.6508444  3
    360    362    364    368     1  0.0000000  0.6508444  3
    362    364    368    369     1  180.0000771  2.0083200  2
    362    364    368    369     1  0.0000000  1.2552000  3
    362    364    368    370     1  180.0000771  2.0083200  2
    362    364    368    370     1  0.0000000  1.2552000  3
    364    368    369    380     1  180.0000771  2.0083200  2
    364    368    369    380     1  0.0000000  1.2552000  3
    364    368    370    372     1  180.0000771  2.0083200  2
    364    368    370    372     1  0.0000000  1.2552000  3
    368    369    380    383     1  0.0000000  0.6508444  3
    368    370    372    376     1  0.0000000  0.6508444  3
    369    380    383    384     1  180.0000771  0.0000000  2
    369    380    383    432     1  180.0000771  0.0000000  2
    369    368    370    372     1  180.0000771  2.0083200  2
    369    368    370    372     1  0.0000000  1.2552000  3
    370    372    376    377     1  180.0000771  0.0000000  2
    370    372    376    408     1  180.0000771  0.0000000  2
    370    368    369    380     1  180.0000771  2.0083200  2
    370    368    369    380     1  0.0000000  1.2552000  3
    372    376    408    389     1  180.0000771  6.0668000  2
    372    376    408    389     1  180.0000771  1.4644000  4
    376    408    389    390     1  0.0000000  1.2552000  3
    376    408    389    388     1  0.0000000  1.2552000  3
    377    376    408    389     1  180.0000771  6.0668000  2
    377    376    408    389     1  180.0000771  1.4644000  4
    380    383    432    413     1  180.0000771  6.0668000  2
    380    383    432    413     1  180.0000771  1.4644000  4
    383    432    413    414     1  0.0000000  1.2552000  3
    383    432    413    412     1  0.0000000  1.2552000  3
    384    383    432    413     1  180.0000771  6.0668000  2
    384    383    432    413     1  180.0000771  1.4644000  4
    385    386    388    389     1  180.0000771  0.8368000  1
    385    386    388    389     1  180.0000771  1.0460000  2
    385    386    388    389     1  0.0000000  0.7531200  3
    385    386    388    395     1  0.0000000  0.6508444  3
    385    403    390    394     1  0.0000000  1.6038667  3
    385    403    390    389     1  180.0000771  0.4184000  2
    385    403    390    389     1  0.0000000  1.6024720  3
    386    388    389    390     1  180.0000771  0.8368000  1
    386    388    389    390     1  180.0000771  1.0460000  2
    386    388    389    390     1  0.0000000  0.7531200  3
    386    388    389    408     1  0.0000000  0.6508444  3
    386    385    396    401     1  0.0000000  0.6508444  3
    386    385    403    390     1  180.0000771  0.4184000  2
    386    385    403    390     1  0.0000000  1.6024720  3
    388    389    390    394     1  0.0000000  0.6508444  3
    388    389    390    403     1  0.0000000  0.6508444  3
    388    386    385    396     1  180.0000771  0.8368000  1
    388    386    385    396     1  180.0000771  1.0460000  2
    388    386    385    396     1  0.0000000  0.7531200  3
    388    386    385    403     1  0.0000000  0.6508444  3
    389    388    386    406     1  0.0000000  0.6508444  3
    390    403    385    396     1  180.0000771  0.4184000  2
    390    403    385    396     1  0.0000000  1.6024720  3
    390    389    388    395     1  0.0000000  0.6508444  3
    394    390    389    408     1  0.0000000  0.6508444  3
    395    388    389    408     1  0.0000000  0.6508444  3
    395    388    386    406     1  0.0000000  4.9162000  2
    395    388    386    406     1  0.0000000  0.6024960  3
    396    385    386    406     1  0.0000000  0.6508444  3
    401    396    385    403     1  0.0000000  4.9162000  2
    401    396    385    403     1  0.0000000  0.6024960  3
    403    390    389    408     1  0.0000000  0.6508444  3
    403    385    386    406     1  0.0000000  4.9162000  2
    403    385    386    406     1  0.0000000  0.6024960  3
    409    410    412    413     1  180.0000771  0.8368000  1
    409    410    412    413     1  180.0000771  1.0460000  2
    409    410    412    413     1  0.0000000  0.7531200  3
    409    410    412    419     1  0.0000000  0.6508444  3
    409    427    414    418     1  0.0000000  1.6038667  3
    409    427    414    413     1  180.0000771  0.4184000  2
    409    427    414    413     1  0.0000000  1.6024720  3
    410    412    413    414     1  180.0000771  0.8368000  1
    410    412    413    414     1  180.0000771  1.0460000  2
    410    412    413    414     1  0.0000000  0.7531200  3
    410    412    413    432     1  0.0000000  0.6508444  3
    410    409    420    425     1  0.0000000  0.6508444  3
    410    409    427    414     1  180.0000771  0.4184000  2
    410    409    427    414     1  0.0000000  1.6024720  3
    412    413    414    418     1  0.0000000  0.6508444  3
    412    413    414    427     1  0.0000000  0.6508444  3
    412    410    409    420     1  180.0000771  0.8368000  1
    412    410    409    420     1  180.0000771  1.0460000  2
    412    410    409    420     1  0.0000000  0.7531200  3
    412    410    409    427     1  0.0000000  0.6508444  3
    413    412    410    430     1  0.0000000  0.6508444  3
    414    427    409    420     1  180.0000771  0.4184000  2
    414    427    409    420     1  0.0000000  1.6024720  3
    414    413    412    419     1  0.0000000  0.6508444  3
    418    414    413    432     1  0.0000000  0.6508444  3
    419    412    413    432     1  0.0000000  0.6508444  3
    419    412    410    430     1  0.0000000  4.9162000  2
    419    412    410    430     1  0.0000000  0.6024960  3
    420    409    410    430     1  0.0000000  0.6508444  3
    425    420    409    427     1  0.0000000  4.9162000  2
    425    420    409    427     1  0.0000000  0.6024960  3
    427    414    413    432     1  0.0000000  0.6508444  3
    427    409    410    430     1  0.0000000  4.9162000  2
    427    409    410    430     1  0.0000000  0.6024960  3
    433    435    437    441     1  0.0000000  0.6508444  3
    435    437    441    442     1  180.0000771  2.0083200  2
    435    437    441    442     1  0.0000000  1.2552000  3
    435    437    441    443     1  180.0000771  2.0083200  2
    435    437    441    443     1  0.0000000  1.2552000  3
    437    441    442    453     1  180.0000771  2.0083200  2
    437    441    442    453     1  0.0000000  1.2552000  3
    437    441    443    445     1  180.0000771  2.0083200  2
    437    441    443    445     1  0.0000000  1.2552000  3
    441    442    453    456     1  0.0000000  0.6508444  3
    441    443    445    449     1  0.0000000  0.6508444  3
    442    441    443    445     1  180.0000771  2.0083200  2
    442    441    443    445     1  0.0000000  1.2552000  3
    442    453    456    457     1  180.0000771  0.0000000  2
    442    453    456    505     1  180.0000771  0.0000000  2
    443    441    442    453     1  180.0000771  2.0083200  2
    443    441    442    453     1  0.0000000  1.2552000  3
    443    445    449    450     1  180.0000771  0.0000000  2
    443    445    449    481     1  180.0000771  0.0000000  2
    445    449    481    462     1  180.0000771  6.0668000  2
    445    449    481    462     1  180.0000771  1.4644000  4
    449    481    462    461     1  0.0000000  1.2552000  3
    449    481    462    463     1  0.0000000  1.2552000  3
    450    449    481    462     1  180.0000771  6.0668000  2
    450    449    481    462     1  180.0000771  1.4644000  4
    453    456    505    486     1  180.0000771  6.0668000  2
    453    456    505    486     1  180.0000771  1.4644000  4
    456    505    486    485     1  0.0000000  1.2552000  3
    456    505    486    487     1  0.0000000  1.2552000  3
    457    456    505    486     1  180.0000771  6.0668000  2
    457    456    505    486     1  180.0000771  1.4644000  4
    458    459    461    462     1  180.0000771  0.8368000  1
    458    459    461    462     1  180.0000771  1.0460000  2
    458    459    461    462     1  0.0000000  0.7531200  3
    458    459    461    468     1  0.0000000  0.6508444  3
    458    476    463    462     1  180.0000771  0.4184000  2
    458    476    463    462     1  0.0000000  1.6024720  3
    458    476    463    467     1  0.0000000  1.6038667  3
    459    458    469    474     1  0.0000000  0.6508444  3
    459    458    476    463     1  180.0000771  0.4184000  2
    459    458    476    463     1  0.0000000  1.6024720  3
    459    461    462    463     1  180.0000771  0.8368000  1
    459    461    462    463     1  180.0000771  1.0460000  2
    459    461    462    463     1  0.0000000  0.7531200  3
    459    461    462    481     1  0.0000000  0.6508444  3
    461    459    458    469     1  180.0000771  0.8368000  1
    461    459    458    469     1  180.0000771  1.0460000  2
    461    459    458    469     1  0.0000000  0.7531200  3
    461    459    458    476     1  0.0000000  0.6508444  3
    461    462    463    467     1  0.0000000  0.6508444  3
    461    462    463    476     1  0.0000000  0.6508444  3
    462    461    459    479     1  0.0000000  0.6508444  3
    463    462    461    468     1  0.0000000  0.6508444  3
    463    476    458    469     1  180.0000771  0.4184000  2
    463    476    458    469     1  0.0000000  1.6024720  3
    467    463    462    481     1  0.0000000  0.6508444  3
    468    461    459    479     1  0.0000000  4.9162000  2
    468    461    459    479     1  0.0000000  0.6024960  3
    468    461    462    481     1  0.0000000  0.6508444  3
    469    458    459    479     1  0.0000000  0.6508444  3
    474    469    458    476     1  0.0000000  4.9162000  2
    474    469    458    476     1  0.0000000  0.6024960  3
    476    458    459    479     1  0.0000000  4.9162000  2
    476    458    459    479     1  0.0000000  0.6024960  3
    476    463    462    481     1  0.0000000  0.6508444  3
    482    483    485    486     1  180.0000771  0.8368000  1
    482    483    485    486     1  180.0000771  1.0460000  2
    482    483    485    486     1  0.0000000  0.7531200  3
    482    483    485    492     1  0.0000000  0.6508444  3
    482    500    487    486     1  180.0000771  0.4184000  2
    482    500    487    486     1  0.0000000  1.6024720  3
    482    500    487    491     1  0.0000000  1.6038667  3
    483    482    493    498     1  0.0000000  0.6508444  3
    483    482    500    487     1  180.0000771  0.4184000  2
    483    482    500    487     1  0.0000000  1.6024720  3
    483    485    486    487     1  180.0000771  0.8368000  1
    483    485    486    487     1  180.0000771  1.0460000  2
    483    485    486    487     1  0.0000000  0.7531200  3
    483    485    486    505     1  0.0000000  0.6508444  3
    485    483    482    493     1  180.0000771  0.8368000  1
    485    483    482    493     1  180.0000771  1.0460000  2
    485    483    482    493     1  0.0000000  0.7531200  3
    485    483    482    500     1  0.0000000  0.6508444  3
    485    486    487    491     1  0.0000000  0.6508444  3
    485    486    487    500     1  0.0000000  0.6508444  3
    486    485    483    503     1  0.0000000  0.6508444  3
    487    486    485    492     1  0.0000000  0.6508444  3
    487    500    482    493     1  180.0000771  0.4184000  2
    487    500    482    493     1  0.0000000  1.6024720  3
    491    487    486    505     1  0.0000000  0.6508444  3
    492    485    483    503     1  0.0000000  4.9162000  2
    492    485    483    503     1  0.0000000  0.6024960  3
    492    485    486    505     1  0.0000000  0.6508444  3
    493    482    483    503     1  0.0000000  0.6508444  3
    498    493    482    500     1  0.0000000  4.9162000  2
    498    493    482    500     1  0.0000000  0.6024960  3
    500    482    483    503     1  0.0000000  4.9162000  2
    500    482    483    503     1  0.0000000  0.6024960  3
    500    487    486    505     1  0.0000000  0.6508444  3
    506    508    510    514     1  0.0000000  0.6508444  3
    508    510    514    515     1  180.0000771  2.0083200  2
    508    510    514    515     1  0.0000000  1.2552000  3
    508    510    514    516     1  180.0000771  2.0083200  2
    508    510    514    516     1  0.0000000  1.2552000  3
    510    514    515    526     1  180.0000771  2.0083200  2
    510    514    515    526     1  0.0000000  1.2552000  3
    510    514    516    518     1  180.0000771  2.0083200  2
    510    514    516    518     1  0.0000000  1.2552000  3
    514    515    526    529     1  0.0000000  0.6508444  3
    514    516    518    522     1  0.0000000  0.6508444  3
    515    526    529    530     1  180.0000771  0.0000000  2
    515    526    529    578     1  180.0000771  0.0000000  2
    515    514    516    518     1  180.0000771  2.0083200  2
    515    514    516    518     1  0.0000000  1.2552000  3
    516    518    522    523     1  180.0000771  0.0000000  2
    516    518    522    554     1  180.0000771  0.0000000  2
    516    514    515    526     1  180.0000771  2.0083200  2
    516    514    515    526     1  0.0000000  1.2552000  3
    518    522    554    535     1  180.0000771  6.0668000  2
    518    522    554    535     1  180.0000771  1.4644000  4
    522    554    535    536     1  0.0000000  1.2552000  3
    522    554    535    534     1  0.0000000  1.2552000  3
    523    522    554    535     1  180.0000771  6.0668000  2
    523    522    554    535     1  180.0000771  1.4644000  4
    526    529    578    559     1  180.0000771  6.0668000  2
    526    529    578    559     1  180.0000771  1.4644000  4
    529    578    559    560     1  0.0000000  1.2552000  3
    529    578    559    558     1  0.0000000  1.2552000  3
    530    529    578    559     1  180.0000771  6.0668000  2
    530    529    578    559     1  180.0000771  1.4644000  4
    531    532    534    535     1  180.0000771  0.8368000  1
    531    532    534    535     1  180.0000771  1.0460000  2
    531    532    534    535     1  0.0000000  0.7531200  3
    531    532    534    541     1  0.0000000  0.6508444  3
    531    549    536    540     1  0.0000000  1.6038667  3
    531    549    536    535     1  180.0000771  0.4184000  2
    531    549    536    535     1  0.0000000  1.6024720  3
    532    534    535    536     1  180.0000771  0.8368000  1
    532    534    535    536     1  180.0000771  1.0460000  2
    532    534    535    536     1  0.0000000  0.7531200  3
    532    534    535    554     1  0.0000000  0.6508444  3
    532    531    542    547     1  0.0000000  0.6508444  3
    532    531    549    536     1  180.0000771  0.4184000  2
    532    531    549    536     1  0.0000000  1.6024720  3
    534    535    536    540     1  0.0000000  0.6508444  3
    534    535    536    549     1  0.0000000  0.6508444  3
    534    532    531    542     1  180.0000771  0.8368000  1
    534    532    531    542     1  180.0000771  1.0460000  2
    534    532    531    542     1  0.0000000  0.7531200  3
    534    532    531    549     1  0.0000000  0.6508444  3
    535    534    532    552     1  0.0000000  0.6508444  3
    536    549    531    542     1  180.0000771  0.4184000  2
    536    549    531    542     1  0.0000000  1.6024720  3
    536    535    534    541     1  0.0000000  0.6508444  3
    540    536    535    554     1  0.0000000  0.6508444  3
    541    534    535    554     1  0.0000000  0.6508444  3
    541    534    532    552     1  0.0000000  4.9162000  2
    541    534    532    552     1  0.0000000  0.6024960  3
    542    531    532    552     1  0.0000000  0.6508444  3
    547    542    531    549     1  0.0000000  4.9162000  2
    547    542    531    549     1  0.0000000  0.6024960  3
    549    536    535    554     1  0.0000000  0.6508444  3
    549    531    532    552     1  0.0000000  4.9162000  2
    549    531    532    552     1  0.0000000  0.6024960  3
    555    556    558    559     1  180.0000771  0.8368000  1
    555    556    558    559     1  180.0000771  1.0460000  2
    555    556    558    559     1  0.0000000  0.7531200  3
    555    556    558    565     1  0.0000000  0.6508444  3
    555    573    560    564     1  0.0000000  1.6038667  3
    555    573    560    559     1  180.0000771  0.4184000  2
    555    573    560    559     1  0.0000000  1.6024720  3
    556    558    559    560     1  180.0000771  0.8368000  1
    556    558    559    560     1  180.0000771  1.0460000  2
    556    558    559    560     1  0.0000000  0.7531200  3
    556    558    559    578     1  0.0000000  0.6508444  3
    556    555    566    571     1  0.0000000  0.6508444  3
    556    555    573    560     1  180.0000771  0.4184000  2
    556    555    573    560     1  0.0000000  1.6024720  3
    558    559    560    564     1  0.0000000  0.6508444  3
    558    559    560    573     1  0.0000000  0.6508444  3
    558    556    555    566     1  180.0000771  0.8368000  1
    558    556    555    566     1  180.0000771  1.0460000  2
    558    556    555    566     1  0.0000000  0.7531200  3
    558    556    555    573     1  0.0000000  0.6508444  3
    559    558    556    576     1  0.0000000  0.6508444  3
    560    573    555    566     1  180.0000771  0.4184000  2
    560    573    555    566     1  0.0000000  1.6024720  3
    560    559    558    565     1  0.0000000  0.6508444  3
    564    560    559    578     1  0.0000000  0.6508444  3
    565    558    559    578     1  0.0000000  0.6508444  3
    565    558    556    576     1  0.0000000  4.9162000  2
    565    558    556    576     1  0.0000000  0.6024960  3
    566    555    556    576     1  0.0000000  0.6508444  3
    571    566    555    573     1  0.0000000  4.9162000  2
    571    566    555    573     1  0.0000000  0.6024960  3
    573    560    559    578     1  0.0000000  0.6508444  3
    573    555    556    576     1  0.0000000  4.9162000  2
    573    555    556    576     1  0.0000000  0.6024960  3
    579    581    583    587     1  0.0000000  0.6508444  3
    581    583    587    588     1  180.0000771  2.0083200  2
    581    583    587    588     1  0.0000000  1.2552000  3
    581    583    587    589     1  180.0000771  2.0083200  2
    581    583    587    589     1  0.0000000  1.2552000  3
    583    587    588    599     1  180.0000771  2.0083200  2
    583    587    588    599     1  0.0000000  1.2552000  3
    583    587    589    591     1  180.0000771  2.0083200  2
    583    587    589    591     1  0.0000000  1.2552000  3
    587    588    599    602     1  0.0000000  0.6508444  3
    587    589    591    595     1  0.0000000  0.6508444  3
    588    587    589    591     1  180.0000771  2.0083200  2
    588    587    589    591     1  0.0000000  1.2552000  3
    588    599    602    603     1  180.0000771  0.0000000  2
    588    599    602    651     1  180.0000771  0.0000000  2
    589    587    588    599     1  180.0000771  2.0083200  2
    589    587    588    599     1  0.0000000  1.2552000  3
    589    591    595    596     1  180.0000771  0.0000000  2
    589    591    595    627     1  180.0000771  0.0000000  2
    591    595    627    608     1  180.0000771  6.0668000  2
    591    595    627    608     1  180.0000771  1.4644000  4
    595    627    608    607     1  0.0000000  1.2552000  3
    595    627    608    609     1  0.0000000  1.2552000  3
    596    595    627    608     1  180.0000771  6.0668000  2
    596    595    627    608     1  180.0000771  1.4644000  4
    599    602    651    632     1  180.0000771  6.0668000  2
    599    602    651    632     1  180.0000771  1.4644000  4
    602    651    632    631     1  0.0000000  1.2552000  3
    602    651    632    633     1  0.0000000  1.2552000  3
    603    602    651    632     1  180.0000771  6.0668000  2
    603    602    651    632     1  180.0000771  1.4644000  4
    604    605    607    608     1  180.0000771  0.8368000  1
    604    605    607    608     1  180.0000771  1.0460000  2
    604    605    607    608     1  0.0000000  0.7531200  3
    604    605    607    614     1  0.0000000  0.6508444  3
    604    622    609    608     1  180.0000771  0.4184000  2
    604    622    609    608     1  0.0000000  1.6024720  3
    604    622    609    613     1  0.0000000  1.6038667  3
    605    604    615    620     1  0.0000000  0.6508444  3
    605    604    622    609     1  180.0000771  0.4184000  2
    605    604    622    609     1  0.0000000  1.6024720  3
    605    607    608    609     1  180.0000771  0.8368000  1
    605    607    608    609     1  180.0000771  1.0460000  2
    605    607    608    609     1  0.0000000  0.7531200  3
    605    607    608    627     1  0.0000000  0.6508444  3
    607    605    604    615     1  180.0000771  0.8368000  1
    607    605    604    615     1  180.0000771  1.0460000  2
    607    605    604    615     1  0.0000000  0.7531200  3
    607    605    604    622     1  0.0000000  0.6508444  3
    607    608    609    613     1  0.0000000  0.6508444  3
    607    608    609    622     1  0.0000000  0.6508444  3
    608    607    605    625     1  0.0000000  0.6508444  3
    609    608    607    614     1  0.0000000  0.6508444  3
    609    622    604    615     1  180.0000771  0.4184000  2
    609    622    604    615     1  0.0000000  1.6024720  3
    613    609    608    627     1  0.0000000  0.6508444  3
    614    607    605    625     1  0.0000000  4.9162000  2
    614    607    605    625     1  0.0000000  0.6024960  3
    614    607    608    627     1  0.0000000  0.6508444  3
    615    604    605    625     1  0.0000000  0.6508444  3
    620    615    604    622     1  0.0000000  4.9162000  2
    620    615    604    622     1  0.0000000  0.6024960  3
    622    604    605    625     1  0.0000000  4.9162000  2
    622    604    605    625     1  0.0000000  0.6024960  3
    622    609    608    627     1  0.0000000  0.6508444  3
    628    629    631    632     1  180.0000771  0.8368000  1
    628    629    631    632     1  180.0000771  1.0460000  2
    628    629    631    632     1  0.0000000  0.7531200  3
    628    629    631    638     1  0.0000000  0.6508444  3
    628    646    633    632     1  180.0000771  0.4184000  2
    628    646    633    632     1  0.0000000  1.6024720  3
    628    646    633    637     1  0.0000000  1.6038667  3
    629    628    639    644     1  0.0000000  0.6508444  3
    629    628    646    633     1  180.0000771  0.4184000  2
    629    628    646    633     1  0.0000000  1.6024720  3
    629    631    632    633     1  180.0000771  0.8368000  1
    629    631    632    633     1  180.0000771  1.0460000  2
    629    631    632    633     1  0.0000000  0.7531200  3
    629    631    632    651     1  0.0000000  0.6508444  3
    631    629    628    639     1  180.0000771  0.8368000  1
    631    629    628    639     1  180.0000771  1.0460000  2
    631    629    628    639     1  0.0000000  0.7531200  3
    631    629    628    646     1  0.0000000  0.6508444  3
    631    632    633    637     1  0.0000000  0.6508444  3
    631    632    633    646     1  0.0000000  0.6508444  3
    632    631    629    649     1  0.0000000  0.6508444  3
    633    632    631    638     1  0.0000000  0.6508444  3
    633    646    628    639     1  180.0000771  0.4184000  2
    633    646    628    639     1  0.0000000  1.6024720  3
    637    633    632    651     1  0.0000000  0.6508444  3
    638    631    629    649     1  0.0000000  4.9162000  2
    638    631    629    649     1  0.0000000  0.6024960  3
    638    631    632    651     1  0.0000000  0.6508444  3
    639    628    629    649     1  0.0000000  0.6508444  3
    644    639    628    646     1  0.0000000  4.9162000  2
    644    639    628    646     1  0.0000000  0.6024960  3
    646    628    629    649     1  0.0000000  4.9162000  2
    646    628    629    649     1  0.0000000  0.6024960  3
    646    633    632    651     1  0.0000000  0.6508444  3
    652    654    656    660     1  0.0000000  0.6508444  3
    654    656    660    661     1  180.0000771  2.0083200  2
    654    656    660    661     1  0.0000000  1.2552000  3
    654    656    660    662     1  180.0000771  2.0083200  2
    654    656    660    662     1  0.0000000  1.2552000  3
    656    660    661    672     1  180.0000771  2.0083200  2
    656    660    661    672     1  0.0000000  1.2552000  3
    656    660    662    664     1  180.0000771  2.0083200  2
    656    660    662    664     1  0.0000000  1.2552000  3
    660    661    672    675     1  0.0000000  0.6508444  3
    660    662    664    668     1  0.0000000  0.6508444  3
    661    672    675    676     1  180.0000771  0.0000000  2
    661    672    675    724     1  180.0000771  0.0000000  2
    661    660    662    664     1  180.0000771  2.0083200  2
    661    660    662    664     1  0.0000000  1.2552000  3
    662    664    668    669     1  180.0000771  0.0000000  2
    662    664    668    700     1  180.0000771  0.0000000  2
    662    660    661    672     1  180.0000771  2.0083200  2
    662    660    661    672     1  0.0000000  1.2552000  3
    664    668    700    681     1  180.0000771  6.0668000  2
    664    668    700    681     1  180.0000771  1.4644000  4
    668    700    681    682     1  0.0000000  1.2552000  3
    668    700    681    680     1  0.0000000  1.2552000  3
    669    668    700    681     1  180.0000771  6.0668000  2
    669    668    700    681     1  180.0000771  1.4644000  4
    672    675    724    705     1  180.0000771  6.0668000  2
    672    675    724    705     1  180.0000771  1.4644000  4
    675    724    705    706     1  0.0000000  1.2552000  3
    675    724    705    704     1  0.0000000  1.2552000  3
    676    675    724    705     1  180.0000771  6.0668000  2
    676    675    724    705     1  180.0000771  1.4644000  4
    677    678    680    681     1  180.0000771  0.8368000  1
    677    678    680    681     1  180.0000771  1.0460000  2
    677    678    680    681     1  0.0000000  0.7531200  3
    677    678    680    687     1  0.0000000  0.6508444  3
    677    695    682    686     1  0.0000000  1.6038667  3
    677    695    682    681     1  180.0000771  0.4184000  2
    677    695    682    681     1  0.0000000  1.6024720  3
    678    680    681    682     1  180.0000771  0.8368000  1
    678    680    681    682     1  180.0000771  1.0460000  2
    678    680    681    682     1  0.0000000  0.7531200  3
    678    680    681    700     1  0.0000000  0.6508444  3
    678    677    688    693     1  0.0000000  0.6508444  3
    678    677    695    682     1  180.0000771  0.4184000  2
    678    677    695    682     1  0.0000000  1.6024720  3
    680    681    682    686     1  0.0000000  0.6508444  3
    680    681    682    695     1  0.0000000  0.6508444  3
    680    678    677    688     1  180.0000771  0.8368000  1
    680    678    677    688     1  180.0000771  1.0460000  2
    680    678    677    688     1  0.0000000  0.7531200  3
    680    678    677    695     1  0.0000000  0.6508444  3
    681    680    678    698     1  0.0000000  0.6508444  3
    682    695    677    688     1  180.0000771  0.4184000  2
    682    695    677    688     1  0.0000000  1.6024720  3
    682    681    680    687     1  0.0000000  0.6508444  3
    686    682    681    700     1  0.0000000  0.6508444  3
    687    680    681    700     1  0.0000000  0.6508444  3
    687    680    678    698     1  0.0000000  4.9162000  2
    687    680    678    698     1  0.0000000  0.6024960  3
    688    677    678    698     1  0.0000000  0.6508444  3
    693    688    677    695     1  0.0000000  4.9162000  2
    693    688    677    695     1  0.0000000  0.6024960  3
    695    682    681    700     1  0.0000000  0.6508444  3
    695    677    678    698     1  0.0000000  4.9162000  2
    695    677    678    698     1  0.0000000  0.6024960  3
    701    702    704    705     1  180.0000771  0.8368000  1
    701    702    704    705     1  180.0000771  1.0460000  2
    701    702    704    705     1  0.0000000  0.7531200  3
    701    702    704    711     1  0.0000000  0.6508444  3
    701    719    706    710     1  0.0000000  1.6038667  3
    701    719    706    705     1  180.0000771  0.4184000  2
    701    719    706    705     1  0.0000000  1.6024720  3
    702    704    705    706     1  180.0000771  0.8368000  1
    702    704    705    706     1  180.0000771  1.0460000  2
    702    704    705    706     1  0.0000000  0.7531200  3
    702    704    705    724     1  0.0000000  0.6508444  3
    702    701    712    717     1  0.0000000  0.6508444  3
    702    701    719    706     1  180.0000771  0.4184000  2
    702    701    719    706     1  0.0000000  1.6024720  3
    704    705    706    710     1  0.0000000  0.6508444  3
    704    705    706    719     1  0.0000000  0.6508444  3
    704    702    701    712     1  180.0000771  0.8368000  1
    704    702    701    712     1  180.0000771  1.0460000  2
    704    702    701    712     1  0.0000000  0.7531200  3
    704    702    701    719     1  0.0000000  0.6508444  3
    705    704    702    722     1  0.0000000  0.6508444  3
    706    719    701    712     1  180.0000771  0.4184000  2
    706    719    701    712     1  0.0000000  1.6024720  3
    706    705    704    711     1  0.0000000  0.6508444  3
    710    706    705    724     1  0.0000000  0.6508444  3
    711    704    705    724     1  0.0000000  0.6508444  3
    711    704    702    722     1  0.0000000  4.9162000  2
    711    704    702    722     1  0.0000000  0.6024960  3
    712    701    702    722     1  0.0000000  0.6508444  3
    717    712    701    719     1  0.0000000  4.9162000  2
    717    712    701    719     1  0.0000000  0.6024960  3
    719    706    705    724     1  0.0000000  0.6508444  3
    719    701    702    722     1  0.0000000  4.9162000  2
    719    701    702    722     1  0.0000000  0.6024960  3
     27     64     33     37     4  180.0000771  43.9320000  2
     30     89     34     40     4  180.0000771  43.9320000  2
     21    114     35     38     4  180.0000771  43.9320000  2
     24    139     36     39     4  180.0000771  43.9320000  2
     54    141     60     62     4  180.0000771  43.9320000  2
     57    214     61     63     4  180.0000771  43.9320000  2
     79    287     85     87     4  180.0000771  43.9320000  2
     82    360     86     88     4  180.0000771  43.9320000  2
    104    433    110    112     4  180.0000771  43.9320000  2
    107    506    111    113     4  180.0000771  43.9320000  2
    129    579    135    137     4  180.0000771  43.9320000  2
    132    652    136    138     4  180.0000771  43.9320000  2
    153    189    157    158     4  180.0000771  43.9320000  2
    161    213    164    165     4  180.0000771  43.9320000  2
    226    262    230    231     4  180.0000771  43.9320000  2
    234    286    237    238     4  180.0000771  43.9320000  2
    299    335    303    304     4  180.0000771  43.9320000  2
    307    359    310    311     4  180.0000771  43.9320000  2
    372    408    376    377     4  180.0000771  43.9320000  2
    380    432    383    384     4  180.0000771  43.9320000  2
    445    481    449    450     4  180.0000771  43.9320000  2
    453    505    456    457     4  180.0000771  43.9320000  2
    518    554    522    523     4  180.0000771  43.9320000  2
    526    578    529    530     4  180.0000771  43.9320000  2
    591    627    595    596     4  180.0000771  43.9320000  2
    599    651    602    603     4  180.0000771  43.9320000  2
    664    700    668    669     4  180.0000771  43.9320000  2
    672    724    675    676     4  180.0000771  43.9320000  2
      1      8      9     10     1  0.0000000  1.2552000  3
      1      8      9     11     1  0.0000000  1.2552000  3
      1      8     12     13     1  0.0000000  1.2552000  3
      1      8     12     14     1  0.0000000  1.2552000  3
      2      1      4      7     1  0.0000000  0.6508444  3
      2      1      4      5     1  0.0000000  0.6508444  3
      2      1      4      6     1  0.0000000  0.6508444  3
      2      1      8      9     1  0.0000000  1.2552000  3
      2      1      8     12     1  0.0000000  1.2552000  3
      3      1      4      7     1  0.0000000  0.6508444  3
      3      1      4      5     1  0.0000000  0.6508444  3
      3      1      4      6     1  0.0000000  0.6508444  3
      3      1      8      9     1  0.0000000  1.2552000  3
      3      1      8     12     1  0.0000000  1.2552000  3
      4      7     15     16     1  0.0000000  1.2552000  3
      4      7     15     17     1  0.0000000  1.2552000  3
      4      7     18     19     1  0.0000000  1.2552000  3
      4      7     18     20     1  0.0000000  1.2552000  3
      8      1      4      5     1  0.0000000  0.6508444  3
      5      4      7     15     1  0.0000000  1.2552000  3
      5      4      7     18     1  0.0000000  1.2552000  3
      8      1      4      6     1  0.0000000  0.6508444  3
      6      4      7     15     1  0.0000000  1.2552000  3
      6      4      7     18     1  0.0000000  1.2552000  3
      7     15     21     22     1  0.0000000  0.6508444  3
      7     15     21     23     1  0.0000000  0.6508444  3
      7     18     24     25     1  0.0000000  0.6508444  3
      7     18     24     26     1  0.0000000  0.6508444  3
      8      9     30     31     1  0.0000000  0.6508444  3
      8      9     30     32     1  0.0000000  0.6508444  3
      8     12     27     28     1  0.0000000  0.6508444  3
      8     12     27     29     1  0.0000000  0.6508444  3
      9      8     12     13     1  0.0000000  1.2552000  3
      9      8     12     14     1  0.0000000  1.2552000  3
     10      9      8     12     1  0.0000000  1.2552000  3
     10      9     30     34     1  0.0000000  0.6508444  3
     10      9     30     31     1  0.0000000  0.6508444  3
     10      9     30     32     1  0.0000000  0.6508444  3
     11      9      8     12     1  0.0000000  1.2552000  3
     11      9     30     34     1  0.0000000  0.6508444  3
     11      9     30     31     1  0.0000000  0.6508444  3
     11      9     30     32     1  0.0000000  0.6508444  3
     13     12     27     33     1  0.0000000  0.6508444  3
     13     12     27     28     1  0.0000000  0.6508444  3
     13     12     27     29     1  0.0000000  0.6508444  3
     14     12     27     33     1  0.0000000  0.6508444  3
     14     12     27     28     1  0.0000000  0.6508444  3
     14     12     27     29     1  0.0000000  0.6508444  3
     15      7     18     19     1  0.0000000  1.2552000  3
     15      7     18     20     1  0.0000000  1.2552000  3
     16     15      7     18     1  0.0000000  1.2552000  3
     16     15     21     35     1  0.0000000  0.6508444  3
     16     15     21     22     1  0.0000000  0.6508444  3
     16     15     21     23     1  0.0000000  0.6508444  3
     17     15      7     18     1  0.0000000  1.2552000  3
     17     15     21     35     1  0.0000000  0.6508444  3
     17     15     21     22     1  0.0000000  0.6508444  3
     17     15     21     23     1  0.0000000  0.6508444  3
     19     18     24     36     1  0.0000000  0.6508444  3
     19     18     24     25     1  0.0000000  0.6508444  3
     19     18     24     26     1  0.0000000  0.6508444  3
     20     18     24     36     1  0.0000000  0.6508444  3
     20     18     24     25     1  0.0000000  0.6508444  3
     20     18     24     26     1  0.0000000  0.6508444  3
     21     35    114    115     1  180.0000771  10.4600000  2
     22     21     35     38     1  0.0000000  3.3472000  1
     22     21     35     38     1  0.0000000  0.0000000  2
     22     21     35     38     1  180.0000771  0.3347200  3
     22     21     35    114     1  180.0000771  0.0000000  2
     23     21     35     38     1  0.0000000  3.3472000  1
     23     21     35     38     1  0.0000000  0.0000000  2
     23     21     35     38     1  180.0000771  0.3347200  3
     23     21     35    114     1  180.0000771  0.0000000  2
     24     36    139    140     1  180.0000771  10.4600000  2
     25     24     36     39     1  0.0000000  3.3472000  1
     25     24     36     39     1  0.0000000  0.0000000  2
     25     24     36     39     1  180.0000771  0.3347200  3
     25     24     36    139     1  180.0000771  0.0000000  2
     26     24     36     39     1  0.0000000  3.3472000  1
     26     24     36     39     1  0.0000000  0.0000000  2
     26     24     36     39     1  180.0000771  0.3347200  3
     26     24     36    139     1  180.0000771  0.0000000  2
     27     33     64     65     1  180.0000771  10.4600000  2
     28     27     33     37     1  0.0000000  3.3472000  1
     28     27     33     37     1  0.0000000  0.0000000  2
     28     27     33     37     1  180.0000771  0.3347200  3
     28     27     33     64     1  180.0000771  0.0000000  2
     29     27     33     37     1  0.0000000  3.3472000  1
     29     27     33     37     1  0.0000000  0.0000000  2
     29     27     33     37     1  180.0000771  0.3347200  3
     29     27     33     64     1  180.0000771  0.0000000  2
     30     34     89     90     1  180.0000771  10.4600000  2
     31     30     34     40     1  0.0000000  3.3472000  1
     31     30     34     40     1  0.0000000  0.0000000  2
     31     30     34     40     1  180.0000771  0.3347200  3
     31     30     34     89     1  180.0000771  0.0000000  2
     32     30     34     40     1  0.0000000  3.3472000  1
     32     30     34     40     1  0.0000000  0.0000000  2
     32     30     34     40     1  180.0000771  0.3347200  3
     32     30     34     89     1  180.0000771  0.0000000  2
     33     64     44     45     1  0.0000000  0.0000000  2
     33     64     44     46     1  0.0000000  0.0000000  2
     34     89     69     70     1  0.0000000  0.0000000  2
     34     89     69     71     1  0.0000000  0.0000000  2
     35    114     94     95     1  0.0000000  0.0000000  2
     35    114     94     96     1  0.0000000  0.0000000  2
     36    139    119    120     1  0.0000000  0.0000000  2
     36    139    119    121     1  0.0000000  0.0000000  2
     37     33     64     65     1  0.0000000  8.3680000  1
     37     33     64     65     1  180.0000771  10.4600000  2
     38     35    114    115     1  0.0000000  8.3680000  1
     38     35    114    115     1  180.0000771  10.4600000  2
     39     36    139    140     1  0.0000000  8.3680000  1
     39     36    139    140     1  180.0000771  10.4600000  2
     40     34     89     90     1  0.0000000  8.3680000  1
     40     34     89     90     1  180.0000771  10.4600000  2
     41     44     64     65     1  0.0000000  0.0000000  2
     41     47     48     49     1  0.0000000  1.2552000  3
     41     47     48     50     1  0.0000000  1.2552000  3
     41     47     51     52     1  0.0000000  1.2552000  3
     41     47     51     53     1  0.0000000  1.2552000  3
     42     41     44     64     1  0.0000000  0.6508444  3
     42     41     44     45     1  0.0000000  0.6508444  3
     42     41     44     46     1  0.0000000  0.6508444  3
     42     41     47     48     1  0.0000000  1.2552000  3
     42     41     47     51     1  0.0000000  1.2552000  3
     43     41     44     64     1  0.0000000  0.6508444  3
     43     41     44     45     1  0.0000000  0.6508444  3
     43     41     44     46     1  0.0000000  0.6508444  3
     43     41     47     48     1  0.0000000  1.2552000  3
     43     41     47     51     1  0.0000000  1.2552000  3
     45     44     41     47     1  0.0000000  0.6508444  3
     45     44     64     65     1  0.0000000  0.0000000  2
     46     44     41     47     1  0.0000000  0.6508444  3
     46     44     64     65     1  0.0000000  0.0000000  2
     47     48     57     58     1  0.0000000  0.6508444  3
     47     48     57     59     1  0.0000000  0.6508444  3
     47     51     54     55     1  0.0000000  0.6508444  3
     47     51     54     56     1  0.0000000  0.6508444  3
     48     47     51     52     1  0.0000000  1.2552000  3
     48     47     51     53     1  0.0000000  1.2552000  3
     49     48     47     51     1  0.0000000  1.2552000  3
     49     48     57     61     1  0.0000000  0.6508444  3
     49     48     57     58     1  0.0000000  0.6508444  3
     49     48     57     59     1  0.0000000  0.6508444  3
     50     48     47     51     1  0.0000000  1.2552000  3
     50     48     57     61     1  0.0000000  0.6508444  3
     50     48     57     58     1  0.0000000  0.6508444  3
     50     48     57     59     1  0.0000000  0.6508444  3
     52     51     54     60     1  0.0000000  0.6508444  3
     52     51     54     55     1  0.0000000  0.6508444  3
     52     51     54     56     1  0.0000000  0.6508444  3
     53     51     54     60     1  0.0000000  0.6508444  3
     53     51     54     55     1  0.0000000  0.6508444  3
     53     51     54     56     1  0.0000000  0.6508444  3
     54     60    141    142     1  180.0000771  10.4600000  2
     55     54     60    141     1  180.0000771  0.0000000  2
     55     54     60     62     1  0.0000000  3.3472000  1
     55     54     60     62     1  0.0000000  0.0000000  2
     55     54     60     62     1  180.0000771  0.3347200  3
     56     54     60    141     1  180.0000771  0.0000000  2
     56     54     60     62     1  0.0000000  3.3472000  1
     56     54     60     62     1  0.0000000  0.0000000  2
     56     54     60     62     1  180.0000771  0.3347200  3
     57     61    214    215     1  180.0000771  10.4600000  2
     58     57     61     63     1  0.0000000  3.3472000  1
     58     57     61     63     1  0.0000000  0.0000000  2
     58     57     61     63     1  180.0000771  0.3347200  3
     58     57     61    214     1  180.0000771  0.0000000  2
     59     57     61     63     1  0.0000000  3.3472000  1
     59     57     61     63     1  0.0000000  0.0000000  2
     59     57     61     63     1  180.0000771  0.3347200  3
     59     57     61    214     1  180.0000771  0.0000000  2
     60    141    143    144     1  0.0000000  0.0000000  2
     60    141    143    146     1  0.0000000  0.0000000  2
     61    214    216    217     1  0.0000000  0.0000000  2
     61    214    216    219     1  0.0000000  0.0000000  2
     62     60    141    142     1  0.0000000  8.3680000  1
     62     60    141    142     1  180.0000771  10.4600000  2
     63     61    214    215     1  0.0000000  8.3680000  1
     63     61    214    215     1  180.0000771  10.4600000  2
     66     69     89     90     1  0.0000000  0.0000000  2
     66     72     73     74     1  0.0000000  1.2552000  3
     66     72     73     75     1  0.0000000  1.2552000  3
     66     72     76     77     1  0.0000000  1.2552000  3
     66     72     76     78     1  0.0000000  1.2552000  3
     67     66     69     89     1  0.0000000  0.6508444  3
     67     66     69     70     1  0.0000000  0.6508444  3
     67     66     69     71     1  0.0000000  0.6508444  3
     67     66     72     73     1  0.0000000  1.2552000  3
     67     66     72     76     1  0.0000000  1.2552000  3
     68     66     69     89     1  0.0000000  0.6508444  3
     68     66     69     70     1  0.0000000  0.6508444  3
     68     66     69     71     1  0.0000000  0.6508444  3
     68     66     72     73     1  0.0000000  1.2552000  3
     68     66     72     76     1  0.0000000  1.2552000  3
     70     69     66     72     1  0.0000000  0.6508444  3
     70     69     89     90     1  0.0000000  0.0000000  2
     71     69     66     72     1  0.0000000  0.6508444  3
     71     69     89     90     1  0.0000000  0.0000000  2
     72     73     82     83     1  0.0000000  0.6508444  3
     72     73     82     84     1  0.0000000  0.6508444  3
     72     76     79     80     1  0.0000000  0.6508444  3
     72     76     79     81     1  0.0000000  0.6508444  3
     73     72     76     77     1  0.0000000  1.2552000  3
     73     72     76     78     1  0.0000000  1.2552000  3
     74     73     72     76     1  0.0000000  1.2552000  3
     74     73     82     86     1  0.0000000  0.6508444  3
     74     73     82     83     1  0.0000000  0.6508444  3
     74     73     82     84     1  0.0000000  0.6508444  3
     75     73     72     76     1  0.0000000  1.2552000  3
     75     73     82     86     1  0.0000000  0.6508444  3
     75     73     82     83     1  0.0000000  0.6508444  3
     75     73     82     84     1  0.0000000  0.6508444  3
     77     76     79     85     1  0.0000000  0.6508444  3
     77     76     79     80     1  0.0000000  0.6508444  3
     77     76     79     81     1  0.0000000  0.6508444  3
     78     76     79     85     1  0.0000000  0.6508444  3
     78     76     79     80     1  0.0000000  0.6508444  3
     78     76     79     81     1  0.0000000  0.6508444  3
     79     85    287    288     1  180.0000771  10.4600000  2
     80     79     85    287     1  180.0000771  0.0000000  2
     80     79     85     87     1  0.0000000  3.3472000  1
     80     79     85     87     1  0.0000000  0.0000000  2
     80     79     85     87     1  180.0000771  0.3347200  3
     81     79     85    287     1  180.0000771  0.0000000  2
     81     79     85     87     1  0.0000000  3.3472000  1
     81     79     85     87     1  0.0000000  0.0000000  2
     81     79     85     87     1  180.0000771  0.3347200  3
     82     86    360    361     1  180.0000771  10.4600000  2
     83     82     86     88     1  0.0000000  3.3472000  1
     83     82     86     88     1  0.0000000  0.0000000  2
     83     82     86     88     1  180.0000771  0.3347200  3
     83     82     86    360     1  180.0000771  0.0000000  2
     84     82     86     88     1  0.0000000  3.3472000  1
     84     82     86     88     1  0.0000000  0.0000000  2
     84     82     86     88     1  180.0000771  0.3347200  3
     84     82     86    360     1  180.0000771  0.0000000  2
     85    287    289    290     1  0.0000000  0.0000000  2
     85    287    289    292     1  0.0000000  0.0000000  2
     86    360    362    363     1  0.0000000  0.0000000  2
     86    360    362    365     1  0.0000000  0.0000000  2
     87     85    287    288     1  0.0000000  8.3680000  1
     87     85    287    288     1  180.0000771  10.4600000  2
     88     86    360    361     1  0.0000000  8.3680000  1
     88     86    360    361     1  180.0000771  10.4600000  2
     91     94    114    115     1  0.0000000  0.0000000  2
     91     97     98     99     1  0.0000000  1.2552000  3
     91     97     98    100     1  0.0000000  1.2552000  3
     91     97    101    102     1  0.0000000  1.2552000  3
     91     97    101    103     1  0.0000000  1.2552000  3
     92     91     94    114     1  0.0000000  0.6508444  3
     92     91     94     95     1  0.0000000  0.6508444  3
     92     91     94     96     1  0.0000000  0.6508444  3
     92     91     97     98     1  0.0000000  1.2552000  3
     92     91     97    101     1  0.0000000  1.2552000  3
     93     91     94    114     1  0.0000000  0.6508444  3
     93     91     94     95     1  0.0000000  0.6508444  3
     93     91     94     96     1  0.0000000  0.6508444  3
     93     91     97     98     1  0.0000000  1.2552000  3
     93     91     97    101     1  0.0000000  1.2552000  3
     95     94     91     97     1  0.0000000  0.6508444  3
     95     94    114    115     1  0.0000000  0.0000000  2
     96     94     91     97     1  0.0000000  0.6508444  3
     96     94    114    115     1  0.0000000  0.0000000  2
     97     98    107    108     1  0.0000000  0.6508444  3
     97     98    107    109     1  0.0000000  0.6508444  3
     97    101    104    105     1  0.0000000  0.6508444  3
     97    101    104    106     1  0.0000000  0.6508444  3
     98     97    101    102     1  0.0000000  1.2552000  3
     98     97    101    103     1  0.0000000  1.2552000  3
     99     98     97    101     1  0.0000000  1.2552000  3
     99     98    107    111     1  0.0000000  0.6508444  3
     99     98    107    108     1  0.0000000  0.6508444  3
     99     98    107    109     1  0.0000000  0.6508444  3
    100     98     97    101     1  0.0000000  1.2552000  3
    100     98    107    111     1  0.0000000  0.6508444  3
    100     98    107    108     1  0.0000000  0.6508444  3
    100     98    107    109     1  0.0000000  0.6508444  3
    102    101    104    110     1  0.0000000  0.6508444  3
    102    101    104    105     1  0.0000000  0.6508444  3
    102    101    104    106     1  0.0000000  0.6508444  3
    103    101    104    110     1  0.0000000  0.6508444  3
    103    101    104    105     1  0.0000000  0.6508444  3
    103    101    104    106     1  0.0000000  0.6508444  3
    104    110    433    434     1  180.0000771  10.4600000  2
    105    104    110    433     1  180.0000771  0.0000000  2
    105    104    110    112     1  0.0000000  3.3472000  1
    105    104    110    112     1  0.0000000  0.0000000  2
    105    104    110    112     1  180.0000771  0.3347200  3
    106    104    110    433     1  180.0000771  0.0000000  2
    106    104    110    112     1  0.0000000  3.3472000  1
    106    104    110    112     1  0.0000000  0.0000000  2
    106    104    110    112     1  180.0000771  0.3347200  3
    107    111    506    507     1  180.0000771  10.4600000  2
    108    107    111    113     1  0.0000000  3.3472000  1
    108    107    111    113     1  0.0000000  0.0000000  2
    108    107    111    113     1  180.0000771  0.3347200  3
    108    107    111    506     1  180.0000771  0.0000000  2
    109    107    111    113     1  0.0000000  3.3472000  1
    109    107    111    113     1  0.0000000  0.0000000  2
    109    107    111    113     1  180.0000771  0.3347200  3
    109    107    111    506     1  180.0000771  0.0000000  2
    110    433    435    436     1  0.0000000  0.0000000  2
    110    433    435    438     1  0.0000000  0.0000000  2
    111    506    508    509     1  0.0000000  0.0000000  2
    111    506    508    511     1  0.0000000  0.0000000  2
    112    110    433    434     1  0.0000000  8.3680000  1
    112    110    433    434     1  180.0000771  10.4600000  2
    113    111    506    507     1  0.0000000  8.3680000  1
    113    111    506    507     1  180.0000771  10.4600000  2
    116    119    139    140     1  0.0000000  0.0000000  2
    116    122    123    124     1  0.0000000  1.2552000  3
    116    122    123    125     1  0.0000000  1.2552000  3
    116    122    126    127     1  0.0000000  1.2552000  3
    116    122    126    128     1  0.0000000  1.2552000  3
    117    116    119    139     1  0.0000000  0.6508444  3
    117    116    119    120     1  0.0000000  0.6508444  3
    117    116    119    121     1  0.0000000  0.6508444  3
    117    116    122    123     1  0.0000000  1.2552000  3
    117    116    122    126     1  0.0000000  1.2552000  3
    118    116    119    139     1  0.0000000  0.6508444  3
    118    116    119    120     1  0.0000000  0.6508444  3
    118    116    119    121     1  0.0000000  0.6508444  3
    118    116    122    123     1  0.0000000  1.2552000  3
    118    116    122    126     1  0.0000000  1.2552000  3
    120    119    116    122     1  0.0000000  0.6508444  3
    120    119    139    140     1  0.0000000  0.0000000  2
    121    119    116    122     1  0.0000000  0.6508444  3
    121    119    139    140     1  0.0000000  0.0000000  2
    122    123    132    133     1  0.0000000  0.6508444  3
    122    123    132    134     1  0.0000000  0.6508444  3
    122    126    129    130     1  0.0000000  0.6508444  3
    122    126    129    131     1  0.0000000  0.6508444  3
    123    122    126    127     1  0.0000000  1.2552000  3
    123    122    126    128     1  0.0000000  1.2552000  3
    124    123    122    126     1  0.0000000  1.2552000  3
    124    123    132    136     1  0.0000000  0.6508444  3
    124    123    132    133     1  0.0000000  0.6508444  3
    124    123    132    134     1  0.0000000  0.6508444  3
    125    123    122    126     1  0.0000000  1.2552000  3
    125    123    132    136     1  0.0000000  0.6508444  3
    125    123    132    133     1  0.0000000  0.6508444  3
    125    123    132    134     1  0.0000000  0.6508444  3
    127    126    129    135     1  0.0000000  0.6508444  3
    127    126    129    130     1  0.0000000  0.6508444  3
    127    126    129    131     1  0.0000000  0.6508444  3
    128    126    129    135     1  0.0000000  0.6508444  3
    128    126    129    130     1  0.0000000  0.6508444  3
    128    126    129    131     1  0.0000000  0.6508444  3
    129    135    579    580     1  180.0000771  10.4600000  2
    130    129    135    579     1  180.0000771  0.0000000  2
    130    129    135    137     1  0.0000000  3.3472000  1
    130    129    135    137     1  0.0000000  0.0000000  2
    130    129    135    137     1  180.0000771  0.3347200  3
    131    129    135    579     1  180.0000771  0.0000000  2
    131    129    135    137     1  0.0000000  3.3472000  1
    131    129    135    137     1  0.0000000  0.0000000  2
    131    129    135    137     1  180.0000771  0.3347200  3
    132    136    652    653     1  180.0000771  10.4600000  2
    133    132    136    652     1  180.0000771  0.0000000  2
    133    132    136    138     1  0.0000000  3.3472000  1
    133    132    136    138     1  0.0000000  0.0000000  2
    133    132    136    138     1  180.0000771  0.3347200  3
    134    132    136    652     1  180.0000771  0.0000000  2
    134    132    136    138     1  0.0000000  3.3472000  1
    134    132    136    138     1  0.0000000  0.0000000  2
    134    132    136    138     1  180.0000771  0.3347200  3
    135    579    581    582     1  0.0000000  0.0000000  2
    135    579    581    584     1  0.0000000  0.0000000  2
    136    652    654    655     1  0.0000000  0.0000000  2
    136    652    654    657     1  0.0000000  0.0000000  2
    137    135    579    580     1  0.0000000  8.3680000  1
    137    135    579    580     1  180.0000771  10.4600000  2
    138    136    652    653     1  0.0000000  8.3680000  1
    138    136    652    653     1  180.0000771  10.4600000  2
    141    143    145    147     1  0.0000000  0.6508444  3
    141    143    145    148     1  0.0000000  0.6508444  3
    142    141    143    145     1  0.0000000  0.0000000  2
    142    141    143    144     1  0.0000000  0.0000000  2
    142    141    143    146     1  0.0000000  0.0000000  2
    144    143    145    149     1  0.0000000  0.6508444  3
    144    143    145    147     1  0.0000000  0.6508444  3
    144    143    145    148     1  0.0000000  0.6508444  3
    145    149    150    159     1  0.0000000  1.2552000  3
    145    149    150    160     1  0.0000000  1.2552000  3
    145    149    151    152     1  0.0000000  1.2552000  3
    145    149    151    154     1  0.0000000  1.2552000  3
    146    143    145    149     1  0.0000000  0.6508444  3
    146    143    145    147     1  0.0000000  0.6508444  3
    146    143    145    148     1  0.0000000  0.6508444  3
    147    145    149    150     1  0.0000000  1.2552000  3
    147    145    149    151     1  0.0000000  1.2552000  3
    148    145    149    150     1  0.0000000  1.2552000  3
    148    145    149    151     1  0.0000000  1.2552000  3
    149    150    161    162     1  0.0000000  0.6508444  3
    149    150    161    163     1  0.0000000  0.6508444  3
    149    151    153    155     1  0.0000000  0.6508444  3
    149    151    153    156     1  0.0000000  0.6508444  3
    150    149    151    152     1  0.0000000  1.2552000  3
    150    149    151    154     1  0.0000000  1.2552000  3
    151    149    150    159     1  0.0000000  1.2552000  3
    151    149    150    160     1  0.0000000  1.2552000  3
    152    151    153    157     1  0.0000000  0.6508444  3
    152    151    153    155     1  0.0000000  0.6508444  3
    152    151    153    156     1  0.0000000  0.6508444  3
    153    157    189    179     1  180.0000771  6.0668000  2
    153    157    189    179     1  180.0000771  1.4644000  4
    154    151    153    157     1  0.0000000  0.6508444  3
    154    151    153    155     1  0.0000000  0.6508444  3
    154    151    153    156     1  0.0000000  0.6508444  3
    155    153    157    158     1  0.0000000  3.3472000  1
    155    153    157    158     1  0.0000000  0.0000000  2
    155    153    157    158     1  180.0000771  0.3347200  3
    155    153    157    189     1  180.0000771  0.0000000  2
    156    153    157    158     1  0.0000000  3.3472000  1
    156    153    157    158     1  0.0000000  0.0000000  2
    156    153    157    158     1  180.0000771  0.3347200  3
    156    153    157    189     1  180.0000771  0.0000000  2
    157    189    170    172     1  0.0000000  1.2552000  3
    158    157    189    179     1  180.0000771  6.0668000  2
    158    157    189    179     1  180.0000771  1.4644000  4
    159    150    161    164     1  0.0000000  0.6508444  3
    159    150    161    162     1  0.0000000  0.6508444  3
    159    150    161    163     1  0.0000000  0.6508444  3
    160    150    161    164     1  0.0000000  0.6508444  3
    160    150    161    162     1  0.0000000  0.6508444  3
    160    150    161    163     1  0.0000000  0.6508444  3
    161    164    213    203     1  180.0000771  6.0668000  2
    161    164    213    203     1  180.0000771  1.4644000  4
    162    161    164    165     1  0.0000000  3.3472000  1
    162    161    164    165     1  0.0000000  0.0000000  2
    162    161    164    165     1  180.0000771  0.3347200  3
    162    161    164    213     1  180.0000771  0.0000000  2
    163    161    164    165     1  0.0000000  3.3472000  1
    163    161    164    165     1  0.0000000  0.0000000  2
    163    161    164    165     1  180.0000771  0.3347200  3
    163    161    164    213     1  180.0000771  0.0000000  2
    164    213    194    196     1  0.0000000  1.2552000  3
    165    164    213    203     1  180.0000771  6.0668000  2
    165    164    213    203     1  180.0000771  1.4644000  4
    166    167    169    173     1  0.0000000  0.6508444  3
    166    167    187    188     1  0.0000000  1.0460000  1
    166    167    187    188     1  0.0000000  0.6694400  3
    166    177    182    183     1  0.0000000  1.0460000  1
    166    177    182    183     1  0.0000000  0.6694400  3
    166    184    171    174     1  0.0000000  1.6038667  3
    167    166    177    180     1  0.0000000  0.6508444  3
    167    166    177    181     1  0.0000000  0.6508444  3
    167    169    170    172     1  0.0000000  0.6508444  3
    167    169    176    178     1  0.0000000  1.0460000  1
    167    169    176    178     1  0.0000000  0.6694400  3
    168    166    167    169     1  0.0000000  0.6508444  3
    168    166    167    187     1  0.0000000  1.0460000  1
    168    166    167    187     1  0.0000000  0.0000000  3
    168    166    167    186     1  0.0000000  0.6508444  3
    168    166    177    182     1  0.0000000  1.0460000  1
    168    166    177    182     1  0.0000000  0.0000000  3
    168    166    177    180     1  0.0000000  0.6508444  3
    168    166    177    181     1  0.0000000  0.6508444  3
    168    166    184    171     1  0.0000000  1.6038667  3
    169    167    187    188     1  0.0000000  1.0460000  1
    169    167    187    188     1  0.0000000  0.6694400  3
    169    170    171    174     1  0.0000000  0.6508444  3
    169    170    189    179     1  0.0000000  1.2552000  3
    170    169    167    186     1  0.0000000  0.6508444  3
    170    169    176    178     1  0.0000000  1.0460000  1
    170    169    176    178     1  0.0000000  0.6694400  3
    170    171    175    185     1  0.0000000  1.0460000  1
    170    171    175    185     1  0.0000000  0.6694400  3
    171    170    169    173     1  0.0000000  0.6508444  3
    171    170    189    179     1  0.0000000  1.2552000  3
    172    170    169    176     1  0.0000000  1.0460000  1
    172    170    169    176     1  0.0000000  0.0000000  3
    172    170    169    173     1  0.0000000  0.6508444  3
    172    170    171    175     1  0.0000000  1.0460000  1
    172    170    171    175     1  0.0000000  0.0000000  3
    172    170    171    184     1  0.0000000  1.0460000  1
    172    170    171    184     1  0.0000000  0.0000000  3
    172    170    171    174     1  0.0000000  0.6508444  3
    172    170    189    179     1  0.0000000  1.2552000  3
    173    169    167    187     1  0.0000000  1.0460000  1
    173    169    167    187     1  0.0000000  0.0000000  3
    173    169    167    186     1  0.0000000  0.6508444  3
    173    169    170    189     1  0.0000000  0.6508444  3
    173    169    176    178     1  0.0000000  0.6973333  3
    174    171    170    189     1  0.0000000  0.6508444  3
    174    171    175    185     1  0.0000000  0.6973333  3
    176    169    167    186     1  0.0000000  1.0460000  1
    176    169    167    186     1  0.0000000  0.0000000  3
    177    166    167    186     1  0.0000000  0.6508444  3
    180    177    166    184     1  0.0000000  1.0460000  1
    180    177    166    184     1  0.0000000  0.0000000  3
    180    177    182    183     1  0.0000000  0.6973333  3
    181    177    166    184     1  0.0000000  1.0460000  1
    181    177    166    184     1  0.0000000  0.0000000  3
    181    177    182    183     1  0.0000000  0.6973333  3
    184    166    167    186     1  0.0000000  1.0460000  1
    184    166    167    186     1  0.0000000  0.0000000  3
    184    171    175    185     1  0.0000000  0.6973333  3
    186    167    187    188     1  0.0000000  0.6973333  3
    190    191    193    197     1  0.0000000  0.6508444  3
    190    191    211    212     1  0.0000000  1.0460000  1
    190    191    211    212     1  0.0000000  0.6694400  3
    190    201    206    207     1  0.0000000  1.0460000  1
    190    201    206    207     1  0.0000000  0.6694400  3
    190    208    195    198     1  0.0000000  1.6038667  3
    191    190    201    204     1  0.0000000  0.6508444  3
    191    190    201    205     1  0.0000000  0.6508444  3
    191    193    194    196     1  0.0000000  0.6508444  3
    191    193    200    202     1  0.0000000  1.0460000  1
    191    193    200    202     1  0.0000000  0.6694400  3
    192    190    191    193     1  0.0000000  0.6508444  3
    192    190    191    211     1  0.0000000  1.0460000  1
    192    190    191    211     1  0.0000000  0.0000000  3
    192    190    191    210     1  0.0000000  0.6508444  3
    192    190    201    206     1  0.0000000  1.0460000  1
    192    190    201    206     1  0.0000000  0.0000000  3
    192    190    201    204     1  0.0000000  0.6508444  3
    192    190    201    205     1  0.0000000  0.6508444  3
    192    190    208    195     1  0.0000000  1.6038667  3
    193    191    211    212     1  0.0000000  1.0460000  1
    193    191    211    212     1  0.0000000  0.6694400  3
    193    194    195    198     1  0.0000000  0.6508444  3
    193    194    213    203     1  0.0000000  1.2552000  3
    194    193    191    210     1  0.0000000  0.6508444  3
    194    193    200    202     1  0.0000000  1.0460000  1
    194    193    200    202     1  0.0000000  0.6694400  3
    194    195    199    209     1  0.0000000  1.0460000  1
    194    195    199    209     1  0.0000000  0.6694400  3
    195    194    193    197     1  0.0000000  0.6508444  3
    195    194    213    203     1  0.0000000  1.2552000  3
    196    194    193    200     1  0.0000000  1.0460000  1
    196    194    193    200     1  0.0000000  0.0000000  3
    196    194    193    197     1  0.0000000  0.6508444  3
    196    194    195    199     1  0.0000000  1.0460000  1
    196    194    195    199     1  0.0000000  0.0000000  3
    196    194    195    208     1  0.0000000  1.0460000  1
    196    194    195    208     1  0.0000000  0.0000000  3
    196    194    195    198     1  0.0000000  0.6508444  3
    196    194    213    203     1  0.0000000  1.2552000  3
    197    193    191    211     1  0.0000000  1.0460000  1
    197    193    191    211     1  0.0000000  0.0000000  3
    197    193    191    210     1  0.0000000  0.6508444  3
    197    193    194    213     1  0.0000000  0.6508444  3
    197    193    200    202     1  0.0000000  0.6973333  3
    198    195    194    213     1  0.0000000  0.6508444  3
    198    195    199    209     1  0.0000000  0.6973333  3
    200    193    191    210     1  0.0000000  1.0460000  1
    200    193    191    210     1  0.0000000  0.0000000  3
    201    190    191    210     1  0.0000000  0.6508444  3
    204    201    190    208     1  0.0000000  1.0460000  1
    204    201    190    208     1  0.0000000  0.0000000  3
    204    201    206    207     1  0.0000000  0.6973333  3
    205    201    190    208     1  0.0000000  1.0460000  1
    205    201    190    208     1  0.0000000  0.0000000  3
    205    201    206    207     1  0.0000000  0.6973333  3
    208    190    191    210     1  0.0000000  1.0460000  1
    208    190    191    210     1  0.0000000  0.0000000  3
    208    195    199    209     1  0.0000000  0.6973333  3
    210    191    211    212     1  0.0000000  0.6973333  3
    214    216    218    220     1  0.0000000  0.6508444  3
    214    216    218    221     1  0.0000000  0.6508444  3
    215    214    216    218     1  0.0000000  0.0000000  2
    215    214    216    217     1  0.0000000  0.0000000  2
    215    214    216    219     1  0.0000000  0.0000000  2
    217    216    218    222     1  0.0000000  0.6508444  3
    217    216    218    220     1  0.0000000  0.6508444  3
    217    216    218    221     1  0.0000000  0.6508444  3
    218    222    223    232     1  0.0000000  1.2552000  3
    218    222    223    233     1  0.0000000  1.2552000  3
    218    222    224    225     1  0.0000000  1.2552000  3
    218    222    224    227     1  0.0000000  1.2552000  3
    219    216    218    222     1  0.0000000  0.6508444  3
    219    216    218    220     1  0.0000000  0.6508444  3
    219    216    218    221     1  0.0000000  0.6508444  3
    220    218    222    223     1  0.0000000  1.2552000  3
    220    218    222    224     1  0.0000000  1.2552000  3
    221    218    222    223     1  0.0000000  1.2552000  3
    221    218    222    224     1  0.0000000  1.2552000  3
    222    223    234    235     1  0.0000000  0.6508444  3
    222    223    234    236     1  0.0000000  0.6508444  3
    222    224    226    228     1  0.0000000  0.6508444  3
    222    224    226    229     1  0.0000000  0.6508444  3
    223    222    224    225     1  0.0000000  1.2552000  3
    223    222    224    227     1  0.0000000  1.2552000  3
    224    222    223    232     1  0.0000000  1.2552000  3
    224    222    223    233     1  0.0000000  1.2552000  3
    225    224    226    230     1  0.0000000  0.6508444  3
    225    224    226    228     1  0.0000000  0.6508444  3
    225    224    226    229     1  0.0000000  0.6508444  3
    226    230    262    252     1  180.0000771  6.0668000  2
    226    230    262    252     1  180.0000771  1.4644000  4
    227    224    226    230     1  0.0000000  0.6508444  3
    227    224    226    228     1  0.0000000  0.6508444  3
    227    224    226    229     1  0.0000000  0.6508444  3
    228    226    230    231     1  0.0000000  3.3472000  1
    228    226    230    231     1  0.0000000  0.0000000  2
    228    226    230    231     1  180.0000771  0.3347200  3
    228    226    230    262     1  180.0000771  0.0000000  2
    229    226    230    231     1  0.0000000  3.3472000  1
    229    226    230    231     1  0.0000000  0.0000000  2
    229    226    230    231     1  180.0000771  0.3347200  3
    229    226    230    262     1  180.0000771  0.0000000  2
    230    262    243    245     1  0.0000000  1.2552000  3
    231    230    262    252     1  180.0000771  6.0668000  2
    231    230    262    252     1  180.0000771  1.4644000  4
    232    223    234    237     1  0.0000000  0.6508444  3
    232    223    234    235     1  0.0000000  0.6508444  3
    232    223    234    236     1  0.0000000  0.6508444  3
    233    223    234    237     1  0.0000000  0.6508444  3
    233    223    234    235     1  0.0000000  0.6508444  3
    233    223    234    236     1  0.0000000  0.6508444  3
    234    237    286    276     1  180.0000771  6.0668000  2
    234    237    286    276     1  180.0000771  1.4644000  4
    235    234    237    238     1  0.0000000  3.3472000  1
    235    234    237    238     1  0.0000000  0.0000000  2
    235    234    237    238     1  180.0000771  0.3347200  3
    235    234    237    286     1  180.0000771  0.0000000  2
    236    234    237    238     1  0.0000000  3.3472000  1
    236    234    237    238     1  0.0000000  0.0000000  2
    236    234    237    238     1  180.0000771  0.3347200  3
    236    234    237    286     1  180.0000771  0.0000000  2
    237    286    267    269     1  0.0000000  1.2552000  3
    238    237    286    276     1  180.0000771  6.0668000  2
    238    237    286    276     1  180.0000771  1.4644000  4
    239    240    242    246     1  0.0000000  0.6508444  3
    239    240    260    261     1  0.0000000  1.0460000  1
    239    240    260    261     1  0.0000000  0.6694400  3
    239    250    255    256     1  0.0000000  1.0460000  1
    239    250    255    256     1  0.0000000  0.6694400  3
    239    257    244    247     1  0.0000000  1.6038667  3
    240    242    243    245     1  0.0000000  0.6508444  3
    240    242    249    251     1  0.0000000  1.0460000  1
    240    242    249    251     1  0.0000000  0.6694400  3
    240    239    250    253     1  0.0000000  0.6508444  3
    240    239    250    254     1  0.0000000  0.6508444  3
    241    239    240    242     1  0.0000000  0.6508444  3
    241    239    240    260     1  0.0000000  1.0460000  1
    241    239    240    260     1  0.0000000  0.0000000  3
    241    239    240    259     1  0.0000000  0.6508444  3
    241    239    250    255     1  0.0000000  1.0460000  1
    241    239    250    255     1  0.0000000  0.0000000  3
    241    239    250    253     1  0.0000000  0.6508444  3
    241    239    250    254     1  0.0000000  0.6508444  3
    241    239    257    244     1  0.0000000  1.6038667  3
    242    243    244    247     1  0.0000000  0.6508444  3
    242    243    262    252     1  0.0000000  1.2552000  3
    242    240    260    261     1  0.0000000  1.0460000  1
    242    240    260    261     1  0.0000000  0.6694400  3
    243    244    248    258     1  0.0000000  1.0460000  1
    243    244    248    258     1  0.0000000  0.6694400  3
    243    242    249    251     1  0.0000000  1.0460000  1
    243    242    249    251     1  0.0000000  0.6694400  3
    243    242    240    259     1  0.0000000  0.6508444  3
    244    243    262    252     1  0.0000000  1.2552000  3
    244    243    242    246     1  0.0000000  0.6508444  3
    245    243    244    248     1  0.0000000  1.0460000  1
    245    243    244    248     1  0.0000000  0.0000000  3
    245    243    244    257     1  0.0000000  1.0460000  1
    245    243    244    257     1  0.0000000  0.0000000  3
    245    243    244    247     1  0.0000000  0.6508444  3
    245    243    262    252     1  0.0000000  1.2552000  3
    245    243    242    249     1  0.0000000  1.0460000  1
    245    243    242    249     1  0.0000000  0.0000000  3
    245    243    242    246     1  0.0000000  0.6508444  3
    246    242    243    262     1  0.0000000  0.6508444  3
    246    242    249    251     1  0.0000000  0.6973333  3
    246    242    240    260     1  0.0000000  1.0460000  1
    246    242    240    260     1  0.0000000  0.0000000  3
    246    242    240    259     1  0.0000000  0.6508444  3
    247    244    248    258     1  0.0000000  0.6973333  3
    247    244    243    262     1  0.0000000  0.6508444  3
    249    242    240    259     1  0.0000000  1.0460000  1
    249    242    240    259     1  0.0000000  0.0000000  3
    250    239    240    259     1  0.0000000  0.6508444  3
    253    250    255    256     1  0.0000000  0.6973333  3
    253    250    239    257     1  0.0000000  1.0460000  1
    253    250    239    257     1  0.0000000  0.0000000  3
    254    250    255    256     1  0.0000000  0.6973333  3
    254    250    239    257     1  0.0000000  1.0460000  1
    254    250    239    257     1  0.0000000  0.0000000  3
    257    244    248    258     1  0.0000000  0.6973333  3
    257    239    240    259     1  0.0000000  1.0460000  1
    257    239    240    259     1  0.0000000  0.0000000  3
    259    240    260    261     1  0.0000000  0.6973333  3
    263    264    266    270     1  0.0000000  0.6508444  3
    263    264    284    285     1  0.0000000  1.0460000  1
    263    264    284    285     1  0.0000000  0.6694400  3
    263    274    279    280     1  0.0000000  1.0460000  1
    263    274    279    280     1  0.0000000  0.6694400  3
    263    281    268    271     1  0.0000000  1.6038667  3
    264    266    267    269     1  0.0000000  0.6508444  3
    264    266    273    275     1  0.0000000  1.0460000  1
    264    266    273    275     1  0.0000000  0.6694400  3
    264    263    274    277     1  0.0000000  0.6508444  3
    264    263    274    278     1  0.0000000  0.6508444  3
    265    263    264    266     1  0.0000000  0.6508444  3
    265    263    264    284     1  0.0000000  1.0460000  1
    265    263    264    284     1  0.0000000  0.0000000  3
    265    263    264    283     1  0.0000000  0.6508444  3
    265    263    274    279     1  0.0000000  1.0460000  1
    265    263    274    279     1  0.0000000  0.0000000  3
    265    263    274    277     1  0.0000000  0.6508444  3
    265    263    274    278     1  0.0000000  0.6508444  3
    265    263    281    268     1  0.0000000  1.6038667  3
    266    267    268    271     1  0.0000000  0.6508444  3
    266    267    286    276     1  0.0000000  1.2552000  3
    266    264    284    285     1  0.0000000  1.0460000  1
    266    264    284    285     1  0.0000000  0.6694400  3
    267    268    272    282     1  0.0000000  1.0460000  1
    267    268    272    282     1  0.0000000  0.6694400  3
    267    266    273    275     1  0.0000000  1.0460000  1
    267    266    273    275     1  0.0000000  0.6694400  3
    267    266    264    283     1  0.0000000  0.6508444  3
    268    267    286    276     1  0.0000000  1.2552000  3
    268    267    266    270     1  0.0000000  0.6508444  3
    269    267    268    272     1  0.0000000  1.0460000  1
    269    267    268    272     1  0.0000000  0.0000000  3
    269    267    268    281     1  0.0000000  1.0460000  1
    269    267    268    281     1  0.0000000  0.0000000  3
    269    267    268    271     1  0.0000000  0.6508444  3
    269    267    286    276     1  0.0000000  1.2552000  3
    269    267    266    273     1  0.0000000  1.0460000  1
    269    267    266    273     1  0.0000000  0.0000000  3
    269    267    266    270     1  0.0000000  0.6508444  3
    270    266    267    286     1  0.0000000  0.6508444  3
    270    266    273    275     1  0.0000000  0.6973333  3
    270    266    264    284     1  0.0000000  1.0460000  1
    270    266    264    284     1  0.0000000  0.0000000  3
    270    266    264    283     1  0.0000000  0.6508444  3
    271    268    272    282     1  0.0000000  0.6973333  3
    271    268    267    286     1  0.0000000  0.6508444  3
    273    266    264    283     1  0.0000000  1.0460000  1
    273    266    264    283     1  0.0000000  0.0000000  3
    274    263    264    283     1  0.0000000  0.6508444  3
    277    274    279    280     1  0.0000000  0.6973333  3
    277    274    263    281     1  0.0000000  1.0460000  1
    277    274    263    281     1  0.0000000  0.0000000  3
    278    274    279    280     1  0.0000000  0.6973333  3
    278    274    263    281     1  0.0000000  1.0460000  1
    278    274    263    281     1  0.0000000  0.0000000  3
    281    268    272    282     1  0.0000000  0.6973333  3
    281    263    264    283     1  0.0000000  1.0460000  1
    281    263    264    283     1  0.0000000  0.0000000  3
    283    264    284    285     1  0.0000000  0.6973333  3
    287    289    291    293     1  0.0000000  0.6508444  3
    287    289    291    294     1  0.0000000  0.6508444  3
    288    287    289    291     1  0.0000000  0.0000000  2
    288    287    289    290     1  0.0000000  0.0000000  2
    288    287    289    292     1  0.0000000  0.0000000  2
    290    289    291    295     1  0.0000000  0.6508444  3
    290    289    291    293     1  0.0000000  0.6508444  3
    290    289    291    294     1  0.0000000  0.6508444  3
    291    295    296    305     1  0.0000000  1.2552000  3
    291    295    296    306     1  0.0000000  1.2552000  3
    291    295    297    298     1  0.0000000  1.2552000  3
    291    295    297    300     1  0.0000000  1.2552000  3
    292    289    291    295     1  0.0000000  0.6508444  3
    292    289    291    293     1  0.0000000  0.6508444  3
    292    289    291    294     1  0.0000000  0.6508444  3
    293    291    295    296     1  0.0000000  1.2552000  3
    293    291    295    297     1  0.0000000  1.2552000  3
    294    291    295    296     1  0.0000000  1.2552000  3
    294    291    295    297     1  0.0000000  1.2552000  3
    295    296    307    308     1  0.0000000  0.6508444  3
    295    296    307    309     1  0.0000000  0.6508444  3
    295    297    299    301     1  0.0000000  0.6508444  3
    295    297    299    302     1  0.0000000  0.6508444  3
    296    295    297    298     1  0.0000000  1.2552000  3
    296    295    297    300     1  0.0000000  1.2552000  3
    297    295    296    305     1  0.0000000  1.2552000  3
    297    295    296    306     1  0.0000000  1.2552000  3
    298    297    299    303     1  0.0000000  0.6508444  3
    298    297    299    301     1  0.0000000  0.6508444  3
    298    297    299    302     1  0.0000000  0.6508444  3
    299    303    335    325     1  180.0000771  6.0668000  2
    299    303    335    325     1  180.0000771  1.4644000  4
    300    297    299    303     1  0.0000000  0.6508444  3
    300    297    299    301     1  0.0000000  0.6508444  3
    300    297    299    302     1  0.0000000  0.6508444  3
    301    299    303    304     1  0.0000000  3.3472000  1
    301    299    303    304     1  0.0000000  0.0000000  2
    301    299    303    304     1  180.0000771  0.3347200  3
    301    299    303    335     1  180.0000771  0.0000000  2
    302    299    303    304     1  0.0000000  3.3472000  1
    302    299    303    304     1  0.0000000  0.0000000  2
    302    299    303    304     1  180.0000771  0.3347200  3
    302    299    303    335     1  180.0000771  0.0000000  2
    303    335    316    318     1  0.0000000  1.2552000  3
    304    303    335    325     1  180.0000771  6.0668000  2
    304    303    335    325     1  180.0000771  1.4644000  4
    305    296    307    310     1  0.0000000  0.6508444  3
    305    296    307    308     1  0.0000000  0.6508444  3
    305    296    307    309     1  0.0000000  0.6508444  3
    306    296    307    310     1  0.0000000  0.6508444  3
    306    296    307    308     1  0.0000000  0.6508444  3
    306    296    307    309     1  0.0000000  0.6508444  3
    307    310    359    349     1  180.0000771  6.0668000  2
    307    310    359    349     1  180.0000771  1.4644000  4
    308    307    310    311     1  0.0000000  3.3472000  1
    308    307    310    311     1  0.0000000  0.0000000  2
    308    307    310    311     1  180.0000771  0.3347200  3
    308    307    310    359     1  180.0000771  0.0000000  2
    309    307    310    311     1  0.0000000  3.3472000  1
    309    307    310    311     1  0.0000000  0.0000000  2
    309    307    310    311     1  180.0000771  0.3347200  3
    309    307    310    359     1  180.0000771  0.0000000  2
    310    359    340    342     1  0.0000000  1.2552000  3
    311    310    359    349     1  180.0000771  6.0668000  2
    311    310    359    349     1  180.0000771  1.4644000  4
    312    313    315    319     1  0.0000000  0.6508444  3
    312    313    333    334     1  0.0000000  1.0460000  1
    312    313    333    334     1  0.0000000  0.6694400  3
    312    323    328    329     1  0.0000000  1.0460000  1
    312    323    328    329     1  0.0000000  0.6694400  3
    312    330    317    320     1  0.0000000  1.6038667  3
    313    312    323    326     1  0.0000000  0.6508444  3
    313    312    323    327     1  0.0000000  0.6508444  3
    313    315    316    318     1  0.0000000  0.6508444  3
    313    315    322    324     1  0.0000000  1.0460000  1
    313    315    322    324     1  0.0000000  0.6694400  3
    314    312    313    315     1  0.0000000  0.6508444  3
    314    312    313    333     1  0.0000000  1.0460000  1
    314    312    313    333     1  0.0000000  0.0000000  3
    314    312    313    332     1  0.0000000  0.6508444  3
    314    312    323    328     1  0.0000000  1.0460000  1
    314    312    323    328     1  0.0000000  0.0000000  3
    314    312    323    326     1  0.0000000  0.6508444  3
    314    312    323    327     1  0.0000000  0.6508444  3
    314    312    330    317     1  0.0000000  1.6038667  3
    315    313    333    334     1  0.0000000  1.0460000  1
    315    313    333    334     1  0.0000000  0.6694400  3
    315    316    317    320     1  0.0000000  0.6508444  3
    315    316    335    325     1  0.0000000  1.2552000  3
    316    315    313    332     1  0.0000000  0.6508444  3
    316    315    322    324     1  0.0000000  1.0460000  1
    316    315    322    324     1  0.0000000  0.6694400  3
    316    317    321    331     1  0.0000000  1.0460000  1
    316    317    321    331     1  0.0000000  0.6694400  3
    317    316    315    319     1  0.0000000  0.6508444  3
    317    316    335    325     1  0.0000000  1.2552000  3
    318    316    315    322     1  0.0000000  1.0460000  1
    318    316    315    322     1  0.0000000  0.0000000  3
    318    316    315    319     1  0.0000000  0.6508444  3
    318    316    317    321     1  0.0000000  1.0460000  1
    318    316    317    321     1  0.0000000  0.0000000  3
    318    316    317    330     1  0.0000000  1.0460000  1
    318    316    317    330     1  0.0000000  0.0000000  3
    318    316    317    320     1  0.0000000  0.6508444  3
    318    316    335    325     1  0.0000000  1.2552000  3
    319    315    313    333     1  0.0000000  1.0460000  1
    319    315    313    333     1  0.0000000  0.0000000  3
    319    315    313    332     1  0.0000000  0.6508444  3
    319    315    316    335     1  0.0000000  0.6508444  3
    319    315    322    324     1  0.0000000  0.6973333  3
    320    317    316    335     1  0.0000000  0.6508444  3
    320    317    321    331     1  0.0000000  0.6973333  3
    322    315    313    332     1  0.0000000  1.0460000  1
    322    315    313    332     1  0.0000000  0.0000000  3
    323    312    313    332     1  0.0000000  0.6508444  3
    326    323    312    330     1  0.0000000  1.0460000  1
    326    323    312    330     1  0.0000000  0.0000000  3
    326    323    328    329     1  0.0000000  0.6973333  3
    327    323    312    330     1  0.0000000  1.0460000  1
    327    323    312    330     1  0.0000000  0.0000000  3
    327    323    328    329     1  0.0000000  0.6973333  3
    330    312    313    332     1  0.0000000  1.0460000  1
    330    312    313    332     1  0.0000000  0.0000000  3
    330    317    321    331     1  0.0000000  0.6973333  3
    332    313    333    334     1  0.0000000  0.6973333  3
    336    337    339    343     1  0.0000000  0.6508444  3
    336    337    357    358     1  0.0000000  1.0460000  1
    336    337    357    358     1  0.0000000  0.6694400  3
    336    347    352    353     1  0.0000000  1.0460000  1
    336    347    352    353     1  0.0000000  0.6694400  3
    336    354    341    344     1  0.0000000  1.6038667  3
    337    336    347    350     1  0.0000000  0.6508444  3
    337    336    347    351     1  0.0000000  0.6508444  3
    337    339    340    342     1  0.0000000  0.6508444  3
    337    339    346    348     1  0.0000000  1.0460000  1
    337    339    346    348     1  0.0000000  0.6694400  3
    338    336    337    339     1  0.0000000  0.6508444  3
    338    336    337    357     1  0.0000000  1.0460000  1
    338    336    337    357     1  0.0000000  0.0000000  3
    338    336    337    356     1  0.0000000  0.6508444  3
    338    336    347    352     1  0.0000000  1.0460000  1
    338    336    347    352     1  0.0000000  0.0000000  3
    338    336    347    350     1  0.0000000  0.6508444  3
    338    336    347    351     1  0.0000000  0.6508444  3
    338    336    354    341     1  0.0000000  1.6038667  3
    339    337    357    358     1  0.0000000  1.0460000  1
    339    337    357    358     1  0.0000000  0.6694400  3
    339    340    341    344     1  0.0000000  0.6508444  3
    339    340    359    349     1  0.0000000  1.2552000  3
    340    339    337    356     1  0.0000000  0.6508444  3
    340    339    346    348     1  0.0000000  1.0460000  1
    340    339    346    348     1  0.0000000  0.6694400  3
    340    341    345    355     1  0.0000000  1.0460000  1
    340    341    345    355     1  0.0000000  0.6694400  3
    341    340    339    343     1  0.0000000  0.6508444  3
    341    340    359    349     1  0.0000000  1.2552000  3
    342    340    339    346     1  0.0000000  1.0460000  1
    342    340    339    346     1  0.0000000  0.0000000  3
    342    340    339    343     1  0.0000000  0.6508444  3
    342    340    341    345     1  0.0000000  1.0460000  1
    342    340    341    345     1  0.0000000  0.0000000  3
    342    340    341    354     1  0.0000000  1.0460000  1
    342    340    341    354     1  0.0000000  0.0000000  3
    342    340    341    344     1  0.0000000  0.6508444  3
    342    340    359    349     1  0.0000000  1.2552000  3
    343    339    337    357     1  0.0000000  1.0460000  1
    343    339    337    357     1  0.0000000  0.0000000  3
    343    339    337    356     1  0.0000000  0.6508444  3
    343    339    340    359     1  0.0000000  0.6508444  3
    343    339    346    348     1  0.0000000  0.6973333  3
    344    341    340    359     1  0.0000000  0.6508444  3
    344    341    345    355     1  0.0000000  0.6973333  3
    346    339    337    356     1  0.0000000  1.0460000  1
    346    339    337    356     1  0.0000000  0.0000000  3
    347    336    337    356     1  0.0000000  0.6508444  3
    350    347    336    354     1  0.0000000  1.0460000  1
    350    347    336    354     1  0.0000000  0.0000000  3
    350    347    352    353     1  0.0000000  0.6973333  3
    351    347    336    354     1  0.0000000  1.0460000  1
    351    347    336    354     1  0.0000000  0.0000000  3
    351    347    352    353     1  0.0000000  0.6973333  3
    354    336    337    356     1  0.0000000  1.0460000  1
    354    336    337    356     1  0.0000000  0.0000000  3
    354    341    345    355     1  0.0000000  0.6973333  3
    356    337    357    358     1  0.0000000  0.6973333  3
    360    362    364    366     1  0.0000000  0.6508444  3
    360    362    364    367     1  0.0000000  0.6508444  3
    361    360    362    364     1  0.0000000  0.0000000  2
    361    360    362    363     1  0.0000000  0.0000000  2
    361    360    362    365     1  0.0000000  0.0000000  2
    363    362    364    368     1  0.0000000  0.6508444  3
    363    362    364    366     1  0.0000000  0.6508444  3
    363    362    364    367     1  0.0000000  0.6508444  3
    364    368    369    378     1  0.0000000  1.2552000  3
    364    368    369    379     1  0.0000000  1.2552000  3
    364    368    370    371     1  0.0000000  1.2552000  3
    364    368    370    373     1  0.0000000  1.2552000  3
    365    362    364    368     1  0.0000000  0.6508444  3
    365    362    364    366     1  0.0000000  0.6508444  3
    365    362    364    367     1  0.0000000  0.6508444  3
    366    364    368    369     1  0.0000000  1.2552000  3
    366    364    368    370     1  0.0000000  1.2552000  3
    367    364    368    369     1  0.0000000  1.2552000  3
    367    364    368    370     1  0.0000000  1.2552000  3
    368    369    380    381     1  0.0000000  0.6508444  3
    368    369    380    382     1  0.0000000  0.6508444  3
    368    370    372    374     1  0.0000000  0.6508444  3
    368    370    372    375     1  0.0000000  0.6508444  3
    369    368    370    371     1  0.0000000  1.2552000  3
    369    368    370    373     1  0.0000000  1.2552000  3
    370    368    369    378     1  0.0000000  1.2552000  3
    370    368    369    379     1  0.0000000  1.2552000  3
    371    370    372    376     1  0.0000000  0.6508444  3
    371    370    372    374     1  0.0000000  0.6508444  3
    371    370    372    375     1  0.0000000  0.6508444  3
    372    376    408    398     1  180.0000771  6.0668000  2
    372    376    408    398     1  180.0000771  1.4644000  4
    373    370    372    376     1  0.0000000  0.6508444  3
    373    370    372    374     1  0.0000000  0.6508444  3
    373    370    372    375     1  0.0000000  0.6508444  3
    374    372    376    377     1  0.0000000  3.3472000  1
    374    372    376    377     1  0.0000000  0.0000000  2
    374    372    376    377     1  180.0000771  0.3347200  3
    374    372    376    408     1  180.0000771  0.0000000  2
    375    372    376    377     1  0.0000000  3.3472000  1
    375    372    376    377     1  0.0000000  0.0000000  2
    375    372    376    377     1  180.0000771  0.3347200  3
    375    372    376    408     1  180.0000771  0.0000000  2
    376    408    389    391     1  0.0000000  1.2552000  3
    377    376    408    398     1  180.0000771  6.0668000  2
    377    376    408    398     1  180.0000771  1.4644000  4
    378    369    380    383     1  0.0000000  0.6508444  3
    378    369    380    381     1  0.0000000  0.6508444  3
    378    369    380    382     1  0.0000000  0.6508444  3
    379    369    380    383     1  0.0000000  0.6508444  3
    379    369    380    381     1  0.0000000  0.6508444  3
    379    369    380    382     1  0.0000000  0.6508444  3
    380    383    432    422     1  180.0000771  6.0668000  2
    380    383    432    422     1  180.0000771  1.4644000  4
    381    380    383    384     1  0.0000000  3.3472000  1
    381    380    383    384     1  0.0000000  0.0000000  2
    381    380    383    384     1  180.0000771  0.3347200  3
    381    380    383    432     1  180.0000771  0.0000000  2
    382    380    383    384     1  0.0000000  3.3472000  1
    382    380    383    384     1  0.0000000  0.0000000  2
    382    380    383    384     1  180.0000771  0.3347200  3
    382    380    383    432     1  180.0000771  0.0000000  2
    383    432    413    415     1  0.0000000  1.2552000  3
    384    383    432    422     1  180.0000771  6.0668000  2
    384    383    432    422     1  180.0000771  1.4644000  4
    385    386    388    392     1  0.0000000  0.6508444  3
    385    386    406    407     1  0.0000000  1.0460000  1
    385    386    406    407     1  0.0000000  0.6694400  3
    385    396    401    402     1  0.0000000  1.0460000  1
    385    396    401    402     1  0.0000000  0.6694400  3
    385    403    390    393     1  0.0000000  1.6038667  3
    386    388    389    391     1  0.0000000  0.6508444  3
    386    388    395    397     1  0.0000000  1.0460000  1
    386    388    395    397     1  0.0000000  0.6694400  3
    386    385    396    399     1  0.0000000  0.6508444  3
    386    385    396    400     1  0.0000000  0.6508444  3
    387    385    386    388     1  0.0000000  0.6508444  3
    387    385    386    406     1  0.0000000  1.0460000  1
    387    385    386    406     1  0.0000000  0.0000000  3
    387    385    386    405     1  0.0000000  0.6508444  3
    387    385    396    401     1  0.0000000  1.0460000  1
    387    385    396    401     1  0.0000000  0.0000000  3
    387    385    396    399     1  0.0000000  0.6508444  3
    387    385    396    400     1  0.0000000  0.6508444  3
    387    385    403    390     1  0.0000000  1.6038667  3
    388    389    390    393     1  0.0000000  0.6508444  3
    388    389    408    398     1  0.0000000  1.2552000  3
    388    386    406    407     1  0.0000000  1.0460000  1
    388    386    406    407     1  0.0000000  0.6694400  3
    389    390    394    404     1  0.0000000  1.0460000  1
    389    390    394    404     1  0.0000000  0.6694400  3
    389    388    395    397     1  0.0000000  1.0460000  1
    389    388    395    397     1  0.0000000  0.6694400  3
    389    388    386    405     1  0.0000000  0.6508444  3
    390    389    408    398     1  0.0000000  1.2552000  3
    390    389    388    392     1  0.0000000  0.6508444  3
    391    389    390    394     1  0.0000000  1.0460000  1
    391    389    390    394     1  0.0000000  0.0000000  3
    391    389    390    403     1  0.0000000  1.0460000  1
    391    389    390    403     1  0.0000000  0.0000000  3
    391    389    390    393     1  0.0000000  0.6508444  3
    391    389    408    398     1  0.0000000  1.2552000  3
    391    389    388    395     1  0.0000000  1.0460000  1
    391    389    388    395     1  0.0000000  0.0000000  3
    391    389    388    392     1  0.0000000  0.6508444  3
    392    388    389    408     1  0.0000000  0.6508444  3
    392    388    395    397     1  0.0000000  0.6973333  3
    392    388    386    406     1  0.0000000  1.0460000  1
    392    388    386    406     1  0.0000000  0.0000000  3
    392    388    386    405     1  0.0000000  0.6508444  3
    393    390    394    404     1  0.0000000  0.6973333  3
    393    390    389    408     1  0.0000000  0.6508444  3
    395    388    386    405     1  0.0000000  1.0460000  1
    395    388    386    405     1  0.0000000  0.0000000  3
    396    385    386    405     1  0.0000000  0.6508444  3
    399    396    401    402     1  0.0000000  0.6973333  3
    399    396    385    403     1  0.0000000  1.0460000  1
    399    396    385    403     1  0.0000000  0.0000000  3
    400    396    401    402     1  0.0000000  0.6973333  3
    400    396    385    403     1  0.0000000  1.0460000  1
    400    396    385    403     1  0.0000000  0.0000000  3
    403    390    394    404     1  0.0000000  0.6973333  3
    403    385    386    405     1  0.0000000  1.0460000  1
    403    385    386    405     1  0.0000000  0.0000000  3
    405    386    406    407     1  0.0000000  0.6973333  3
    409    410    412    416     1  0.0000000  0.6508444  3
    409    410    430    431     1  0.0000000  1.0460000  1
    409    410    430    431     1  0.0000000  0.6694400  3
    409    420    425    426     1  0.0000000  1.0460000  1
    409    420    425    426     1  0.0000000  0.6694400  3
    409    427    414    417     1  0.0000000  1.6038667  3
    410    412    413    415     1  0.0000000  0.6508444  3
    410    412    419    421     1  0.0000000  1.0460000  1
    410    412    419    421     1  0.0000000  0.6694400  3
    410    409    420    423     1  0.0000000  0.6508444  3
    410    409    420    424     1  0.0000000  0.6508444  3
    411    409    410    412     1  0.0000000  0.6508444  3
    411    409    410    430     1  0.0000000  1.0460000  1
    411    409    410    430     1  0.0000000  0.0000000  3
    411    409    410    429     1  0.0000000  0.6508444  3
    411    409    420    425     1  0.0000000  1.0460000  1
    411    409    420    425     1  0.0000000  0.0000000  3
    411    409    420    423     1  0.0000000  0.6508444  3
    411    409    420    424     1  0.0000000  0.6508444  3
    411    409    427    414     1  0.0000000  1.6038667  3
    412    413    414    417     1  0.0000000  0.6508444  3
    412    413    432    422     1  0.0000000  1.2552000  3
    412    410    430    431     1  0.0000000  1.0460000  1
    412    410    430    431     1  0.0000000  0.6694400  3
    413    414    418    428     1  0.0000000  1.0460000  1
    413    414    418    428     1  0.0000000  0.6694400  3
    413    412    419    421     1  0.0000000  1.0460000  1
    413    412    419    421     1  0.0000000  0.6694400  3
    413    412    410    429     1  0.0000000  0.6508444  3
    414    413    432    422     1  0.0000000  1.2552000  3
    414    413    412    416     1  0.0000000  0.6508444  3
    415    413    414    418     1  0.0000000  1.0460000  1
    415    413    414    418     1  0.0000000  0.0000000  3
    415    413    414    427     1  0.0000000  1.0460000  1
    415    413    414    427     1  0.0000000  0.0000000  3
    415    413    414    417     1  0.0000000  0.6508444  3
    415    413    432    422     1  0.0000000  1.2552000  3
    415    413    412    419     1  0.0000000  1.0460000  1
    415    413    412    419     1  0.0000000  0.0000000  3
    415    413    412    416     1  0.0000000  0.6508444  3
    416    412    413    432     1  0.0000000  0.6508444  3
    416    412    419    421     1  0.0000000  0.6973333  3
    416    412    410    430     1  0.0000000  1.0460000  1
    416    412    410    430     1  0.0000000  0.0000000  3
    416    412    410    429     1  0.0000000  0.6508444  3
    417    414    418    428     1  0.0000000  0.6973333  3
    417    414    413    432     1  0.0000000  0.6508444  3
    419    412    410    429     1  0.0000000  1.0460000  1
    419    412    410    429     1  0.0000000  0.0000000  3
    420    409    410    429     1  0.0000000  0.6508444  3
    423    420    425    426     1  0.0000000  0.6973333  3
    423    420    409    427     1  0.0000000  1.0460000  1
    423    420    409    427     1  0.0000000  0.0000000  3
    424    420    425    426     1  0.0000000  0.6973333  3
    424    420    409    427     1  0.0000000  1.0460000  1
    424    420    409    427     1  0.0000000  0.0000000  3
    427    414    418    428     1  0.0000000  0.6973333  3
    427    409    410    429     1  0.0000000  1.0460000  1
    427    409    410    429     1  0.0000000  0.0000000  3
    429    410    430    431     1  0.0000000  0.6973333  3
    433    435    437    439     1  0.0000000  0.6508444  3
    433    435    437    440     1  0.0000000  0.6508444  3
    434    433    435    437     1  0.0000000  0.0000000  2
    434    433    435    436     1  0.0000000  0.0000000  2
    434    433    435    438     1  0.0000000  0.0000000  2
    436    435    437    441     1  0.0000000  0.6508444  3
    436    435    437    439     1  0.0000000  0.6508444  3
    436    435    437    440     1  0.0000000  0.6508444  3
    437    441    442    451     1  0.0000000  1.2552000  3
    437    441    442    452     1  0.0000000  1.2552000  3
    437    441    443    444     1  0.0000000  1.2552000  3
    437    441    443    446     1  0.0000000  1.2552000  3
    438    435    437    441     1  0.0000000  0.6508444  3
    438    435    437    439     1  0.0000000  0.6508444  3
    438    435    437    440     1  0.0000000  0.6508444  3
    439    437    441    442     1  0.0000000  1.2552000  3
    439    437    441    443     1  0.0000000  1.2552000  3
    440    437    441    442     1  0.0000000  1.2552000  3
    440    437    441    443     1  0.0000000  1.2552000  3
    441    442    453    454     1  0.0000000  0.6508444  3
    441    442    453    455     1  0.0000000  0.6508444  3
    441    443    445    447     1  0.0000000  0.6508444  3
    441    443    445    448     1  0.0000000  0.6508444  3
    442    441    443    444     1  0.0000000  1.2552000  3
    442    441    443    446     1  0.0000000  1.2552000  3
    443    441    442    451     1  0.0000000  1.2552000  3
    443    441    442    452     1  0.0000000  1.2552000  3
    444    443    445    449     1  0.0000000  0.6508444  3
    444    443    445    447     1  0.0000000  0.6508444  3
    444    443    445    448     1  0.0000000  0.6508444  3
    445    449    481    471     1  180.0000771  6.0668000  2
    445    449    481    471     1  180.0000771  1.4644000  4
    446    443    445    449     1  0.0000000  0.6508444  3
    446    443    445    447     1  0.0000000  0.6508444  3
    446    443    445    448     1  0.0000000  0.6508444  3
    447    445    449    450     1  0.0000000  3.3472000  1
    447    445    449    450     1  0.0000000  0.0000000  2
    447    445    449    450     1  180.0000771  0.3347200  3
    447    445    449    481     1  180.0000771  0.0000000  2
    448    445    449    450     1  0.0000000  3.3472000  1
    448    445    449    450     1  0.0000000  0.0000000  2
    448    445    449    450     1  180.0000771  0.3347200  3
    448    445    449    481     1  180.0000771  0.0000000  2
    449    481    462    464     1  0.0000000  1.2552000  3
    450    449    481    471     1  180.0000771  6.0668000  2
    450    449    481    471     1  180.0000771  1.4644000  4
    451    442    453    456     1  0.0000000  0.6508444  3
    451    442    453    454     1  0.0000000  0.6508444  3
    451    442    453    455     1  0.0000000  0.6508444  3
    452    442    453    456     1  0.0000000  0.6508444  3
    452    442    453    454     1  0.0000000  0.6508444  3
    452    442    453    455     1  0.0000000  0.6508444  3
    453    456    505    495     1  180.0000771  6.0668000  2
    453    456    505    495     1  180.0000771  1.4644000  4
    454    453    456    457     1  0.0000000  3.3472000  1
    454    453    456    457     1  0.0000000  0.0000000  2
    454    453    456    457     1  180.0000771  0.3347200  3
    454    453    456    505     1  180.0000771  0.0000000  2
    455    453    456    457     1  0.0000000  3.3472000  1
    455    453    456    457     1  0.0000000  0.0000000  2
    455    453    456    457     1  180.0000771  0.3347200  3
    455    453    456    505     1  180.0000771  0.0000000  2
    456    505    486    488     1  0.0000000  1.2552000  3
    457    456    505    495     1  180.0000771  6.0668000  2
    457    456    505    495     1  180.0000771  1.4644000  4
    458    459    461    465     1  0.0000000  0.6508444  3
    458    459    479    480     1  0.0000000  1.0460000  1
    458    459    479    480     1  0.0000000  0.6694400  3
    458    469    474    475     1  0.0000000  1.0460000  1
    458    469    474    475     1  0.0000000  0.6694400  3
    458    476    463    466     1  0.0000000  1.6038667  3
    459    458    469    472     1  0.0000000  0.6508444  3
    459    458    469    473     1  0.0000000  0.6508444  3
    459    461    462    464     1  0.0000000  0.6508444  3
    459    461    468    470     1  0.0000000  1.0460000  1
    459    461    468    470     1  0.0000000  0.6694400  3
    460    458    459    461     1  0.0000000  0.6508444  3
    460    458    459    479     1  0.0000000  1.0460000  1
    460    458    459    479     1  0.0000000  0.0000000  3
    460    458    459    478     1  0.0000000  0.6508444  3
    460    458    469    474     1  0.0000000  1.0460000  1
    460    458    469    474     1  0.0000000  0.0000000  3
    460    458    469    472     1  0.0000000  0.6508444  3
    460    458    469    473     1  0.0000000  0.6508444  3
    460    458    476    463     1  0.0000000  1.6038667  3
    461    459    479    480     1  0.0000000  1.0460000  1
    461    459    479    480     1  0.0000000  0.6694400  3
    461    462    463    466     1  0.0000000  0.6508444  3
    461    462    481    471     1  0.0000000  1.2552000  3
    462    461    459    478     1  0.0000000  0.6508444  3
    462    461    468    470     1  0.0000000  1.0460000  1
    462    461    468    470     1  0.0000000  0.6694400  3
    462    463    467    477     1  0.0000000  1.0460000  1
    462    463    467    477     1  0.0000000  0.6694400  3
    463    462    461    465     1  0.0000000  0.6508444  3
    463    462    481    471     1  0.0000000  1.2552000  3
    464    462    461    468     1  0.0000000  1.0460000  1
    464    462    461    468     1  0.0000000  0.0000000  3
    464    462    461    465     1  0.0000000  0.6508444  3
    464    462    463    467     1  0.0000000  1.0460000  1
    464    462    463    467     1  0.0000000  0.0000000  3
    464    462    463    476     1  0.0000000  1.0460000  1
    464    462    463    476     1  0.0000000  0.0000000  3
    464    462    463    466     1  0.0000000  0.6508444  3
    464    462    481    471     1  0.0000000  1.2552000  3
    465    461    459    479     1  0.0000000  1.0460000  1
    465    461    459    479     1  0.0000000  0.0000000  3
    465    461    459    478     1  0.0000000  0.6508444  3
    465    461    462    481     1  0.0000000  0.6508444  3
    465    461    468    470     1  0.0000000  0.6973333  3
    466    463    462    481     1  0.0000000  0.6508444  3
    466    463    467    477     1  0.0000000  0.6973333  3
    468    461    459    478     1  0.0000000  1.0460000  1
    468    461    459    478     1  0.0000000  0.0000000  3
    469    458    459    478     1  0.0000000  0.6508444  3
    472    469    458    476     1  0.0000000  1.0460000  1
    472    469    458    476     1  0.0000000  0.0000000  3
    472    469    474    475     1  0.0000000  0.6973333  3
    473    469    458    476     1  0.0000000  1.0460000  1
    473    469    458    476     1  0.0000000  0.0000000  3
    473    469    474    475     1  0.0000000  0.6973333  3
    476    458    459    478     1  0.0000000  1.0460000  1
    476    458    459    478     1  0.0000000  0.0000000  3
    476    463    467    477     1  0.0000000  0.6973333  3
    478    459    479    480     1  0.0000000  0.6973333  3
    482    483    485    489     1  0.0000000  0.6508444  3
    482    483    503    504     1  0.0000000  1.0460000  1
    482    483    503    504     1  0.0000000  0.6694400  3
    482    493    498    499     1  0.0000000  1.0460000  1
    482    493    498    499     1  0.0000000  0.6694400  3
    482    500    487    490     1  0.0000000  1.6038667  3
    483    482    493    496     1  0.0000000  0.6508444  3
    483    482    493    497     1  0.0000000  0.6508444  3
    483    485    486    488     1  0.0000000  0.6508444  3
    483    485    492    494     1  0.0000000  1.0460000  1
    483    485    492    494     1  0.0000000  0.6694400  3
    484    482    483    485     1  0.0000000  0.6508444  3
    484    482    483    503     1  0.0000000  1.0460000  1
    484    482    483    503     1  0.0000000  0.0000000  3
    484    482    483    502     1  0.0000000  0.6508444  3
    484    482    493    498     1  0.0000000  1.0460000  1
    484    482    493    498     1  0.0000000  0.0000000  3
    484    482    493    496     1  0.0000000  0.6508444  3
    484    482    493    497     1  0.0000000  0.6508444  3
    484    482    500    487     1  0.0000000  1.6038667  3
    485    483    503    504     1  0.0000000  1.0460000  1
    485    483    503    504     1  0.0000000  0.6694400  3
    485    486    487    490     1  0.0000000  0.6508444  3
    485    486    505    495     1  0.0000000  1.2552000  3
    486    485    483    502     1  0.0000000  0.6508444  3
    486    485    492    494     1  0.0000000  1.0460000  1
    486    485    492    494     1  0.0000000  0.6694400  3
    486    487    491    501     1  0.0000000  1.0460000  1
    486    487    491    501     1  0.0000000  0.6694400  3
    487    486    485    489     1  0.0000000  0.6508444  3
    487    486    505    495     1  0.0000000  1.2552000  3
    488    486    485    492     1  0.0000000  1.0460000  1
    488    486    485    492     1  0.0000000  0.0000000  3
    488    486    485    489     1  0.0000000  0.6508444  3
    488    486    487    491     1  0.0000000  1.0460000  1
    488    486    487    491     1  0.0000000  0.0000000  3
    488    486    487    500     1  0.0000000  1.0460000  1
    488    486    487    500     1  0.0000000  0.0000000  3
    488    486    487    490     1  0.0000000  0.6508444  3
    488    486    505    495     1  0.0000000  1.2552000  3
    489    485    483    503     1  0.0000000  1.0460000  1
    489    485    483    503     1  0.0000000  0.0000000  3
    489    485    483    502     1  0.0000000  0.6508444  3
    489    485    486    505     1  0.0000000  0.6508444  3
    489    485    492    494     1  0.0000000  0.6973333  3
    490    487    486    505     1  0.0000000  0.6508444  3
    490    487    491    501     1  0.0000000  0.6973333  3
    492    485    483    502     1  0.0000000  1.0460000  1
    492    485    483    502     1  0.0000000  0.0000000  3
    493    482    483    502     1  0.0000000  0.6508444  3
    496    493    482    500     1  0.0000000  1.0460000  1
    496    493    482    500     1  0.0000000  0.0000000  3
    496    493    498    499     1  0.0000000  0.6973333  3
    497    493    482    500     1  0.0000000  1.0460000  1
    497    493    482    500     1  0.0000000  0.0000000  3
    497    493    498    499     1  0.0000000  0.6973333  3
    500    482    483    502     1  0.0000000  1.0460000  1
    500    482    483    502     1  0.0000000  0.0000000  3
    500    487    491    501     1  0.0000000  0.6973333  3
    502    483    503    504     1  0.0000000  0.6973333  3
    506    508    510    512     1  0.0000000  0.6508444  3
    506    508    510    513     1  0.0000000  0.6508444  3
    507    506    508    510     1  0.0000000  0.0000000  2
    507    506    508    509     1  0.0000000  0.0000000  2
    507    506    508    511     1  0.0000000  0.0000000  2
    509    508    510    514     1  0.0000000  0.6508444  3
    509    508    510    512     1  0.0000000  0.6508444  3
    509    508    510    513     1  0.0000000  0.6508444  3
    510    514    515    524     1  0.0000000  1.2552000  3
    510    514    515    525     1  0.0000000  1.2552000  3
    510    514    516    517     1  0.0000000  1.2552000  3
    510    514    516    519     1  0.0000000  1.2552000  3
    511    508    510    514     1  0.0000000  0.6508444  3
    511    508    510    512     1  0.0000000  0.6508444  3
    511    508    510    513     1  0.0000000  0.6508444  3
    512    510    514    515     1  0.0000000  1.2552000  3
    512    510    514    516     1  0.0000000  1.2552000  3
    513    510    514    515     1  0.0000000  1.2552000  3
    513    510    514    516     1  0.0000000  1.2552000  3
    514    515    526    527     1  0.0000000  0.6508444  3
    514    515    526    528     1  0.0000000  0.6508444  3
    514    516    518    520     1  0.0000000  0.6508444  3
    514    516    518    521     1  0.0000000  0.6508444  3
    515    514    516    517     1  0.0000000  1.2552000  3
    515    514    516    519     1  0.0000000  1.2552000  3
    516    514    515    524     1  0.0000000  1.2552000  3
    516    514    515    525     1  0.0000000  1.2552000  3
    517    516    518    522     1  0.0000000  0.6508444  3
    517    516    518    520     1  0.0000000  0.6508444  3
    517    516    518    521     1  0.0000000  0.6508444  3
    518    522    554    544     1  180.0000771  6.0668000  2
    518    522    554    544     1  180.0000771  1.4644000  4
    519    516    518    522     1  0.0000000  0.6508444  3
    519    516    518    520     1  0.0000000  0.6508444  3
    519    516    518    521     1  0.0000000  0.6508444  3
    520    518    522    523     1  0.0000000  3.3472000  1
    520    518    522    523     1  0.0000000  0.0000000  2
    520    518    522    523     1  180.0000771  0.3347200  3
    520    518    522    554     1  180.0000771  0.0000000  2
    521    518    522    523     1  0.0000000  3.3472000  1
    521    518    522    523     1  0.0000000  0.0000000  2
    521    518    522    523     1  180.0000771  0.3347200  3
    521    518    522    554     1  180.0000771  0.0000000  2
    522    554    535    537     1  0.0000000  1.2552000  3
    523    522    554    544     1  180.0000771  6.0668000  2
    523    522    554    544     1  180.0000771  1.4644000  4
    524    515    526    529     1  0.0000000  0.6508444  3
    524    515    526    527     1  0.0000000  0.6508444  3
    524    515    526    528     1  0.0000000  0.6508444  3
    525    515    526    529     1  0.0000000  0.6508444  3
    525    515    526    527     1  0.0000000  0.6508444  3
    525    515    526    528     1  0.0000000  0.6508444  3
    526    529    578    568     1  180.0000771  6.0668000  2
    526    529    578    568     1  180.0000771  1.4644000  4
    527    526    529    530     1  0.0000000  3.3472000  1
    527    526    529    530     1  0.0000000  0.0000000  2
    527    526    529    530     1  180.0000771  0.3347200  3
    527    526    529    578     1  180.0000771  0.0000000  2
    528    526    529    530     1  0.0000000  3.3472000  1
    528    526    529    530     1  0.0000000  0.0000000  2
    528    526    529    530     1  180.0000771  0.3347200  3
    528    526    529    578     1  180.0000771  0.0000000  2
    529    578    559    561     1  0.0000000  1.2552000  3
    530    529    578    568     1  180.0000771  6.0668000  2
    530    529    578    568     1  180.0000771  1.4644000  4
    531    532    534    538     1  0.0000000  0.6508444  3
    531    532    552    553     1  0.0000000  1.0460000  1
    531    532    552    553     1  0.0000000  0.6694400  3
    531    542    547    548     1  0.0000000  1.0460000  1
    531    542    547    548     1  0.0000000  0.6694400  3
    531    549    536    539     1  0.0000000  1.6038667  3
    532    534    535    537     1  0.0000000  0.6508444  3
    532    534    541    543     1  0.0000000  1.0460000  1
    532    534    541    543     1  0.0000000  0.6694400  3
    532    531    542    545     1  0.0000000  0.6508444  3
    532    531    542    546     1  0.0000000  0.6508444  3
    533    531    532    534     1  0.0000000  0.6508444  3
    533    531    532    552     1  0.0000000  1.0460000  1
    533    531    532    552     1  0.0000000  0.0000000  3
    533    531    532    551     1  0.0000000  0.6508444  3
    533    531    542    547     1  0.0000000  1.0460000  1
    533    531    542    547     1  0.0000000  0.0000000  3
    533    531    542    545     1  0.0000000  0.6508444  3
    533    531    542    546     1  0.0000000  0.6508444  3
    533    531    549    536     1  0.0000000  1.6038667  3
    534    535    536    539     1  0.0000000  0.6508444  3
    534    535    554    544     1  0.0000000  1.2552000  3
    534    532    552    553     1  0.0000000  1.0460000  1
    534    532    552    553     1  0.0000000  0.6694400  3
    535    536    540    550     1  0.0000000  1.0460000  1
    535    536    540    550     1  0.0000000  0.6694400  3
    535    534    541    543     1  0.0000000  1.0460000  1
    535    534    541    543     1  0.0000000  0.6694400  3
    535    534    532    551     1  0.0000000  0.6508444  3
    536    535    554    544     1  0.0000000  1.2552000  3
    536    535    534    538     1  0.0000000  0.6508444  3
    537    535    536    540     1  0.0000000  1.0460000  1
    537    535    536    540     1  0.0000000  0.0000000  3
    537    535    536    549     1  0.0000000  1.0460000  1
    537    535    536    549     1  0.0000000  0.0000000  3
    537    535    536    539     1  0.0000000  0.6508444  3
    537    535    554    544     1  0.0000000  1.2552000  3
    537    535    534    541     1  0.0000000  1.0460000  1
    537    535    534    541     1  0.0000000  0.0000000  3
    537    535    534    538     1  0.0000000  0.6508444  3
    538    534    535    554     1  0.0000000  0.6508444  3
    538    534    541    543     1  0.0000000  0.6973333  3
    538    534    532    552     1  0.0000000  1.0460000  1
    538    534    532    552     1  0.0000000  0.0000000  3
    538    534    532    551     1  0.0000000  0.6508444  3
    539    536    540    550     1  0.0000000  0.6973333  3
    539    536    535    554     1  0.0000000  0.6508444  3
    541    534    532    551     1  0.0000000  1.0460000  1
    541    534    532    551     1  0.0000000  0.0000000  3
    542    531    532    551     1  0.0000000  0.6508444  3
    545    542    547    548     1  0.0000000  0.6973333  3
    545    542    531    549     1  0.0000000  1.0460000  1
    545    542    531    549     1  0.0000000  0.0000000  3
    546    542    547    548     1  0.0000000  0.6973333  3
    546    542    531    549     1  0.0000000  1.0460000  1
    546    542    531    549     1  0.0000000  0.0000000  3
    549    536    540    550     1  0.0000000  0.6973333  3
    549    531    532    551     1  0.0000000  1.0460000  1
    549    531    532    551     1  0.0000000  0.0000000  3
    551    532    552    553     1  0.0000000  0.6973333  3
    555    556    558    562     1  0.0000000  0.6508444  3
    555    556    576    577     1  0.0000000  1.0460000  1
    555    556    576    577     1  0.0000000  0.6694400  3
    555    566    571    572     1  0.0000000  1.0460000  1
    555    566    571    572     1  0.0000000  0.6694400  3
    555    573    560    563     1  0.0000000  1.6038667  3
    556    558    559    561     1  0.0000000  0.6508444  3
    556    558    565    567     1  0.0000000  1.0460000  1
    556    558    565    567     1  0.0000000  0.6694400  3
    556    555    566    569     1  0.0000000  0.6508444  3
    556    555    566    570     1  0.0000000  0.6508444  3
    557    555    556    558     1  0.0000000  0.6508444  3
    557    555    556    576     1  0.0000000  1.0460000  1
    557    555    556    576     1  0.0000000  0.0000000  3
    557    555    556    575     1  0.0000000  0.6508444  3
    557    555    566    571     1  0.0000000  1.0460000  1
    557    555    566    571     1  0.0000000  0.0000000  3
    557    555    566    569     1  0.0000000  0.6508444  3
    557    555    566    570     1  0.0000000  0.6508444  3
    557    555    573    560     1  0.0000000  1.6038667  3
    558    559    560    563     1  0.0000000  0.6508444  3
    558    559    578    568     1  0.0000000  1.2552000  3
    558    556    576    577     1  0.0000000  1.0460000  1
    558    556    576    577     1  0.0000000  0.6694400  3
    559    560    564    574     1  0.0000000  1.0460000  1
    559    560    564    574     1  0.0000000  0.6694400  3
    559    558    565    567     1  0.0000000  1.0460000  1
    559    558    565    567     1  0.0000000  0.6694400  3
    559    558    556    575     1  0.0000000  0.6508444  3
    560    559    578    568     1  0.0000000  1.2552000  3
    560    559    558    562     1  0.0000000  0.6508444  3
    561    559    560    564     1  0.0000000  1.0460000  1
    561    559    560    564     1  0.0000000  0.0000000  3
    561    559    560    573     1  0.0000000  1.0460000  1
    561    559    560    573     1  0.0000000  0.0000000  3
    561    559    560    563     1  0.0000000  0.6508444  3
    561    559    578    568     1  0.0000000  1.2552000  3
    561    559    558    565     1  0.0000000  1.0460000  1
    561    559    558    565     1  0.0000000  0.0000000  3
    561    559    558    562     1  0.0000000  0.6508444  3
    562    558    559    578     1  0.0000000  0.6508444  3
    562    558    565    567     1  0.0000000  0.6973333  3
    562    558    556    576     1  0.0000000  1.0460000  1
    562    558    556    576     1  0.0000000  0.0000000  3
    562    558    556    575     1  0.0000000  0.6508444  3
    563    560    564    574     1  0.0000000  0.6973333  3
    563    560    559    578     1  0.0000000  0.6508444  3
    565    558    556    575     1  0.0000000  1.0460000  1
    565    558    556    575     1  0.0000000  0.0000000  3
    566    555    556    575     1  0.0000000  0.6508444  3
    569    566    571    572     1  0.0000000  0.6973333  3
    569    566    555    573     1  0.0000000  1.0460000  1
    569    566    555    573     1  0.0000000  0.0000000  3
    570    566    571    572     1  0.0000000  0.6973333  3
    570    566    555    573     1  0.0000000  1.0460000  1
    570    566    555    573     1  0.0000000  0.0000000  3
    573    560    564    574     1  0.0000000  0.6973333  3
    573    555    556    575     1  0.0000000  1.0460000  1
    573    555    556    575     1  0.0000000  0.0000000  3
    575    556    576    577     1  0.0000000  0.6973333  3
    579    581    583    585     1  0.0000000  0.6508444  3
    579    581    583    586     1  0.0000000  0.6508444  3
    580    579    581    583     1  0.0000000  0.0000000  2
    580    579    581    582     1  0.0000000  0.0000000  2
    580    579    581    584     1  0.0000000  0.0000000  2
    582    581    583    587     1  0.0000000  0.6508444  3
    582    581    583    585     1  0.0000000  0.6508444  3
    582    581    583    586     1  0.0000000  0.6508444  3
    583    587    588    597     1  0.0000000  1.2552000  3
    583    587    588    598     1  0.0000000  1.2552000  3
    583    587    589    590     1  0.0000000  1.2552000  3
    583    587    589    592     1  0.0000000  1.2552000  3
    584    581    583    587     1  0.0000000  0.6508444  3
    584    581    583    585     1  0.0000000  0.6508444  3
    584    581    583    586     1  0.0000000  0.6508444  3
    585    583    587    588     1  0.0000000  1.2552000  3
    585    583    587    589     1  0.0000000  1.2552000  3
    586    583    587    588     1  0.0000000  1.2552000  3
    586    583    587    589     1  0.0000000  1.2552000  3
    587    588    599    600     1  0.0000000  0.6508444  3
    587    588    599    601     1  0.0000000  0.6508444  3
    587    589    591    593     1  0.0000000  0.6508444  3
    587    589    591    594     1  0.0000000  0.6508444  3
    588    587    589    590     1  0.0000000  1.2552000  3
    588    587    589    592     1  0.0000000  1.2552000  3
    589    587    588    597     1  0.0000000  1.2552000  3
    589    587    588    598     1  0.0000000  1.2552000  3
    590    589    591    595     1  0.0000000  0.6508444  3
    590    589    591    593     1  0.0000000  0.6508444  3
    590    589    591    594     1  0.0000000  0.6508444  3
    591    595    627    617     1  180.0000771  6.0668000  2
    591    595    627    617     1  180.0000771  1.4644000  4
    592    589    591    595     1  0.0000000  0.6508444  3
    592    589    591    593     1  0.0000000  0.6508444  3
    592    589    591    594     1  0.0000000  0.6508444  3
    593    591    595    596     1  0.0000000  3.3472000  1
    593    591    595    596     1  0.0000000  0.0000000  2
    593    591    595    596     1  180.0000771  0.3347200  3
    593    591    595    627     1  180.0000771  0.0000000  2
    594    591    595    596     1  0.0000000  3.3472000  1
    594    591    595    596     1  0.0000000  0.0000000  2
    594    591    595    596     1  180.0000771  0.3347200  3
    594    591    595    627     1  180.0000771  0.0000000  2
    595    627    608    610     1  0.0000000  1.2552000  3
    596    595    627    617     1  180.0000771  6.0668000  2
    596    595    627    617     1  180.0000771  1.4644000  4
    597    588    599    602     1  0.0000000  0.6508444  3
    597    588    599    600     1  0.0000000  0.6508444  3
    597    588    599    601     1  0.0000000  0.6508444  3
    598    588    599    602     1  0.0000000  0.6508444  3
    598    588    599    600     1  0.0000000  0.6508444  3
    598    588    599    601     1  0.0000000  0.6508444  3
    599    602    651    641     1  180.0000771  6.0668000  2
    599    602    651    641     1  180.0000771  1.4644000  4
    600    599    602    603     1  0.0000000  3.3472000  1
    600    599    602    603     1  0.0000000  0.0000000  2
    600    599    602    603     1  180.0000771  0.3347200  3
    600    599    602    651     1  180.0000771  0.0000000  2
    601    599    602    603     1  0.0000000  3.3472000  1
    601    599    602    603     1  0.0000000  0.0000000  2
    601    599    602    603     1  180.0000771  0.3347200  3
    601    599    602    651     1  180.0000771  0.0000000  2
    602    651    632    634     1  0.0000000  1.2552000  3
    603    602    651    641     1  180.0000771  6.0668000  2
    603    602    651    641     1  180.0000771  1.4644000  4
    604    605    607    611     1  0.0000000  0.6508444  3
    604    605    625    626     1  0.0000000  1.0460000  1
    604    605    625    626     1  0.0000000  0.6694400  3
    604    615    620    621     1  0.0000000  1.0460000  1
    604    615    620    621     1  0.0000000  0.6694400  3
    604    622    609    612     1  0.0000000  1.6038667  3
    605    604    615    618     1  0.0000000  0.6508444  3
    605    604    615    619     1  0.0000000  0.6508444  3
    605    607    608    610     1  0.0000000  0.6508444  3
    605    607    614    616     1  0.0000000  1.0460000  1
    605    607    614    616     1  0.0000000  0.6694400  3
    606    604    605    607     1  0.0000000  0.6508444  3
    606    604    605    625     1  0.0000000  1.0460000  1
    606    604    605    625     1  0.0000000  0.0000000  3
    606    604    605    624     1  0.0000000  0.6508444  3
    606    604    615    620     1  0.0000000  1.0460000  1
    606    604    615    620     1  0.0000000  0.0000000  3
    606    604    615    618     1  0.0000000  0.6508444  3
    606    604    615    619     1  0.0000000  0.6508444  3
    606    604    622    609     1  0.0000000  1.6038667  3
    607    605    625    626     1  0.0000000  1.0460000  1
    607    605    625    626     1  0.0000000  0.6694400  3
    607    608    609    612     1  0.0000000  0.6508444  3
    607    608    627    617     1  0.0000000  1.2552000  3
    608    607    605    624     1  0.0000000  0.6508444  3
    608    607    614    616     1  0.0000000  1.0460000  1
    608    607    614    616     1  0.0000000  0.6694400  3
    608    609    613    623     1  0.0000000  1.0460000  1
    608    609    613    623     1  0.0000000  0.6694400  3
    609    608    607    611     1  0.0000000  0.6508444  3
    609    608    627    617     1  0.0000000  1.2552000  3
    610    608    607    614     1  0.0000000  1.0460000  1
    610    608    607    614     1  0.0000000  0.0000000  3
    610    608    607    611     1  0.0000000  0.6508444  3
    610    608    609    613     1  0.0000000  1.0460000  1
    610    608    609    613     1  0.0000000  0.0000000  3
    610    608    609    622     1  0.0000000  1.0460000  1
    610    608    609    622     1  0.0000000  0.0000000  3
    610    608    609    612     1  0.0000000  0.6508444  3
    610    608    627    617     1  0.0000000  1.2552000  3
    611    607    605    625     1  0.0000000  1.0460000  1
    611    607    605    625     1  0.0000000  0.0000000  3
    611    607    605    624     1  0.0000000  0.6508444  3
    611    607    608    627     1  0.0000000  0.6508444  3
    611    607    614    616     1  0.0000000  0.6973333  3
    612    609    608    627     1  0.0000000  0.6508444  3
    612    609    613    623     1  0.0000000  0.6973333  3
    614    607    605    624     1  0.0000000  1.0460000  1
    614    607    605    624     1  0.0000000  0.0000000  3
    615    604    605    624     1  0.0000000  0.6508444  3
    618    615    604    622     1  0.0000000  1.0460000  1
    618    615    604    622     1  0.0000000  0.0000000  3
    618    615    620    621     1  0.0000000  0.6973333  3
    619    615    604    622     1  0.0000000  1.0460000  1
    619    615    604    622     1  0.0000000  0.0000000  3
    619    615    620    621     1  0.0000000  0.6973333  3
    622    604    605    624     1  0.0000000  1.0460000  1
    622    604    605    624     1  0.0000000  0.0000000  3
    622    609    613    623     1  0.0000000  0.6973333  3
    624    605    625    626     1  0.0000000  0.6973333  3
    628    629    631    635     1  0.0000000  0.6508444  3
    628    629    649    650     1  0.0000000  1.0460000  1
    628    629    649    650     1  0.0000000  0.6694400  3
    628    639    644    645     1  0.0000000  1.0460000  1
    628    639    644    645     1  0.0000000  0.6694400  3
    628    646    633    636     1  0.0000000  1.6038667  3
    629    628    639    642     1  0.0000000  0.6508444  3
    629    628    639    643     1  0.0000000  0.6508444  3
    629    631    632    634     1  0.0000000  0.6508444  3
    629    631    638    640     1  0.0000000  1.0460000  1
    629    631    638    640     1  0.0000000  0.6694400  3
    630    628    629    631     1  0.0000000  0.6508444  3
    630    628    629    649     1  0.0000000  1.0460000  1
    630    628    629    649     1  0.0000000  0.0000000  3
    630    628    629    648     1  0.0000000  0.6508444  3
    630    628    639    644     1  0.0000000  1.0460000  1
    630    628    639    644     1  0.0000000  0.0000000  3
    630    628    639    642     1  0.0000000  0.6508444  3
    630    628    639    643     1  0.0000000  0.6508444  3
    630    628    646    633     1  0.0000000  1.6038667  3
    631    629    649    650     1  0.0000000  1.0460000  1
    631    629    649    650     1  0.0000000  0.6694400  3
    631    632    633    636     1  0.0000000  0.6508444  3
    631    632    651    641     1  0.0000000  1.2552000  3
    632    631    629    648     1  0.0000000  0.6508444  3
    632    631    638    640     1  0.0000000  1.0460000  1
    632    631    638    640     1  0.0000000  0.6694400  3
    632    633    637    647     1  0.0000000  1.0460000  1
    632    633    637    647     1  0.0000000  0.6694400  3
    633    632    631    635     1  0.0000000  0.6508444  3
    633    632    651    641     1  0.0000000  1.2552000  3
    634    632    631    638     1  0.0000000  1.0460000  1
    634    632    631    638     1  0.0000000  0.0000000  3
    634    632    631    635     1  0.0000000  0.6508444  3
    634    632    633    637     1  0.0000000  1.0460000  1
    634    632    633    637     1  0.0000000  0.0000000  3
    634    632    633    646     1  0.0000000  1.0460000  1
    634    632    633    646     1  0.0000000  0.0000000  3
    634    632    633    636     1  0.0000000  0.6508444  3
    634    632    651    641     1  0.0000000  1.2552000  3
    635    631    629    649     1  0.0000000  1.0460000  1
    635    631    629    649     1  0.0000000  0.0000000  3
    635    631    629    648     1  0.0000000  0.6508444  3
    635    631    632    651     1  0.0000000  0.6508444  3
    635    631    638    640     1  0.0000000  0.6973333  3
    636    633    632    651     1  0.0000000  0.6508444  3
    636    633    637    647     1  0.0000000  0.6973333  3
    638    631    629    648     1  0.0000000  1.0460000  1
    638    631    629    648     1  0.0000000  0.0000000  3
    639    628    629    648     1  0.0000000  0.6508444  3
    642    639    628    646     1  0.0000000  1.0460000  1
    642    639    628    646     1  0.0000000  0.0000000  3
    642    639    644    645     1  0.0000000  0.6973333  3
    643    639    628    646     1  0.0000000  1.0460000  1
    643    639    628    646     1  0.0000000  0.0000000  3
    643    639    644    645     1  0.0000000  0.6973333  3
    646    628    629    648     1  0.0000000  1.0460000  1
    646    628    629    648     1  0.0000000  0.0000000  3
    646    633    637    647     1  0.0000000  0.6973333  3
    648    629    649    650     1  0.0000000  0.6973333  3
    652    654    656    658     1  0.0000000  0.6508444  3
    652    654    656    659     1  0.0000000  0.6508444  3
    653    652    654    656     1  0.0000000  0.0000000  2
    653    652    654    655     1  0.0000000  0.0000000  2
    653    652    654    657     1  0.0000000  0.0000000  2
    655    654    656    660     1  0.0000000  0.6508444  3
    655    654    656    658     1  0.0000000  0.6508444  3
    655    654    656    659     1  0.0000000  0.6508444  3
    656    660    661    670     1  0.0000000  1.2552000  3
    656    660    661    671     1  0.0000000  1.2552000  3
    656    660    662    663     1  0.0000000  1.2552000  3
    656    660    662    665     1  0.0000000  1.2552000  3
    657    654    656    660     1  0.0000000  0.6508444  3
    657    654    656    658     1  0.0000000  0.6508444  3
    657    654    656    659     1  0.0000000  0.6508444  3
    658    656    660    661     1  0.0000000  1.2552000  3
    658    656    660    662     1  0.0000000  1.2552000  3
    659    656    660    661     1  0.0000000  1.2552000  3
    659    656    660    662     1  0.0000000  1.2552000  3
    660    661    672    673     1  0.0000000  0.6508444  3
    660    661    672    674     1  0.0000000  0.6508444  3
    660    662    664    666     1  0.0000000  0.6508444  3
    660    662    664    667     1  0.0000000  0.6508444  3
    661    660    662    663     1  0.0000000  1.2552000  3
    661    660    662    665     1  0.0000000  1.2552000  3
    662    660    661    670     1  0.0000000  1.2552000  3
    662    660    661    671     1  0.0000000  1.2552000  3
    663    662    664    668     1  0.0000000  0.6508444  3
    663    662    664    666     1  0.0000000  0.6508444  3
    663    662    664    667     1  0.0000000  0.6508444  3
    664    668    700    690     1  180.0000771  6.0668000  2
    664    668    700    690     1  180.0000771  1.4644000  4
    665    662    664    668     1  0.0000000  0.6508444  3
    665    662    664    666     1  0.0000000  0.6508444  3
    665    662    664    667     1  0.0000000  0.6508444  3
    666    664    668    669     1  0.0000000  3.3472000  1
    666    664    668    669     1  0.0000000  0.0000000  2
    666    664    668    669     1  180.0000771  0.3347200  3
    666    664    668    700     1  180.0000771  0.0000000  2
    667    664    668    669     1  0.0000000  3.3472000  1
    667    664    668    669     1  0.0000000  0.0000000  2
    667    664    668    669     1  180.0000771  0.3347200  3
    667    664    668    700     1  180.0000771  0.0000000  2
    668    700    681    683     1  0.0000000  1.2552000  3
    669    668    700    690     1  180.0000771  6.0668000  2
    669    668    700    690     1  180.0000771  1.4644000  4
    670    661    672    675     1  0.0000000  0.6508444  3
    670    661    672    673     1  0.0000000  0.6508444  3
    670    661    672    674     1  0.0000000  0.6508444  3
    671    661    672    675     1  0.0000000  0.6508444  3
    671    661    672    673     1  0.0000000  0.6508444  3
    671    661    672    674     1  0.0000000  0.6508444  3
    672    675    724    714     1  180.0000771  6.0668000  2
    672    675    724    714     1  180.0000771  1.4644000  4
    673    672    675    676     1  0.0000000  3.3472000  1
    673    672    675    676     1  0.0000000  0.0000000  2
    673    672    675    676     1  180.0000771  0.3347200  3
    673    672    675    724     1  180.0000771  0.0000000  2
    674    672    675    676     1  0.0000000  3.3472000  1
    674    672    675    676     1  0.0000000  0.0000000  2
    674    672    675    676     1  180.0000771  0.3347200  3
    674    672    675    724     1  180.0000771  0.0000000  2
    675    724    705    707     1  0.0000000  1.2552000  3
    676    675    724    714     1  180.0000771  6.0668000  2
    676    675    724    714     1  180.0000771  1.4644000  4
    677    678    680    684     1  0.0000000  0.6508444  3
    677    678    698    699     1  0.0000000  1.0460000  1
    677    678    698    699     1  0.0000000  0.6694400  3
    677    688    693    694     1  0.0000000  1.0460000  1
    677    688    693    694     1  0.0000000  0.6694400  3
    677    695    682    685     1  0.0000000  1.6038667  3
    678    680    681    683     1  0.0000000  0.6508444  3
    678    680    687    689     1  0.0000000  1.0460000  1
    678    680    687    689     1  0.0000000  0.6694400  3
    678    677    688    691     1  0.0000000  0.6508444  3
    678    677    688    692     1  0.0000000  0.6508444  3
    679    677    678    680     1  0.0000000  0.6508444  3
    679    677    678    698     1  0.0000000  1.0460000  1
    679    677    678    698     1  0.0000000  0.0000000  3
    679    677    678    697     1  0.0000000  0.6508444  3
    679    677    688    693     1  0.0000000  1.0460000  1
    679    677    688    693     1  0.0000000  0.0000000  3
    679    677    688    691     1  0.0000000  0.6508444  3
    679    677    688    692     1  0.0000000  0.6508444  3
    679    677    695    682     1  0.0000000  1.6038667  3
    680    681    682    685     1  0.0000000  0.6508444  3
    680    681    700    690     1  0.0000000  1.2552000  3
    680    678    698    699     1  0.0000000  1.0460000  1
    680    678    698    699     1  0.0000000  0.6694400  3
    681    682    686    696     1  0.0000000  1.0460000  1
    681    682    686    696     1  0.0000000  0.6694400  3
    681    680    687    689     1  0.0000000  1.0460000  1
    681    680    687    689     1  0.0000000  0.6694400  3
    681    680    678    697     1  0.0000000  0.6508444  3
    682    681    700    690     1  0.0000000  1.2552000  3
    682    681    680    684     1  0.0000000  0.6508444  3
    683    681    682    686     1  0.0000000  1.0460000  1
    683    681    682    686     1  0.0000000  0.0000000  3
    683    681    682    695     1  0.0000000  1.0460000  1
    683    681    682    695     1  0.0000000  0.0000000  3
    683    681    682    685     1  0.0000000  0.6508444  3
    683    681    700    690     1  0.0000000  1.2552000  3
    683    681    680    687     1  0.0000000  1.0460000  1
    683    681    680    687     1  0.0000000  0.0000000  3
    683    681    680    684     1  0.0000000  0.6508444  3
    684    680    681    700     1  0.0000000  0.6508444  3
    684    680    687    689     1  0.0000000  0.6973333  3
    684    680    678    698     1  0.0000000  1.0460000  1
    684    680    678    698     1  0.0000000  0.0000000  3
    684    680    678    697     1  0.0000000  0.6508444  3
    685    682    686    696     1  0.0000000  0.6973333  3
    685    682    681    700     1  0.0000000  0.6508444  3
    687    680    678    697     1  0.0000000  1.0460000  1
    687    680    678    697     1  0.0000000  0.0000000  3
    688    677    678    697     1  0.0000000  0.6508444  3
    691    688    693    694     1  0.0000000  0.6973333  3
    691    688    677    695     1  0.0000000  1.0460000  1
    691    688    677    695     1  0.0000000  0.0000000  3
    692    688    693    694     1  0.0000000  0.6973333  3
    692    688    677    695     1  0.0000000  1.0460000  1
    692    688    677    695     1  0.0000000  0.0000000  3
    695    682    686    696     1  0.0000000  0.6973333  3
    695    677    678    697     1  0.0000000  1.0460000  1
    695    677    678    697     1  0.0000000  0.0000000  3
    697    678    698    699     1  0.0000000  0.6973333  3
    701    702    704    708     1  0.0000000  0.6508444  3
    701    702    722    723     1  0.0000000  1.0460000  1
    701    702    722    723     1  0.0000000  0.6694400  3
    701    712    717    718     1  0.0000000  1.0460000  1
    701    712    717    718     1  0.0000000  0.6694400  3
    701    719    706    709     1  0.0000000  1.6038667  3
    702    704    705    707     1  0.0000000  0.6508444  3
    702    704    711    713     1  0.0000000  1.0460000  1
    702    704    711    713     1  0.0000000  0.6694400  3
    702    701    712    715     1  0.0000000  0.6508444  3
    702    701    712    716     1  0.0000000  0.6508444  3
    703    701    702    704     1  0.0000000  0.6508444  3
    703    701    702    722     1  0.0000000  1.0460000  1
    703    701    702    722     1  0.0000000  0.0000000  3
    703    701    702    721     1  0.0000000  0.6508444  3
    703    701    712    717     1  0.0000000  1.0460000  1
    703    701    712    717     1  0.0000000  0.0000000  3
    703    701    712    715     1  0.0000000  0.6508444  3
    703    701    712    716     1  0.0000000  0.6508444  3
    703    701    719    706     1  0.0000000  1.6038667  3
    704    705    706    709     1  0.0000000  0.6508444  3
    704    705    724    714     1  0.0000000  1.2552000  3
    704    702    722    723     1  0.0000000  1.0460000  1
    704    702    722    723     1  0.0000000  0.6694400  3
    705    706    710    720     1  0.0000000  1.0460000  1
    705    706    710    720     1  0.0000000  0.6694400  3
    705    704    711    713     1  0.0000000  1.0460000  1
    705    704    711    713     1  0.0000000  0.6694400  3
    705    704    702    721     1  0.0000000  0.6508444  3
    706    705    724    714     1  0.0000000  1.2552000  3
    706    705    704    708     1  0.0000000  0.6508444  3
    707    705    706    710     1  0.0000000  1.0460000  1
    707    705    706    710     1  0.0000000  0.0000000  3
    707    705    706    719     1  0.0000000  1.0460000  1
    707    705    706    719     1  0.0000000  0.0000000  3
    707    705    706    709     1  0.0000000  0.6508444  3
    707    705    724    714     1  0.0000000  1.2552000  3
    707    705    704    711     1  0.0000000  1.0460000  1
    707    705    704    711     1  0.0000000  0.0000000  3
    707    705    704    708     1  0.0000000  0.6508444  3
    708    704    705    724     1  0.0000000  0.6508444  3
    708    704    711    713     1  0.0000000  0.6973333  3
    708    704    702    722     1  0.0000000  1.0460000  1
    708    704    702    722     1  0.0000000  0.0000000  3
    708    704    702    721     1  0.0000000  0.6508444  3
    709    706    710    720     1  0.0000000  0.6973333  3
    709    706    705    724     1  0.0000000  0.6508444  3
    711    704    702    721     1  0.0000000  1.0460000  1
    711    704    702    721     1  0.0000000  0.0000000  3
    712    701    702    721     1  0.0000000  0.6508444  3
    715    712    717    718     1  0.0000000  0.6973333  3
    715    712    701    719     1  0.0000000  1.0460000  1
    715    712    701    719     1  0.0000000  0.0000000  3
    716    712    717    718     1  0.0000000  0.6973333  3
    716    712    701    719     1  0.0000000  1.0460000  1
    716    712    701    719     1  0.0000000  0.0000000  3
    719    706    710    720     1  0.0000000  0.6973333  3
    719    701    702    721     1  0.0000000  1.0460000  1
    719    701    702    721     1  0.0000000  0.0000000  3
    721    702    722    723     1  0.0000000  0.6973333  3
     33     44     64     65     4  180.0000771  4.6024000  2
     34     69     89     90     4  180.0000771  4.6024000  2
     35     94    114    115     4  180.0000771  4.6024000  2
     36    119    139    140     4  180.0000771  4.6024000  2
     60    143    141    142     4  180.0000771  4.6024000  2
     61    216    214    215     4  180.0000771  4.6024000  2
     85    289    287    288     4  180.0000771  4.6024000  2
     86    362    360    361     4  180.0000771  4.6024000  2
    110    435    433    434     4  180.0000771  4.6024000  2
    111    508    506    507     4  180.0000771  4.6024000  2
    135    581    579    580     4  180.0000771  4.6024000  2
    136    654    652    653     4  180.0000771  4.6024000  2

;[ system ]
;; Name
;Generic title
;
;[ molecules ]
;; Compound       #mols
;system1              1
