;
;   File g3pncore_petim.itp  was generated
;   By user: sairam (1000)
;   On host: sairam
;   At date: Tue. August  2 12:32:28 2023
;
;   This is a standalone topology file
;
;   Created by:
;   ParmEd:       amb2gro_top_gro.py, VERSION 3.4.1
;   Executable:   amb2gro_top_gro.py
;   Library dir:  /usr/local/gromacs/share/gromacs/top
;   Command line:
;     ./amb2gro_top_gro.py -p g3pncore_petim.prmtop -c g3pncore_petim.inpcrd -t g3pncore_petim.itp -g g3pncore_petim.gro -b g3pncore_petim.pdb
;

;[ defaults ]
;; nbfunc        comb-rule       gen-pairs       fudgeLJ fudgeQQ
;1               2               yes             0.5          0.83333333  
;
;[ atomtypes ]
;; name    at.num    mass    charge ptype  sigma      epsilon
;n3             7  14.010000  0.00000000  A     0.32499985        0.71128
;c3             6  12.010000  0.00000000  A     0.33996695      0.4577296
;h1             1   1.008000  0.00000000  A      0.2471353      0.0656888
;hc             1   1.008000  0.00000000  A     0.26495328      0.0656888
;os             8  16.000000  0.00000000  A     0.30000123        0.71128
;hx             1   1.008000  0.00000000  A     0.19599772      0.0656888
;n4             7  14.010000  0.00000000  A     0.32499985        0.71128
;hn             1   1.008000  0.00000000  A     0.10690785      0.0656888


[ moleculetype ]
; Name            nrexcl
g3pncore_petim       3

[ atoms ]
;   nr       type  resnr residue  atom   cgnr    charge       mass  typeB    chargeB      massB
; residue    1 aaa rtp aaa q 0.0
    1         n3      1    aaa     N1      1 -0.65416500  14.010000   ; qtot -0.654165
    2         c3      1    aaa     C1      2 0.05178400  12.010000   ; qtot -0.602381
    3         h1      1    aaa     H1      3 0.06475500   1.008000   ; qtot -0.537626
    4         h1      1    aaa     H2      4 0.06475500   1.008000   ; qtot -0.472871
    5         c3      1    aaa     C2      5 0.05178400  12.010000   ; qtot -0.421087
    6         h1      1    aaa     H3      6 0.06475500   1.008000   ; qtot -0.356332
    7         h1      1    aaa     H4      7 0.06475500   1.008000   ; qtot -0.291577
    8         c3      1    aaa     C3      8 0.05178400  12.010000   ; qtot -0.239793
    9         h1      1    aaa     H5      9 0.06475500   1.008000   ; qtot -0.175038
   10         h1      1    aaa     H6     10 0.06475500   1.008000   ; qtot -0.110283
   11         c3      1    aaa     C4     11 0.07871100  12.010000   ; qtot -0.031572
   12         hc      1    aaa     H7     12 0.08683700   1.008000   ; qtot 0.055265
   13         hc      1    aaa     H8     13 0.08683700   1.008000   ; qtot 0.142102
   14         c3      1    aaa     C5     14 0.07871100  12.010000   ; qtot 0.220813
   15         hc      1    aaa     H9     15 0.08683700   1.008000   ; qtot 0.307650
   16         hc      1    aaa    H10     16 0.08683700   1.008000   ; qtot 0.394487
   17         c3      1    aaa     C6     17 0.07871100  12.010000   ; qtot 0.473198
   18         hc      1    aaa    H11     18 0.08683700   1.008000   ; qtot 0.560035
   19         hc      1    aaa    H12     19 0.08683700   1.008000   ; qtot 0.646872
   20         c3      1    aaa     C7     20 -0.74941200  12.010000   ; qtot -0.102540
   21         h1      1    aaa    H13     21 0.26689400   1.008000   ; qtot 0.164354
   22         h1      1    aaa    H14     22 0.26689400   1.008000   ; qtot 0.431248
   23         c3      1    aaa     C8     23 -0.74941200  12.010000   ; qtot -0.318164
   24         h1      1    aaa    H15     24 0.26689400   1.008000   ; qtot -0.051270
   25         h1      1    aaa    H16     25 0.26689400   1.008000   ; qtot 0.215624
   26         c3      1    aaa     C9     26 -0.74941200  12.010000   ; qtot -0.533788
   27         h1      1    aaa    H17     27 0.26689400   1.008000   ; qtot -0.266894
   28         h1      1    aaa    H18     28 0.26689400   1.008000   ; qtot 0.000000
; residue    2 bbb rtp bbb q -0.0
   29         n3      2    bbb     N1     29 -0.59685800  14.010000   ; qtot -0.596858
   30         c3      2    bbb     C1     30 0.10137000  12.010000   ; qtot -0.495488
   31         h1      2    bbb     H1     31 0.04411300   1.008000   ; qtot -0.451375
   32         h1      2    bbb     H2     32 0.04411300   1.008000   ; qtot -0.407262
   33         c3      2    bbb     C2     33 0.10137000  12.010000   ; qtot -0.305892
   34         h1      2    bbb     H3     34 0.04411300   1.008000   ; qtot -0.261779
   35         h1      2    bbb     H4     35 0.04411300   1.008000   ; qtot -0.217666
   36         c3      2    bbb     C3     36 -0.00195300  12.010000   ; qtot -0.219619
   37         h1      2    bbb     H5     37 0.05064400   1.008000   ; qtot -0.168975
   38         h1      2    bbb     H6     38 0.05064400   1.008000   ; qtot -0.118331
   39         c3      2    bbb     C4     39 -0.01612100  12.010000   ; qtot -0.134452
   40         hc      2    bbb     H7     40 0.04936100   1.008000   ; qtot -0.085091
   41         hc      2    bbb     H8     41 0.04936100   1.008000   ; qtot -0.035730
   42         c3      2    bbb     C5     42 0.11363000  12.010000   ; qtot 0.077900
   43         hc      2    bbb     H9     43 0.06265900   1.008000   ; qtot 0.140559
   44         hc      2    bbb    H10     44 0.06265900   1.008000   ; qtot 0.203218
   45         c3      2    bbb     C6     45 0.11363000  12.010000   ; qtot 0.316848
   46         hc      2    bbb    H11     46 0.06265900   1.008000   ; qtot 0.379507
   47         hc      2    bbb    H12     47 0.06265900   1.008000   ; qtot 0.442166
   48         c3      2    bbb     C7     48 0.05858200  12.010000   ; qtot 0.500748
   49         h1      2    bbb    H13     49 0.06123400   1.008000   ; qtot 0.561982
   50         h1      2    bbb    H14     50 0.06123400   1.008000   ; qtot 0.623216
   51         c3      2    bbb     C8     51 -0.72423400  12.010000   ; qtot -0.101018
   52         h1      2    bbb    H15     52 0.25637600   1.008000   ; qtot 0.155358
   53         h1      2    bbb    H16     53 0.25637600   1.008000   ; qtot 0.411734
   54         c3      2    bbb     C9     54 -0.72423400  12.010000   ; qtot -0.312500
   55         h1      2    bbb    H17     55 0.25637600   1.008000   ; qtot -0.056124
   56         h1      2    bbb    H18     56 0.25637600   1.008000   ; qtot 0.200252
   57         os      2    bbb     O1     57 -0.20025300  16.000000   ; qtot -0.000001
; residue    3 bbb rtp bbb q -0.0
   58         n3      3    bbb     N1     58 -0.59685800  14.010000   ; qtot -0.596859
   59         c3      3    bbb     C1     59 0.10137000  12.010000   ; qtot -0.495489
   60         h1      3    bbb     H1     60 0.04411300   1.008000   ; qtot -0.451376
   61         h1      3    bbb     H2     61 0.04411300   1.008000   ; qtot -0.407263
   62         c3      3    bbb     C2     62 0.10137000  12.010000   ; qtot -0.305893
   63         h1      3    bbb     H3     63 0.04411300   1.008000   ; qtot -0.261780
   64         h1      3    bbb     H4     64 0.04411300   1.008000   ; qtot -0.217667
   65         c3      3    bbb     C3     65 -0.00195300  12.010000   ; qtot -0.219620
   66         h1      3    bbb     H5     66 0.05064400   1.008000   ; qtot -0.168976
   67         h1      3    bbb     H6     67 0.05064400   1.008000   ; qtot -0.118332
   68         c3      3    bbb     C4     68 -0.01612100  12.010000   ; qtot -0.134453
   69         hc      3    bbb     H7     69 0.04936100   1.008000   ; qtot -0.085092
   70         hc      3    bbb     H8     70 0.04936100   1.008000   ; qtot -0.035731
   71         c3      3    bbb     C5     71 0.11363000  12.010000   ; qtot 0.077899
   72         hc      3    bbb     H9     72 0.06265900   1.008000   ; qtot 0.140558
   73         hc      3    bbb    H10     73 0.06265900   1.008000   ; qtot 0.203217
   74         c3      3    bbb     C6     74 0.11363000  12.010000   ; qtot 0.316847
   75         hc      3    bbb    H11     75 0.06265900   1.008000   ; qtot 0.379506
   76         hc      3    bbb    H12     76 0.06265900   1.008000   ; qtot 0.442165
   77         c3      3    bbb     C7     77 0.05858200  12.010000   ; qtot 0.500747
   78         h1      3    bbb    H13     78 0.06123400   1.008000   ; qtot 0.561981
   79         h1      3    bbb    H14     79 0.06123400   1.008000   ; qtot 0.623215
   80         c3      3    bbb     C8     80 -0.72423400  12.010000   ; qtot -0.101019
   81         h1      3    bbb    H15     81 0.25637600   1.008000   ; qtot 0.155357
   82         h1      3    bbb    H16     82 0.25637600   1.008000   ; qtot 0.411733
   83         c3      3    bbb     C9     83 -0.72423400  12.010000   ; qtot -0.312501
   84         h1      3    bbb    H17     84 0.25637600   1.008000   ; qtot -0.056125
   85         h1      3    bbb    H18     85 0.25637600   1.008000   ; qtot 0.200251
   86         os      3    bbb     O1     86 -0.20025300  16.000000   ; qtot -0.000002
; residue    4 bbb rtp bbb q -0.0
   87         n3      4    bbb     N1     87 -0.59685800  14.010000   ; qtot -0.596860
   88         c3      4    bbb     C1     88 0.10137000  12.010000   ; qtot -0.495490
   89         h1      4    bbb     H1     89 0.04411300   1.008000   ; qtot -0.451377
   90         h1      4    bbb     H2     90 0.04411300   1.008000   ; qtot -0.407264
   91         c3      4    bbb     C2     91 0.10137000  12.010000   ; qtot -0.305894
   92         h1      4    bbb     H3     92 0.04411300   1.008000   ; qtot -0.261781
   93         h1      4    bbb     H4     93 0.04411300   1.008000   ; qtot -0.217668
   94         c3      4    bbb     C3     94 -0.00195300  12.010000   ; qtot -0.219621
   95         h1      4    bbb     H5     95 0.05064400   1.008000   ; qtot -0.168977
   96         h1      4    bbb     H6     96 0.05064400   1.008000   ; qtot -0.118333
   97         c3      4    bbb     C4     97 -0.01612100  12.010000   ; qtot -0.134454
   98         hc      4    bbb     H7     98 0.04936100   1.008000   ; qtot -0.085093
   99         hc      4    bbb     H8     99 0.04936100   1.008000   ; qtot -0.035732
  100         c3      4    bbb     C5    100 0.11363000  12.010000   ; qtot 0.077898
  101         hc      4    bbb     H9    101 0.06265900   1.008000   ; qtot 0.140557
  102         hc      4    bbb    H10    102 0.06265900   1.008000   ; qtot 0.203216
  103         c3      4    bbb     C6    103 0.11363000  12.010000   ; qtot 0.316846
  104         hc      4    bbb    H11    104 0.06265900   1.008000   ; qtot 0.379505
  105         hc      4    bbb    H12    105 0.06265900   1.008000   ; qtot 0.442164
  106         c3      4    bbb     C7    106 0.05858200  12.010000   ; qtot 0.500746
  107         h1      4    bbb    H13    107 0.06123400   1.008000   ; qtot 0.561980
  108         h1      4    bbb    H14    108 0.06123400   1.008000   ; qtot 0.623214
  109         c3      4    bbb     C8    109 -0.72423400  12.010000   ; qtot -0.101020
  110         h1      4    bbb    H15    110 0.25637600   1.008000   ; qtot 0.155356
  111         h1      4    bbb    H16    111 0.25637600   1.008000   ; qtot 0.411732
  112         c3      4    bbb     C9    112 -0.72423400  12.010000   ; qtot -0.312502
  113         h1      4    bbb    H17    113 0.25637600   1.008000   ; qtot -0.056126
  114         h1      4    bbb    H18    114 0.25637600   1.008000   ; qtot 0.200250
  115         os      4    bbb     O1    115 -0.20025300  16.000000   ; qtot -0.000003
; residue    5 bbb rtp bbb q -0.0
  116         n3      5    bbb     N1    116 -0.59685800  14.010000   ; qtot -0.596861
  117         c3      5    bbb     C1    117 0.10137000  12.010000   ; qtot -0.495491
  118         h1      5    bbb     H1    118 0.04411300   1.008000   ; qtot -0.451378
  119         h1      5    bbb     H2    119 0.04411300   1.008000   ; qtot -0.407265
  120         c3      5    bbb     C2    120 0.10137000  12.010000   ; qtot -0.305895
  121         h1      5    bbb     H3    121 0.04411300   1.008000   ; qtot -0.261782
  122         h1      5    bbb     H4    122 0.04411300   1.008000   ; qtot -0.217669
  123         c3      5    bbb     C3    123 -0.00195300  12.010000   ; qtot -0.219622
  124         h1      5    bbb     H5    124 0.05064400   1.008000   ; qtot -0.168978
  125         h1      5    bbb     H6    125 0.05064400   1.008000   ; qtot -0.118334
  126         c3      5    bbb     C4    126 -0.01612100  12.010000   ; qtot -0.134455
  127         hc      5    bbb     H7    127 0.04936100   1.008000   ; qtot -0.085094
  128         hc      5    bbb     H8    128 0.04936100   1.008000   ; qtot -0.035733
  129         c3      5    bbb     C5    129 0.11363000  12.010000   ; qtot 0.077897
  130         hc      5    bbb     H9    130 0.06265900   1.008000   ; qtot 0.140556
  131         hc      5    bbb    H10    131 0.06265900   1.008000   ; qtot 0.203215
  132         c3      5    bbb     C6    132 0.11363000  12.010000   ; qtot 0.316845
  133         hc      5    bbb    H11    133 0.06265900   1.008000   ; qtot 0.379504
  134         hc      5    bbb    H12    134 0.06265900   1.008000   ; qtot 0.442163
  135         c3      5    bbb     C7    135 0.05858200  12.010000   ; qtot 0.500745
  136         h1      5    bbb    H13    136 0.06123400   1.008000   ; qtot 0.561979
  137         h1      5    bbb    H14    137 0.06123400   1.008000   ; qtot 0.623213
  138         c3      5    bbb     C8    138 -0.72423400  12.010000   ; qtot -0.101021
  139         h1      5    bbb    H15    139 0.25637600   1.008000   ; qtot 0.155355
  140         h1      5    bbb    H16    140 0.25637600   1.008000   ; qtot 0.411731
  141         c3      5    bbb     C9    141 -0.72423400  12.010000   ; qtot -0.312503
  142         h1      5    bbb    H17    142 0.25637600   1.008000   ; qtot -0.056127
  143         h1      5    bbb    H18    143 0.25637600   1.008000   ; qtot 0.200249
  144         os      5    bbb     O1    144 -0.20025300  16.000000   ; qtot -0.000004
; residue    6 bbb rtp bbb q -0.0
  145         n3      6    bbb     N1    145 -0.59685800  14.010000   ; qtot -0.596862
  146         c3      6    bbb     C1    146 0.10137000  12.010000   ; qtot -0.495492
  147         h1      6    bbb     H1    147 0.04411300   1.008000   ; qtot -0.451379
  148         h1      6    bbb     H2    148 0.04411300   1.008000   ; qtot -0.407266
  149         c3      6    bbb     C2    149 0.10137000  12.010000   ; qtot -0.305896
  150         h1      6    bbb     H3    150 0.04411300   1.008000   ; qtot -0.261783
  151         h1      6    bbb     H4    151 0.04411300   1.008000   ; qtot -0.217670
  152         c3      6    bbb     C3    152 -0.00195300  12.010000   ; qtot -0.219623
  153         h1      6    bbb     H5    153 0.05064400   1.008000   ; qtot -0.168979
  154         h1      6    bbb     H6    154 0.05064400   1.008000   ; qtot -0.118335
  155         c3      6    bbb     C4    155 -0.01612100  12.010000   ; qtot -0.134456
  156         hc      6    bbb     H7    156 0.04936100   1.008000   ; qtot -0.085095
  157         hc      6    bbb     H8    157 0.04936100   1.008000   ; qtot -0.035734
  158         c3      6    bbb     C5    158 0.11363000  12.010000   ; qtot 0.077896
  159         hc      6    bbb     H9    159 0.06265900   1.008000   ; qtot 0.140555
  160         hc      6    bbb    H10    160 0.06265900   1.008000   ; qtot 0.203214
  161         c3      6    bbb     C6    161 0.11363000  12.010000   ; qtot 0.316844
  162         hc      6    bbb    H11    162 0.06265900   1.008000   ; qtot 0.379503
  163         hc      6    bbb    H12    163 0.06265900   1.008000   ; qtot 0.442162
  164         c3      6    bbb     C7    164 0.05858200  12.010000   ; qtot 0.500744
  165         h1      6    bbb    H13    165 0.06123400   1.008000   ; qtot 0.561978
  166         h1      6    bbb    H14    166 0.06123400   1.008000   ; qtot 0.623212
  167         c3      6    bbb     C8    167 -0.72423400  12.010000   ; qtot -0.101022
  168         h1      6    bbb    H15    168 0.25637600   1.008000   ; qtot 0.155354
  169         h1      6    bbb    H16    169 0.25637600   1.008000   ; qtot 0.411730
  170         c3      6    bbb     C9    170 -0.72423400  12.010000   ; qtot -0.312504
  171         h1      6    bbb    H17    171 0.25637600   1.008000   ; qtot -0.056128
  172         h1      6    bbb    H18    172 0.25637600   1.008000   ; qtot 0.200248
  173         os      6    bbb     O1    173 -0.20025300  16.000000   ; qtot -0.000005
; residue    7 bbb rtp bbb q -0.0
  174         n3      7    bbb     N1    174 -0.59685800  14.010000   ; qtot -0.596863
  175         c3      7    bbb     C1    175 0.10137000  12.010000   ; qtot -0.495493
  176         h1      7    bbb     H1    176 0.04411300   1.008000   ; qtot -0.451380
  177         h1      7    bbb     H2    177 0.04411300   1.008000   ; qtot -0.407267
  178         c3      7    bbb     C2    178 0.10137000  12.010000   ; qtot -0.305897
  179         h1      7    bbb     H3    179 0.04411300   1.008000   ; qtot -0.261784
  180         h1      7    bbb     H4    180 0.04411300   1.008000   ; qtot -0.217671
  181         c3      7    bbb     C3    181 -0.00195300  12.010000   ; qtot -0.219624
  182         h1      7    bbb     H5    182 0.05064400   1.008000   ; qtot -0.168980
  183         h1      7    bbb     H6    183 0.05064400   1.008000   ; qtot -0.118336
  184         c3      7    bbb     C4    184 -0.01612100  12.010000   ; qtot -0.134457
  185         hc      7    bbb     H7    185 0.04936100   1.008000   ; qtot -0.085096
  186         hc      7    bbb     H8    186 0.04936100   1.008000   ; qtot -0.035735
  187         c3      7    bbb     C5    187 0.11363000  12.010000   ; qtot 0.077895
  188         hc      7    bbb     H9    188 0.06265900   1.008000   ; qtot 0.140554
  189         hc      7    bbb    H10    189 0.06265900   1.008000   ; qtot 0.203213
  190         c3      7    bbb     C6    190 0.11363000  12.010000   ; qtot 0.316843
  191         hc      7    bbb    H11    191 0.06265900   1.008000   ; qtot 0.379502
  192         hc      7    bbb    H12    192 0.06265900   1.008000   ; qtot 0.442161
  193         c3      7    bbb     C7    193 0.05858200  12.010000   ; qtot 0.500743
  194         h1      7    bbb    H13    194 0.06123400   1.008000   ; qtot 0.561977
  195         h1      7    bbb    H14    195 0.06123400   1.008000   ; qtot 0.623211
  196         c3      7    bbb     C8    196 -0.72423400  12.010000   ; qtot -0.101023
  197         h1      7    bbb    H15    197 0.25637600   1.008000   ; qtot 0.155353
  198         h1      7    bbb    H16    198 0.25637600   1.008000   ; qtot 0.411729
  199         c3      7    bbb     C9    199 -0.72423400  12.010000   ; qtot -0.312505
  200         h1      7    bbb    H17    200 0.25637600   1.008000   ; qtot -0.056129
  201         h1      7    bbb    H18    201 0.25637600   1.008000   ; qtot 0.200247
  202         os      7    bbb     O1    202 -0.20025300  16.000000   ; qtot -0.000006
; residue    8 bbb rtp bbb q -0.0
  203         n3      8    bbb     N1    203 -0.59685800  14.010000   ; qtot -0.596864
  204         c3      8    bbb     C1    204 0.10137000  12.010000   ; qtot -0.495494
  205         h1      8    bbb     H1    205 0.04411300   1.008000   ; qtot -0.451381
  206         h1      8    bbb     H2    206 0.04411300   1.008000   ; qtot -0.407268
  207         c3      8    bbb     C2    207 0.10137000  12.010000   ; qtot -0.305898
  208         h1      8    bbb     H3    208 0.04411300   1.008000   ; qtot -0.261785
  209         h1      8    bbb     H4    209 0.04411300   1.008000   ; qtot -0.217672
  210         c3      8    bbb     C3    210 -0.00195300  12.010000   ; qtot -0.219625
  211         h1      8    bbb     H5    211 0.05064400   1.008000   ; qtot -0.168981
  212         h1      8    bbb     H6    212 0.05064400   1.008000   ; qtot -0.118337
  213         c3      8    bbb     C4    213 -0.01612100  12.010000   ; qtot -0.134458
  214         hc      8    bbb     H7    214 0.04936100   1.008000   ; qtot -0.085097
  215         hc      8    bbb     H8    215 0.04936100   1.008000   ; qtot -0.035736
  216         c3      8    bbb     C5    216 0.11363000  12.010000   ; qtot 0.077894
  217         hc      8    bbb     H9    217 0.06265900   1.008000   ; qtot 0.140553
  218         hc      8    bbb    H10    218 0.06265900   1.008000   ; qtot 0.203212
  219         c3      8    bbb     C6    219 0.11363000  12.010000   ; qtot 0.316842
  220         hc      8    bbb    H11    220 0.06265900   1.008000   ; qtot 0.379501
  221         hc      8    bbb    H12    221 0.06265900   1.008000   ; qtot 0.442160
  222         c3      8    bbb     C7    222 0.05858200  12.010000   ; qtot 0.500742
  223         h1      8    bbb    H13    223 0.06123400   1.008000   ; qtot 0.561976
  224         h1      8    bbb    H14    224 0.06123400   1.008000   ; qtot 0.623210
  225         c3      8    bbb     C8    225 -0.72423400  12.010000   ; qtot -0.101024
  226         h1      8    bbb    H15    226 0.25637600   1.008000   ; qtot 0.155352
  227         h1      8    bbb    H16    227 0.25637600   1.008000   ; qtot 0.411728
  228         c3      8    bbb     C9    228 -0.72423400  12.010000   ; qtot -0.312506
  229         h1      8    bbb    H17    229 0.25637600   1.008000   ; qtot -0.056130
  230         h1      8    bbb    H18    230 0.25637600   1.008000   ; qtot 0.200246
  231         os      8    bbb     O1    231 -0.20025300  16.000000   ; qtot -0.000007
; residue    9 bbb rtp bbb q -0.0
  232         n3      9    bbb     N1    232 -0.59685800  14.010000   ; qtot -0.596865
  233         c3      9    bbb     C1    233 0.10137000  12.010000   ; qtot -0.495495
  234         h1      9    bbb     H1    234 0.04411300   1.008000   ; qtot -0.451382
  235         h1      9    bbb     H2    235 0.04411300   1.008000   ; qtot -0.407269
  236         c3      9    bbb     C2    236 0.10137000  12.010000   ; qtot -0.305899
  237         h1      9    bbb     H3    237 0.04411300   1.008000   ; qtot -0.261786
  238         h1      9    bbb     H4    238 0.04411300   1.008000   ; qtot -0.217673
  239         c3      9    bbb     C3    239 -0.00195300  12.010000   ; qtot -0.219626
  240         h1      9    bbb     H5    240 0.05064400   1.008000   ; qtot -0.168982
  241         h1      9    bbb     H6    241 0.05064400   1.008000   ; qtot -0.118338
  242         c3      9    bbb     C4    242 -0.01612100  12.010000   ; qtot -0.134459
  243         hc      9    bbb     H7    243 0.04936100   1.008000   ; qtot -0.085098
  244         hc      9    bbb     H8    244 0.04936100   1.008000   ; qtot -0.035737
  245         c3      9    bbb     C5    245 0.11363000  12.010000   ; qtot 0.077893
  246         hc      9    bbb     H9    246 0.06265900   1.008000   ; qtot 0.140552
  247         hc      9    bbb    H10    247 0.06265900   1.008000   ; qtot 0.203211
  248         c3      9    bbb     C6    248 0.11363000  12.010000   ; qtot 0.316841
  249         hc      9    bbb    H11    249 0.06265900   1.008000   ; qtot 0.379500
  250         hc      9    bbb    H12    250 0.06265900   1.008000   ; qtot 0.442159
  251         c3      9    bbb     C7    251 0.05858200  12.010000   ; qtot 0.500741
  252         h1      9    bbb    H13    252 0.06123400   1.008000   ; qtot 0.561975
  253         h1      9    bbb    H14    253 0.06123400   1.008000   ; qtot 0.623209
  254         c3      9    bbb     C8    254 -0.72423400  12.010000   ; qtot -0.101025
  255         h1      9    bbb    H15    255 0.25637600   1.008000   ; qtot 0.155351
  256         h1      9    bbb    H16    256 0.25637600   1.008000   ; qtot 0.411727
  257         c3      9    bbb     C9    257 -0.72423400  12.010000   ; qtot -0.312507
  258         h1      9    bbb    H17    258 0.25637600   1.008000   ; qtot -0.056131
  259         h1      9    bbb    H18    259 0.25637600   1.008000   ; qtot 0.200245
  260         os      9    bbb     O1    260 -0.20025300  16.000000   ; qtot -0.000008
; residue   10 bbb rtp bbb q -0.0
  261         n3     10    bbb     N1    261 -0.59685800  14.010000   ; qtot -0.596866
  262         c3     10    bbb     C1    262 0.10137000  12.010000   ; qtot -0.495496
  263         h1     10    bbb     H1    263 0.04411300   1.008000   ; qtot -0.451383
  264         h1     10    bbb     H2    264 0.04411300   1.008000   ; qtot -0.407270
  265         c3     10    bbb     C2    265 0.10137000  12.010000   ; qtot -0.305900
  266         h1     10    bbb     H3    266 0.04411300   1.008000   ; qtot -0.261787
  267         h1     10    bbb     H4    267 0.04411300   1.008000   ; qtot -0.217674
  268         c3     10    bbb     C3    268 -0.00195300  12.010000   ; qtot -0.219627
  269         h1     10    bbb     H5    269 0.05064400   1.008000   ; qtot -0.168983
  270         h1     10    bbb     H6    270 0.05064400   1.008000   ; qtot -0.118339
  271         c3     10    bbb     C4    271 -0.01612100  12.010000   ; qtot -0.134460
  272         hc     10    bbb     H7    272 0.04936100   1.008000   ; qtot -0.085099
  273         hc     10    bbb     H8    273 0.04936100   1.008000   ; qtot -0.035738
  274         c3     10    bbb     C5    274 0.11363000  12.010000   ; qtot 0.077892
  275         hc     10    bbb     H9    275 0.06265900   1.008000   ; qtot 0.140551
  276         hc     10    bbb    H10    276 0.06265900   1.008000   ; qtot 0.203210
  277         c3     10    bbb     C6    277 0.11363000  12.010000   ; qtot 0.316840
  278         hc     10    bbb    H11    278 0.06265900   1.008000   ; qtot 0.379499
  279         hc     10    bbb    H12    279 0.06265900   1.008000   ; qtot 0.442158
  280         c3     10    bbb     C7    280 0.05858200  12.010000   ; qtot 0.500740
  281         h1     10    bbb    H13    281 0.06123400   1.008000   ; qtot 0.561974
  282         h1     10    bbb    H14    282 0.06123400   1.008000   ; qtot 0.623208
  283         c3     10    bbb     C8    283 -0.72423400  12.010000   ; qtot -0.101026
  284         h1     10    bbb    H15    284 0.25637600   1.008000   ; qtot 0.155350
  285         h1     10    bbb    H16    285 0.25637600   1.008000   ; qtot 0.411726
  286         c3     10    bbb     C9    286 -0.72423400  12.010000   ; qtot -0.312508
  287         h1     10    bbb    H17    287 0.25637600   1.008000   ; qtot -0.056132
  288         h1     10    bbb    H18    288 0.25637600   1.008000   ; qtot 0.200244
  289         os     10    bbb     O1    289 -0.20025300  16.000000   ; qtot -0.000009
; residue   11 bbb rtp bbb q -0.0
  290         n3     11    bbb     N1    290 -0.59685800  14.010000   ; qtot -0.596867
  291         c3     11    bbb     C1    291 0.10137000  12.010000   ; qtot -0.495497
  292         h1     11    bbb     H1    292 0.04411300   1.008000   ; qtot -0.451384
  293         h1     11    bbb     H2    293 0.04411300   1.008000   ; qtot -0.407271
  294         c3     11    bbb     C2    294 0.10137000  12.010000   ; qtot -0.305901
  295         h1     11    bbb     H3    295 0.04411300   1.008000   ; qtot -0.261788
  296         h1     11    bbb     H4    296 0.04411300   1.008000   ; qtot -0.217675
  297         c3     11    bbb     C3    297 -0.00195300  12.010000   ; qtot -0.219628
  298         h1     11    bbb     H5    298 0.05064400   1.008000   ; qtot -0.168984
  299         h1     11    bbb     H6    299 0.05064400   1.008000   ; qtot -0.118340
  300         c3     11    bbb     C4    300 -0.01612100  12.010000   ; qtot -0.134461
  301         hc     11    bbb     H7    301 0.04936100   1.008000   ; qtot -0.085100
  302         hc     11    bbb     H8    302 0.04936100   1.008000   ; qtot -0.035739
  303         c3     11    bbb     C5    303 0.11363000  12.010000   ; qtot 0.077891
  304         hc     11    bbb     H9    304 0.06265900   1.008000   ; qtot 0.140550
  305         hc     11    bbb    H10    305 0.06265900   1.008000   ; qtot 0.203209
  306         c3     11    bbb     C6    306 0.11363000  12.010000   ; qtot 0.316839
  307         hc     11    bbb    H11    307 0.06265900   1.008000   ; qtot 0.379498
  308         hc     11    bbb    H12    308 0.06265900   1.008000   ; qtot 0.442157
  309         c3     11    bbb     C7    309 0.05858200  12.010000   ; qtot 0.500739
  310         h1     11    bbb    H13    310 0.06123400   1.008000   ; qtot 0.561973
  311         h1     11    bbb    H14    311 0.06123400   1.008000   ; qtot 0.623207
  312         c3     11    bbb     C8    312 -0.72423400  12.010000   ; qtot -0.101027
  313         h1     11    bbb    H15    313 0.25637600   1.008000   ; qtot 0.155349
  314         h1     11    bbb    H16    314 0.25637600   1.008000   ; qtot 0.411725
  315         c3     11    bbb     C9    315 -0.72423400  12.010000   ; qtot -0.312509
  316         h1     11    bbb    H17    316 0.25637600   1.008000   ; qtot -0.056133
  317         h1     11    bbb    H18    317 0.25637600   1.008000   ; qtot 0.200243
  318         os     11    bbb     O1    318 -0.20025300  16.000000   ; qtot -0.000010
; residue   12 bbb rtp bbb q -0.0
  319         n3     12    bbb     N1    319 -0.59685800  14.010000   ; qtot -0.596868
  320         c3     12    bbb     C1    320 0.10137000  12.010000   ; qtot -0.495498
  321         h1     12    bbb     H1    321 0.04411300   1.008000   ; qtot -0.451385
  322         h1     12    bbb     H2    322 0.04411300   1.008000   ; qtot -0.407272
  323         c3     12    bbb     C2    323 0.10137000  12.010000   ; qtot -0.305902
  324         h1     12    bbb     H3    324 0.04411300   1.008000   ; qtot -0.261789
  325         h1     12    bbb     H4    325 0.04411300   1.008000   ; qtot -0.217676
  326         c3     12    bbb     C3    326 -0.00195300  12.010000   ; qtot -0.219629
  327         h1     12    bbb     H5    327 0.05064400   1.008000   ; qtot -0.168985
  328         h1     12    bbb     H6    328 0.05064400   1.008000   ; qtot -0.118341
  329         c3     12    bbb     C4    329 -0.01612100  12.010000   ; qtot -0.134462
  330         hc     12    bbb     H7    330 0.04936100   1.008000   ; qtot -0.085101
  331         hc     12    bbb     H8    331 0.04936100   1.008000   ; qtot -0.035740
  332         c3     12    bbb     C5    332 0.11363000  12.010000   ; qtot 0.077890
  333         hc     12    bbb     H9    333 0.06265900   1.008000   ; qtot 0.140549
  334         hc     12    bbb    H10    334 0.06265900   1.008000   ; qtot 0.203208
  335         c3     12    bbb     C6    335 0.11363000  12.010000   ; qtot 0.316838
  336         hc     12    bbb    H11    336 0.06265900   1.008000   ; qtot 0.379497
  337         hc     12    bbb    H12    337 0.06265900   1.008000   ; qtot 0.442156
  338         c3     12    bbb     C7    338 0.05858200  12.010000   ; qtot 0.500738
  339         h1     12    bbb    H13    339 0.06123400   1.008000   ; qtot 0.561972
  340         h1     12    bbb    H14    340 0.06123400   1.008000   ; qtot 0.623206
  341         c3     12    bbb     C8    341 -0.72423400  12.010000   ; qtot -0.101028
  342         h1     12    bbb    H15    342 0.25637600   1.008000   ; qtot 0.155348
  343         h1     12    bbb    H16    343 0.25637600   1.008000   ; qtot 0.411724
  344         c3     12    bbb     C9    344 -0.72423400  12.010000   ; qtot -0.312510
  345         h1     12    bbb    H17    345 0.25637600   1.008000   ; qtot -0.056134
  346         h1     12    bbb    H18    346 0.25637600   1.008000   ; qtot 0.200242
  347         os     12    bbb     O1    347 -0.20025300  16.000000   ; qtot -0.000011
; residue   13 bbb rtp bbb q -0.0
  348         n3     13    bbb     N1    348 -0.59685800  14.010000   ; qtot -0.596869
  349         c3     13    bbb     C1    349 0.10137000  12.010000   ; qtot -0.495499
  350         h1     13    bbb     H1    350 0.04411300   1.008000   ; qtot -0.451386
  351         h1     13    bbb     H2    351 0.04411300   1.008000   ; qtot -0.407273
  352         c3     13    bbb     C2    352 0.10137000  12.010000   ; qtot -0.305903
  353         h1     13    bbb     H3    353 0.04411300   1.008000   ; qtot -0.261790
  354         h1     13    bbb     H4    354 0.04411300   1.008000   ; qtot -0.217677
  355         c3     13    bbb     C3    355 -0.00195300  12.010000   ; qtot -0.219630
  356         h1     13    bbb     H5    356 0.05064400   1.008000   ; qtot -0.168986
  357         h1     13    bbb     H6    357 0.05064400   1.008000   ; qtot -0.118342
  358         c3     13    bbb     C4    358 -0.01612100  12.010000   ; qtot -0.134463
  359         hc     13    bbb     H7    359 0.04936100   1.008000   ; qtot -0.085102
  360         hc     13    bbb     H8    360 0.04936100   1.008000   ; qtot -0.035741
  361         c3     13    bbb     C5    361 0.11363000  12.010000   ; qtot 0.077889
  362         hc     13    bbb     H9    362 0.06265900   1.008000   ; qtot 0.140548
  363         hc     13    bbb    H10    363 0.06265900   1.008000   ; qtot 0.203207
  364         c3     13    bbb     C6    364 0.11363000  12.010000   ; qtot 0.316837
  365         hc     13    bbb    H11    365 0.06265900   1.008000   ; qtot 0.379496
  366         hc     13    bbb    H12    366 0.06265900   1.008000   ; qtot 0.442155
  367         c3     13    bbb     C7    367 0.05858200  12.010000   ; qtot 0.500737
  368         h1     13    bbb    H13    368 0.06123400   1.008000   ; qtot 0.561971
  369         h1     13    bbb    H14    369 0.06123400   1.008000   ; qtot 0.623205
  370         c3     13    bbb     C8    370 -0.72423400  12.010000   ; qtot -0.101029
  371         h1     13    bbb    H15    371 0.25637600   1.008000   ; qtot 0.155347
  372         h1     13    bbb    H16    372 0.25637600   1.008000   ; qtot 0.411723
  373         c3     13    bbb     C9    373 -0.72423400  12.010000   ; qtot -0.312511
  374         h1     13    bbb    H17    374 0.25637600   1.008000   ; qtot -0.056135
  375         h1     13    bbb    H18    375 0.25637600   1.008000   ; qtot 0.200241
  376         os     13    bbb     O1    376 -0.20025300  16.000000   ; qtot -0.000012
; residue   14 bbb rtp bbb q -0.0
  377         n3     14    bbb     N1    377 -0.59685800  14.010000   ; qtot -0.596870
  378         c3     14    bbb     C1    378 0.10137000  12.010000   ; qtot -0.495500
  379         h1     14    bbb     H1    379 0.04411300   1.008000   ; qtot -0.451387
  380         h1     14    bbb     H2    380 0.04411300   1.008000   ; qtot -0.407274
  381         c3     14    bbb     C2    381 0.10137000  12.010000   ; qtot -0.305904
  382         h1     14    bbb     H3    382 0.04411300   1.008000   ; qtot -0.261791
  383         h1     14    bbb     H4    383 0.04411300   1.008000   ; qtot -0.217678
  384         c3     14    bbb     C3    384 -0.00195300  12.010000   ; qtot -0.219631
  385         h1     14    bbb     H5    385 0.05064400   1.008000   ; qtot -0.168987
  386         h1     14    bbb     H6    386 0.05064400   1.008000   ; qtot -0.118343
  387         c3     14    bbb     C4    387 -0.01612100  12.010000   ; qtot -0.134464
  388         hc     14    bbb     H7    388 0.04936100   1.008000   ; qtot -0.085103
  389         hc     14    bbb     H8    389 0.04936100   1.008000   ; qtot -0.035742
  390         c3     14    bbb     C5    390 0.11363000  12.010000   ; qtot 0.077888
  391         hc     14    bbb     H9    391 0.06265900   1.008000   ; qtot 0.140547
  392         hc     14    bbb    H10    392 0.06265900   1.008000   ; qtot 0.203206
  393         c3     14    bbb     C6    393 0.11363000  12.010000   ; qtot 0.316836
  394         hc     14    bbb    H11    394 0.06265900   1.008000   ; qtot 0.379495
  395         hc     14    bbb    H12    395 0.06265900   1.008000   ; qtot 0.442154
  396         c3     14    bbb     C7    396 0.05858200  12.010000   ; qtot 0.500736
  397         h1     14    bbb    H13    397 0.06123400   1.008000   ; qtot 0.561970
  398         h1     14    bbb    H14    398 0.06123400   1.008000   ; qtot 0.623204
  399         c3     14    bbb     C8    399 -0.72423400  12.010000   ; qtot -0.101030
  400         h1     14    bbb    H15    400 0.25637600   1.008000   ; qtot 0.155346
  401         h1     14    bbb    H16    401 0.25637600   1.008000   ; qtot 0.411722
  402         c3     14    bbb     C9    402 -0.72423400  12.010000   ; qtot -0.312512
  403         h1     14    bbb    H17    403 0.25637600   1.008000   ; qtot -0.056136
  404         h1     14    bbb    H18    404 0.25637600   1.008000   ; qtot 0.200240
  405         os     14    bbb     O1    405 -0.20025300  16.000000   ; qtot -0.000013
; residue   15 bbb rtp bbb q -0.0
  406         n3     15    bbb     N1    406 -0.59685800  14.010000   ; qtot -0.596871
  407         c3     15    bbb     C1    407 0.10137000  12.010000   ; qtot -0.495501
  408         h1     15    bbb     H1    408 0.04411300   1.008000   ; qtot -0.451388
  409         h1     15    bbb     H2    409 0.04411300   1.008000   ; qtot -0.407275
  410         c3     15    bbb     C2    410 0.10137000  12.010000   ; qtot -0.305905
  411         h1     15    bbb     H3    411 0.04411300   1.008000   ; qtot -0.261792
  412         h1     15    bbb     H4    412 0.04411300   1.008000   ; qtot -0.217679
  413         c3     15    bbb     C3    413 -0.00195300  12.010000   ; qtot -0.219632
  414         h1     15    bbb     H5    414 0.05064400   1.008000   ; qtot -0.168988
  415         h1     15    bbb     H6    415 0.05064400   1.008000   ; qtot -0.118344
  416         c3     15    bbb     C4    416 -0.01612100  12.010000   ; qtot -0.134465
  417         hc     15    bbb     H7    417 0.04936100   1.008000   ; qtot -0.085104
  418         hc     15    bbb     H8    418 0.04936100   1.008000   ; qtot -0.035743
  419         c3     15    bbb     C5    419 0.11363000  12.010000   ; qtot 0.077887
  420         hc     15    bbb     H9    420 0.06265900   1.008000   ; qtot 0.140546
  421         hc     15    bbb    H10    421 0.06265900   1.008000   ; qtot 0.203205
  422         c3     15    bbb     C6    422 0.11363000  12.010000   ; qtot 0.316835
  423         hc     15    bbb    H11    423 0.06265900   1.008000   ; qtot 0.379494
  424         hc     15    bbb    H12    424 0.06265900   1.008000   ; qtot 0.442153
  425         c3     15    bbb     C7    425 0.05858200  12.010000   ; qtot 0.500735
  426         h1     15    bbb    H13    426 0.06123400   1.008000   ; qtot 0.561969
  427         h1     15    bbb    H14    427 0.06123400   1.008000   ; qtot 0.623203
  428         c3     15    bbb     C8    428 -0.72423400  12.010000   ; qtot -0.101031
  429         h1     15    bbb    H15    429 0.25637600   1.008000   ; qtot 0.155345
  430         h1     15    bbb    H16    430 0.25637600   1.008000   ; qtot 0.411721
  431         c3     15    bbb     C9    431 -0.72423400  12.010000   ; qtot -0.312513
  432         h1     15    bbb    H17    432 0.25637600   1.008000   ; qtot -0.056137
  433         h1     15    bbb    H18    433 0.25637600   1.008000   ; qtot 0.200239
  434         os     15    bbb     O1    434 -0.20025300  16.000000   ; qtot -0.000014
; residue   16 bbb rtp bbb q -0.0
  435         n3     16    bbb     N1    435 -0.59685800  14.010000   ; qtot -0.596872
  436         c3     16    bbb     C1    436 0.10137000  12.010000   ; qtot -0.495502
  437         h1     16    bbb     H1    437 0.04411300   1.008000   ; qtot -0.451389
  438         h1     16    bbb     H2    438 0.04411300   1.008000   ; qtot -0.407276
  439         c3     16    bbb     C2    439 0.10137000  12.010000   ; qtot -0.305906
  440         h1     16    bbb     H3    440 0.04411300   1.008000   ; qtot -0.261793
  441         h1     16    bbb     H4    441 0.04411300   1.008000   ; qtot -0.217680
  442         c3     16    bbb     C3    442 -0.00195300  12.010000   ; qtot -0.219633
  443         h1     16    bbb     H5    443 0.05064400   1.008000   ; qtot -0.168989
  444         h1     16    bbb     H6    444 0.05064400   1.008000   ; qtot -0.118345
  445         c3     16    bbb     C4    445 -0.01612100  12.010000   ; qtot -0.134466
  446         hc     16    bbb     H7    446 0.04936100   1.008000   ; qtot -0.085105
  447         hc     16    bbb     H8    447 0.04936100   1.008000   ; qtot -0.035744
  448         c3     16    bbb     C5    448 0.11363000  12.010000   ; qtot 0.077886
  449         hc     16    bbb     H9    449 0.06265900   1.008000   ; qtot 0.140545
  450         hc     16    bbb    H10    450 0.06265900   1.008000   ; qtot 0.203204
  451         c3     16    bbb     C6    451 0.11363000  12.010000   ; qtot 0.316834
  452         hc     16    bbb    H11    452 0.06265900   1.008000   ; qtot 0.379493
  453         hc     16    bbb    H12    453 0.06265900   1.008000   ; qtot 0.442152
  454         c3     16    bbb     C7    454 0.05858200  12.010000   ; qtot 0.500734
  455         h1     16    bbb    H13    455 0.06123400   1.008000   ; qtot 0.561968
  456         h1     16    bbb    H14    456 0.06123400   1.008000   ; qtot 0.623202
  457         c3     16    bbb     C8    457 -0.72423400  12.010000   ; qtot -0.101032
  458         h1     16    bbb    H15    458 0.25637600   1.008000   ; qtot 0.155344
  459         h1     16    bbb    H16    459 0.25637600   1.008000   ; qtot 0.411720
  460         c3     16    bbb     C9    460 -0.72423400  12.010000   ; qtot -0.312514
  461         h1     16    bbb    H17    461 0.25637600   1.008000   ; qtot -0.056138
  462         h1     16    bbb    H18    462 0.25637600   1.008000   ; qtot 0.200238
  463         os     16    bbb     O1    463 -0.20025300  16.000000   ; qtot -0.000015
; residue   17 bbb rtp bbb q -0.0
  464         n3     17    bbb     N1    464 -0.59685800  14.010000   ; qtot -0.596873
  465         c3     17    bbb     C1    465 0.10137000  12.010000   ; qtot -0.495503
  466         h1     17    bbb     H1    466 0.04411300   1.008000   ; qtot -0.451390
  467         h1     17    bbb     H2    467 0.04411300   1.008000   ; qtot -0.407277
  468         c3     17    bbb     C2    468 0.10137000  12.010000   ; qtot -0.305907
  469         h1     17    bbb     H3    469 0.04411300   1.008000   ; qtot -0.261794
  470         h1     17    bbb     H4    470 0.04411300   1.008000   ; qtot -0.217681
  471         c3     17    bbb     C3    471 -0.00195300  12.010000   ; qtot -0.219634
  472         h1     17    bbb     H5    472 0.05064400   1.008000   ; qtot -0.168990
  473         h1     17    bbb     H6    473 0.05064400   1.008000   ; qtot -0.118346
  474         c3     17    bbb     C4    474 -0.01612100  12.010000   ; qtot -0.134467
  475         hc     17    bbb     H7    475 0.04936100   1.008000   ; qtot -0.085106
  476         hc     17    bbb     H8    476 0.04936100   1.008000   ; qtot -0.035745
  477         c3     17    bbb     C5    477 0.11363000  12.010000   ; qtot 0.077885
  478         hc     17    bbb     H9    478 0.06265900   1.008000   ; qtot 0.140544
  479         hc     17    bbb    H10    479 0.06265900   1.008000   ; qtot 0.203203
  480         c3     17    bbb     C6    480 0.11363000  12.010000   ; qtot 0.316833
  481         hc     17    bbb    H11    481 0.06265900   1.008000   ; qtot 0.379492
  482         hc     17    bbb    H12    482 0.06265900   1.008000   ; qtot 0.442151
  483         c3     17    bbb     C7    483 0.05858200  12.010000   ; qtot 0.500733
  484         h1     17    bbb    H13    484 0.06123400   1.008000   ; qtot 0.561967
  485         h1     17    bbb    H14    485 0.06123400   1.008000   ; qtot 0.623201
  486         c3     17    bbb     C8    486 -0.72423400  12.010000   ; qtot -0.101033
  487         h1     17    bbb    H15    487 0.25637600   1.008000   ; qtot 0.155343
  488         h1     17    bbb    H16    488 0.25637600   1.008000   ; qtot 0.411719
  489         c3     17    bbb     C9    489 -0.72423400  12.010000   ; qtot -0.312515
  490         h1     17    bbb    H17    490 0.25637600   1.008000   ; qtot -0.056139
  491         h1     17    bbb    H18    491 0.25637600   1.008000   ; qtot 0.200237
  492         os     17    bbb     O1    492 -0.20025300  16.000000   ; qtot -0.000016
; residue   18 bbb rtp bbb q -0.0
  493         n3     18    bbb     N1    493 -0.59685800  14.010000   ; qtot -0.596874
  494         c3     18    bbb     C1    494 0.10137000  12.010000   ; qtot -0.495504
  495         h1     18    bbb     H1    495 0.04411300   1.008000   ; qtot -0.451391
  496         h1     18    bbb     H2    496 0.04411300   1.008000   ; qtot -0.407278
  497         c3     18    bbb     C2    497 0.10137000  12.010000   ; qtot -0.305908
  498         h1     18    bbb     H3    498 0.04411300   1.008000   ; qtot -0.261795
  499         h1     18    bbb     H4    499 0.04411300   1.008000   ; qtot -0.217682
  500         c3     18    bbb     C3    500 -0.00195300  12.010000   ; qtot -0.219635
  501         h1     18    bbb     H5    501 0.05064400   1.008000   ; qtot -0.168991
  502         h1     18    bbb     H6    502 0.05064400   1.008000   ; qtot -0.118347
  503         c3     18    bbb     C4    503 -0.01612100  12.010000   ; qtot -0.134468
  504         hc     18    bbb     H7    504 0.04936100   1.008000   ; qtot -0.085107
  505         hc     18    bbb     H8    505 0.04936100   1.008000   ; qtot -0.035746
  506         c3     18    bbb     C5    506 0.11363000  12.010000   ; qtot 0.077884
  507         hc     18    bbb     H9    507 0.06265900   1.008000   ; qtot 0.140543
  508         hc     18    bbb    H10    508 0.06265900   1.008000   ; qtot 0.203202
  509         c3     18    bbb     C6    509 0.11363000  12.010000   ; qtot 0.316832
  510         hc     18    bbb    H11    510 0.06265900   1.008000   ; qtot 0.379491
  511         hc     18    bbb    H12    511 0.06265900   1.008000   ; qtot 0.442150
  512         c3     18    bbb     C7    512 0.05858200  12.010000   ; qtot 0.500732
  513         h1     18    bbb    H13    513 0.06123400   1.008000   ; qtot 0.561966
  514         h1     18    bbb    H14    514 0.06123400   1.008000   ; qtot 0.623200
  515         c3     18    bbb     C8    515 -0.72423400  12.010000   ; qtot -0.101034
  516         h1     18    bbb    H15    516 0.25637600   1.008000   ; qtot 0.155342
  517         h1     18    bbb    H16    517 0.25637600   1.008000   ; qtot 0.411718
  518         c3     18    bbb     C9    518 -0.72423400  12.010000   ; qtot -0.312516
  519         h1     18    bbb    H17    519 0.25637600   1.008000   ; qtot -0.056140
  520         h1     18    bbb    H18    520 0.25637600   1.008000   ; qtot 0.200236
  521         os     18    bbb     O1    521 -0.20025300  16.000000   ; qtot -0.000017
; residue   19 bbb rtp bbb q -0.0
  522         n3     19    bbb     N1    522 -0.59685800  14.010000   ; qtot -0.596875
  523         c3     19    bbb     C1    523 0.10137000  12.010000   ; qtot -0.495505
  524         h1     19    bbb     H1    524 0.04411300   1.008000   ; qtot -0.451392
  525         h1     19    bbb     H2    525 0.04411300   1.008000   ; qtot -0.407279
  526         c3     19    bbb     C2    526 0.10137000  12.010000   ; qtot -0.305909
  527         h1     19    bbb     H3    527 0.04411300   1.008000   ; qtot -0.261796
  528         h1     19    bbb     H4    528 0.04411300   1.008000   ; qtot -0.217683
  529         c3     19    bbb     C3    529 -0.00195300  12.010000   ; qtot -0.219636
  530         h1     19    bbb     H5    530 0.05064400   1.008000   ; qtot -0.168992
  531         h1     19    bbb     H6    531 0.05064400   1.008000   ; qtot -0.118348
  532         c3     19    bbb     C4    532 -0.01612100  12.010000   ; qtot -0.134469
  533         hc     19    bbb     H7    533 0.04936100   1.008000   ; qtot -0.085108
  534         hc     19    bbb     H8    534 0.04936100   1.008000   ; qtot -0.035747
  535         c3     19    bbb     C5    535 0.11363000  12.010000   ; qtot 0.077883
  536         hc     19    bbb     H9    536 0.06265900   1.008000   ; qtot 0.140542
  537         hc     19    bbb    H10    537 0.06265900   1.008000   ; qtot 0.203201
  538         c3     19    bbb     C6    538 0.11363000  12.010000   ; qtot 0.316831
  539         hc     19    bbb    H11    539 0.06265900   1.008000   ; qtot 0.379490
  540         hc     19    bbb    H12    540 0.06265900   1.008000   ; qtot 0.442149
  541         c3     19    bbb     C7    541 0.05858200  12.010000   ; qtot 0.500731
  542         h1     19    bbb    H13    542 0.06123400   1.008000   ; qtot 0.561965
  543         h1     19    bbb    H14    543 0.06123400   1.008000   ; qtot 0.623199
  544         c3     19    bbb     C8    544 -0.72423400  12.010000   ; qtot -0.101035
  545         h1     19    bbb    H15    545 0.25637600   1.008000   ; qtot 0.155341
  546         h1     19    bbb    H16    546 0.25637600   1.008000   ; qtot 0.411717
  547         c3     19    bbb     C9    547 -0.72423400  12.010000   ; qtot -0.312517
  548         h1     19    bbb    H17    548 0.25637600   1.008000   ; qtot -0.056141
  549         h1     19    bbb    H18    549 0.25637600   1.008000   ; qtot 0.200235
  550         os     19    bbb     O1    550 -0.20025300  16.000000   ; qtot -0.000018
; residue   20 bbb rtp bbb q -0.0
  551         n3     20    bbb     N1    551 -0.59685800  14.010000   ; qtot -0.596876
  552         c3     20    bbb     C1    552 0.10137000  12.010000   ; qtot -0.495506
  553         h1     20    bbb     H1    553 0.04411300   1.008000   ; qtot -0.451393
  554         h1     20    bbb     H2    554 0.04411300   1.008000   ; qtot -0.407280
  555         c3     20    bbb     C2    555 0.10137000  12.010000   ; qtot -0.305910
  556         h1     20    bbb     H3    556 0.04411300   1.008000   ; qtot -0.261797
  557         h1     20    bbb     H4    557 0.04411300   1.008000   ; qtot -0.217684
  558         c3     20    bbb     C3    558 -0.00195300  12.010000   ; qtot -0.219637
  559         h1     20    bbb     H5    559 0.05064400   1.008000   ; qtot -0.168993
  560         h1     20    bbb     H6    560 0.05064400   1.008000   ; qtot -0.118349
  561         c3     20    bbb     C4    561 -0.01612100  12.010000   ; qtot -0.134470
  562         hc     20    bbb     H7    562 0.04936100   1.008000   ; qtot -0.085109
  563         hc     20    bbb     H8    563 0.04936100   1.008000   ; qtot -0.035748
  564         c3     20    bbb     C5    564 0.11363000  12.010000   ; qtot 0.077882
  565         hc     20    bbb     H9    565 0.06265900   1.008000   ; qtot 0.140541
  566         hc     20    bbb    H10    566 0.06265900   1.008000   ; qtot 0.203200
  567         c3     20    bbb     C6    567 0.11363000  12.010000   ; qtot 0.316830
  568         hc     20    bbb    H11    568 0.06265900   1.008000   ; qtot 0.379489
  569         hc     20    bbb    H12    569 0.06265900   1.008000   ; qtot 0.442148
  570         c3     20    bbb     C7    570 0.05858200  12.010000   ; qtot 0.500730
  571         h1     20    bbb    H13    571 0.06123400   1.008000   ; qtot 0.561964
  572         h1     20    bbb    H14    572 0.06123400   1.008000   ; qtot 0.623198
  573         c3     20    bbb     C8    573 -0.72423400  12.010000   ; qtot -0.101036
  574         h1     20    bbb    H15    574 0.25637600   1.008000   ; qtot 0.155340
  575         h1     20    bbb    H16    575 0.25637600   1.008000   ; qtot 0.411716
  576         c3     20    bbb     C9    576 -0.72423400  12.010000   ; qtot -0.312518
  577         h1     20    bbb    H17    577 0.25637600   1.008000   ; qtot -0.056142
  578         h1     20    bbb    H18    578 0.25637600   1.008000   ; qtot 0.200234
  579         os     20    bbb     O1    579 -0.20025300  16.000000   ; qtot -0.000019
; residue   21 bbb rtp bbb q -0.0
  580         n3     21    bbb     N1    580 -0.59685800  14.010000   ; qtot -0.596877
  581         c3     21    bbb     C1    581 0.10137000  12.010000   ; qtot -0.495507
  582         h1     21    bbb     H1    582 0.04411300   1.008000   ; qtot -0.451394
  583         h1     21    bbb     H2    583 0.04411300   1.008000   ; qtot -0.407281
  584         c3     21    bbb     C2    584 0.10137000  12.010000   ; qtot -0.305911
  585         h1     21    bbb     H3    585 0.04411300   1.008000   ; qtot -0.261798
  586         h1     21    bbb     H4    586 0.04411300   1.008000   ; qtot -0.217685
  587         c3     21    bbb     C3    587 -0.00195300  12.010000   ; qtot -0.219638
  588         h1     21    bbb     H5    588 0.05064400   1.008000   ; qtot -0.168994
  589         h1     21    bbb     H6    589 0.05064400   1.008000   ; qtot -0.118350
  590         c3     21    bbb     C4    590 -0.01612100  12.010000   ; qtot -0.134471
  591         hc     21    bbb     H7    591 0.04936100   1.008000   ; qtot -0.085110
  592         hc     21    bbb     H8    592 0.04936100   1.008000   ; qtot -0.035749
  593         c3     21    bbb     C5    593 0.11363000  12.010000   ; qtot 0.077881
  594         hc     21    bbb     H9    594 0.06265900   1.008000   ; qtot 0.140540
  595         hc     21    bbb    H10    595 0.06265900   1.008000   ; qtot 0.203199
  596         c3     21    bbb     C6    596 0.11363000  12.010000   ; qtot 0.316829
  597         hc     21    bbb    H11    597 0.06265900   1.008000   ; qtot 0.379488
  598         hc     21    bbb    H12    598 0.06265900   1.008000   ; qtot 0.442147
  599         c3     21    bbb     C7    599 0.05858200  12.010000   ; qtot 0.500729
  600         h1     21    bbb    H13    600 0.06123400   1.008000   ; qtot 0.561963
  601         h1     21    bbb    H14    601 0.06123400   1.008000   ; qtot 0.623197
  602         c3     21    bbb     C8    602 -0.72423400  12.010000   ; qtot -0.101037
  603         h1     21    bbb    H15    603 0.25637600   1.008000   ; qtot 0.155339
  604         h1     21    bbb    H16    604 0.25637600   1.008000   ; qtot 0.411715
  605         c3     21    bbb     C9    605 -0.72423400  12.010000   ; qtot -0.312519
  606         h1     21    bbb    H17    606 0.25637600   1.008000   ; qtot -0.056143
  607         h1     21    bbb    H18    607 0.25637600   1.008000   ; qtot 0.200233
  608         os     21    bbb     O1    608 -0.20025300  16.000000   ; qtot -0.000020
; residue   22 bbb rtp bbb q -0.0
  609         n3     22    bbb     N1    609 -0.59685800  14.010000   ; qtot -0.596878
  610         c3     22    bbb     C1    610 0.10137000  12.010000   ; qtot -0.495508
  611         h1     22    bbb     H1    611 0.04411300   1.008000   ; qtot -0.451395
  612         h1     22    bbb     H2    612 0.04411300   1.008000   ; qtot -0.407282
  613         c3     22    bbb     C2    613 0.10137000  12.010000   ; qtot -0.305912
  614         h1     22    bbb     H3    614 0.04411300   1.008000   ; qtot -0.261799
  615         h1     22    bbb     H4    615 0.04411300   1.008000   ; qtot -0.217686
  616         c3     22    bbb     C3    616 -0.00195300  12.010000   ; qtot -0.219639
  617         h1     22    bbb     H5    617 0.05064400   1.008000   ; qtot -0.168995
  618         h1     22    bbb     H6    618 0.05064400   1.008000   ; qtot -0.118351
  619         c3     22    bbb     C4    619 -0.01612100  12.010000   ; qtot -0.134472
  620         hc     22    bbb     H7    620 0.04936100   1.008000   ; qtot -0.085111
  621         hc     22    bbb     H8    621 0.04936100   1.008000   ; qtot -0.035750
  622         c3     22    bbb     C5    622 0.11363000  12.010000   ; qtot 0.077880
  623         hc     22    bbb     H9    623 0.06265900   1.008000   ; qtot 0.140539
  624         hc     22    bbb    H10    624 0.06265900   1.008000   ; qtot 0.203198
  625         c3     22    bbb     C6    625 0.11363000  12.010000   ; qtot 0.316828
  626         hc     22    bbb    H11    626 0.06265900   1.008000   ; qtot 0.379487
  627         hc     22    bbb    H12    627 0.06265900   1.008000   ; qtot 0.442146
  628         c3     22    bbb     C7    628 0.05858200  12.010000   ; qtot 0.500728
  629         h1     22    bbb    H13    629 0.06123400   1.008000   ; qtot 0.561962
  630         h1     22    bbb    H14    630 0.06123400   1.008000   ; qtot 0.623196
  631         c3     22    bbb     C8    631 -0.72423400  12.010000   ; qtot -0.101038
  632         h1     22    bbb    H15    632 0.25637600   1.008000   ; qtot 0.155338
  633         h1     22    bbb    H16    633 0.25637600   1.008000   ; qtot 0.411714
  634         c3     22    bbb     C9    634 -0.72423400  12.010000   ; qtot -0.312520
  635         h1     22    bbb    H17    635 0.25637600   1.008000   ; qtot -0.056144
  636         h1     22    bbb    H18    636 0.25637600   1.008000   ; qtot 0.200232
  637         os     22    bbb     O1    637 -0.20025300  16.000000   ; qtot -0.000021
; residue   23 ccc rtp ccc q 1.0
  638         c3     23    ccc     C1    638 0.17060900  12.010000   ; qtot 0.170588
  639         hx     23    ccc     H1    639 0.04213200   1.008000   ; qtot 0.212720
  640         hx     23    ccc     H2    640 0.04213200   1.008000   ; qtot 0.254852
  641         c3     23    ccc     C2    641 -0.04496700  12.010000   ; qtot 0.209885
  642         hc     23    ccc     H3    642 0.02647500   1.008000   ; qtot 0.236360
  643         hc     23    ccc     H4    643 0.02647500   1.008000   ; qtot 0.262835
  644         c3     23    ccc     C3    644 0.04732600  12.010000   ; qtot 0.310161
  645         h1     23    ccc     H5    645 0.07030200   1.008000   ; qtot 0.380463
  646         h1     23    ccc     H6    646 0.07030200   1.008000   ; qtot 0.450765
  647         n4     23    ccc     N1    647 -0.21077700  14.010000   ; qtot 0.239988
  648         hn     23    ccc     H7    648 0.28399900   1.008000   ; qtot 0.523987
  649         hn     23    ccc     H8    649 0.28399900   1.008000   ; qtot 0.807986
  650         os     23    ccc     O1    650 -0.09200600  16.000000   ; qtot 0.715980
  651         hn     23    ccc    H17    651 0.28399900   1.008000   ; qtot 0.999979
; residue   24 ccc rtp ccc q 1.0
  652         c3     24    ccc     C1    652 0.17060900  12.010000   ; qtot 1.170588
  653         hx     24    ccc     H1    653 0.04213200   1.008000   ; qtot 1.212720
  654         hx     24    ccc     H2    654 0.04213200   1.008000   ; qtot 1.254852
  655         c3     24    ccc     C2    655 -0.04496700  12.010000   ; qtot 1.209885
  656         hc     24    ccc     H3    656 0.02647500   1.008000   ; qtot 1.236360
  657         hc     24    ccc     H4    657 0.02647500   1.008000   ; qtot 1.262835
  658         c3     24    ccc     C3    658 0.04732600  12.010000   ; qtot 1.310161
  659         h1     24    ccc     H5    659 0.07030200   1.008000   ; qtot 1.380463
  660         h1     24    ccc     H6    660 0.07030200   1.008000   ; qtot 1.450765
  661         n4     24    ccc     N1    661 -0.21077700  14.010000   ; qtot 1.239988
  662         hn     24    ccc     H7    662 0.28399900   1.008000   ; qtot 1.523987
  663         hn     24    ccc     H8    663 0.28399900   1.008000   ; qtot 1.807986
  664         os     24    ccc     O1    664 -0.09200600  16.000000   ; qtot 1.715980
  665         hn     24    ccc    H17    665 0.28399900   1.008000   ; qtot 1.999979
; residue   25 ccc rtp ccc q 1.0
  666         c3     25    ccc     C1    666 0.17060900  12.010000   ; qtot 2.170588
  667         hx     25    ccc     H1    667 0.04213200   1.008000   ; qtot 2.212720
  668         hx     25    ccc     H2    668 0.04213200   1.008000   ; qtot 2.254852
  669         c3     25    ccc     C2    669 -0.04496700  12.010000   ; qtot 2.209885
  670         hc     25    ccc     H3    670 0.02647500   1.008000   ; qtot 2.236360
  671         hc     25    ccc     H4    671 0.02647500   1.008000   ; qtot 2.262835
  672         c3     25    ccc     C3    672 0.04732600  12.010000   ; qtot 2.310161
  673         h1     25    ccc     H5    673 0.07030200   1.008000   ; qtot 2.380463
  674         h1     25    ccc     H6    674 0.07030200   1.008000   ; qtot 2.450765
  675         n4     25    ccc     N1    675 -0.21077700  14.010000   ; qtot 2.239988
  676         hn     25    ccc     H7    676 0.28399900   1.008000   ; qtot 2.523987
  677         hn     25    ccc     H8    677 0.28399900   1.008000   ; qtot 2.807986
  678         os     25    ccc     O1    678 -0.09200600  16.000000   ; qtot 2.715980
  679         hn     25    ccc    H17    679 0.28399900   1.008000   ; qtot 2.999979
; residue   26 ccc rtp ccc q 1.0
  680         c3     26    ccc     C1    680 0.17060900  12.010000   ; qtot 3.170588
  681         hx     26    ccc     H1    681 0.04213200   1.008000   ; qtot 3.212720
  682         hx     26    ccc     H2    682 0.04213200   1.008000   ; qtot 3.254852
  683         c3     26    ccc     C2    683 -0.04496700  12.010000   ; qtot 3.209885
  684         hc     26    ccc     H3    684 0.02647500   1.008000   ; qtot 3.236360
  685         hc     26    ccc     H4    685 0.02647500   1.008000   ; qtot 3.262835
  686         c3     26    ccc     C3    686 0.04732600  12.010000   ; qtot 3.310161
  687         h1     26    ccc     H5    687 0.07030200   1.008000   ; qtot 3.380463
  688         h1     26    ccc     H6    688 0.07030200   1.008000   ; qtot 3.450765
  689         n4     26    ccc     N1    689 -0.21077700  14.010000   ; qtot 3.239988
  690         hn     26    ccc     H7    690 0.28399900   1.008000   ; qtot 3.523987
  691         hn     26    ccc     H8    691 0.28399900   1.008000   ; qtot 3.807986
  692         os     26    ccc     O1    692 -0.09200600  16.000000   ; qtot 3.715980
  693         hn     26    ccc    H17    693 0.28399900   1.008000   ; qtot 3.999979
; residue   27 ccc rtp ccc q 1.0
  694         c3     27    ccc     C1    694 0.17060900  12.010000   ; qtot 4.170588
  695         hx     27    ccc     H1    695 0.04213200   1.008000   ; qtot 4.212720
  696         hx     27    ccc     H2    696 0.04213200   1.008000   ; qtot 4.254852
  697         c3     27    ccc     C2    697 -0.04496700  12.010000   ; qtot 4.209885
  698         hc     27    ccc     H3    698 0.02647500   1.008000   ; qtot 4.236360
  699         hc     27    ccc     H4    699 0.02647500   1.008000   ; qtot 4.262835
  700         c3     27    ccc     C3    700 0.04732600  12.010000   ; qtot 4.310161
  701         h1     27    ccc     H5    701 0.07030200   1.008000   ; qtot 4.380463
  702         h1     27    ccc     H6    702 0.07030200   1.008000   ; qtot 4.450765
  703         n4     27    ccc     N1    703 -0.21077700  14.010000   ; qtot 4.239988
  704         hn     27    ccc     H7    704 0.28399900   1.008000   ; qtot 4.523987
  705         hn     27    ccc     H8    705 0.28399900   1.008000   ; qtot 4.807986
  706         os     27    ccc     O1    706 -0.09200600  16.000000   ; qtot 4.715980
  707         hn     27    ccc    H17    707 0.28399900   1.008000   ; qtot 4.999979
; residue   28 ccc rtp ccc q 1.0
  708         c3     28    ccc     C1    708 0.17060900  12.010000   ; qtot 5.170588
  709         hx     28    ccc     H1    709 0.04213200   1.008000   ; qtot 5.212720
  710         hx     28    ccc     H2    710 0.04213200   1.008000   ; qtot 5.254852
  711         c3     28    ccc     C2    711 -0.04496700  12.010000   ; qtot 5.209885
  712         hc     28    ccc     H3    712 0.02647500   1.008000   ; qtot 5.236360
  713         hc     28    ccc     H4    713 0.02647500   1.008000   ; qtot 5.262835
  714         c3     28    ccc     C3    714 0.04732600  12.010000   ; qtot 5.310161
  715         h1     28    ccc     H5    715 0.07030200   1.008000   ; qtot 5.380463
  716         h1     28    ccc     H6    716 0.07030200   1.008000   ; qtot 5.450765
  717         n4     28    ccc     N1    717 -0.21077700  14.010000   ; qtot 5.239988
  718         hn     28    ccc     H7    718 0.28399900   1.008000   ; qtot 5.523987
  719         hn     28    ccc     H8    719 0.28399900   1.008000   ; qtot 5.807986
  720         os     28    ccc     O1    720 -0.09200600  16.000000   ; qtot 5.715980
  721         hn     28    ccc    H17    721 0.28399900   1.008000   ; qtot 5.999979
; residue   29 ccc rtp ccc q 1.0
  722         c3     29    ccc     C1    722 0.17060900  12.010000   ; qtot 6.170588
  723         hx     29    ccc     H1    723 0.04213200   1.008000   ; qtot 6.212720
  724         hx     29    ccc     H2    724 0.04213200   1.008000   ; qtot 6.254852
  725         c3     29    ccc     C2    725 -0.04496700  12.010000   ; qtot 6.209885
  726         hc     29    ccc     H3    726 0.02647500   1.008000   ; qtot 6.236360
  727         hc     29    ccc     H4    727 0.02647500   1.008000   ; qtot 6.262835
  728         c3     29    ccc     C3    728 0.04732600  12.010000   ; qtot 6.310161
  729         h1     29    ccc     H5    729 0.07030200   1.008000   ; qtot 6.380463
  730         h1     29    ccc     H6    730 0.07030200   1.008000   ; qtot 6.450765
  731         n4     29    ccc     N1    731 -0.21077700  14.010000   ; qtot 6.239988
  732         hn     29    ccc     H7    732 0.28399900   1.008000   ; qtot 6.523987
  733         hn     29    ccc     H8    733 0.28399900   1.008000   ; qtot 6.807986
  734         os     29    ccc     O1    734 -0.09200600  16.000000   ; qtot 6.715980
  735         hn     29    ccc    H17    735 0.28399900   1.008000   ; qtot 6.999979
; residue   30 ccc rtp ccc q 1.0
  736         c3     30    ccc     C1    736 0.17060900  12.010000   ; qtot 7.170588
  737         hx     30    ccc     H1    737 0.04213200   1.008000   ; qtot 7.212720
  738         hx     30    ccc     H2    738 0.04213200   1.008000   ; qtot 7.254852
  739         c3     30    ccc     C2    739 -0.04496700  12.010000   ; qtot 7.209885
  740         hc     30    ccc     H3    740 0.02647500   1.008000   ; qtot 7.236360
  741         hc     30    ccc     H4    741 0.02647500   1.008000   ; qtot 7.262835
  742         c3     30    ccc     C3    742 0.04732600  12.010000   ; qtot 7.310161
  743         h1     30    ccc     H5    743 0.07030200   1.008000   ; qtot 7.380463
  744         h1     30    ccc     H6    744 0.07030200   1.008000   ; qtot 7.450765
  745         n4     30    ccc     N1    745 -0.21077700  14.010000   ; qtot 7.239988
  746         hn     30    ccc     H7    746 0.28399900   1.008000   ; qtot 7.523987
  747         hn     30    ccc     H8    747 0.28399900   1.008000   ; qtot 7.807986
  748         os     30    ccc     O1    748 -0.09200600  16.000000   ; qtot 7.715980
  749         hn     30    ccc    H17    749 0.28399900   1.008000   ; qtot 7.999979
; residue   31 ccc rtp ccc q 1.0
  750         c3     31    ccc     C1    750 0.17060900  12.010000   ; qtot 8.170588
  751         hx     31    ccc     H1    751 0.04213200   1.008000   ; qtot 8.212720
  752         hx     31    ccc     H2    752 0.04213200   1.008000   ; qtot 8.254852
  753         c3     31    ccc     C2    753 -0.04496700  12.010000   ; qtot 8.209885
  754         hc     31    ccc     H3    754 0.02647500   1.008000   ; qtot 8.236360
  755         hc     31    ccc     H4    755 0.02647500   1.008000   ; qtot 8.262835
  756         c3     31    ccc     C3    756 0.04732600  12.010000   ; qtot 8.310161
  757         h1     31    ccc     H5    757 0.07030200   1.008000   ; qtot 8.380463
  758         h1     31    ccc     H6    758 0.07030200   1.008000   ; qtot 8.450765
  759         n4     31    ccc     N1    759 -0.21077700  14.010000   ; qtot 8.239988
  760         hn     31    ccc     H7    760 0.28399900   1.008000   ; qtot 8.523987
  761         hn     31    ccc     H8    761 0.28399900   1.008000   ; qtot 8.807986
  762         os     31    ccc     O1    762 -0.09200600  16.000000   ; qtot 8.715980
  763         hn     31    ccc    H17    763 0.28399900   1.008000   ; qtot 8.999979
; residue   32 ccc rtp ccc q 1.0
  764         c3     32    ccc     C1    764 0.17060900  12.010000   ; qtot 9.170588
  765         hx     32    ccc     H1    765 0.04213200   1.008000   ; qtot 9.212720
  766         hx     32    ccc     H2    766 0.04213200   1.008000   ; qtot 9.254852
  767         c3     32    ccc     C2    767 -0.04496700  12.010000   ; qtot 9.209885
  768         hc     32    ccc     H3    768 0.02647500   1.008000   ; qtot 9.236360
  769         hc     32    ccc     H4    769 0.02647500   1.008000   ; qtot 9.262835
  770         c3     32    ccc     C3    770 0.04732600  12.010000   ; qtot 9.310161
  771         h1     32    ccc     H5    771 0.07030200   1.008000   ; qtot 9.380463
  772         h1     32    ccc     H6    772 0.07030200   1.008000   ; qtot 9.450765
  773         n4     32    ccc     N1    773 -0.21077700  14.010000   ; qtot 9.239988
  774         hn     32    ccc     H7    774 0.28399900   1.008000   ; qtot 9.523987
  775         hn     32    ccc     H8    775 0.28399900   1.008000   ; qtot 9.807986
  776         os     32    ccc     O1    776 -0.09200600  16.000000   ; qtot 9.715980
  777         hn     32    ccc    H17    777 0.28399900   1.008000   ; qtot 9.999979
; residue   33 ccc rtp ccc q 1.0
  778         c3     33    ccc     C1    778 0.17060900  12.010000   ; qtot 10.170588
  779         hx     33    ccc     H1    779 0.04213200   1.008000   ; qtot 10.212720
  780         hx     33    ccc     H2    780 0.04213200   1.008000   ; qtot 10.254852
  781         c3     33    ccc     C2    781 -0.04496700  12.010000   ; qtot 10.209885
  782         hc     33    ccc     H3    782 0.02647500   1.008000   ; qtot 10.236360
  783         hc     33    ccc     H4    783 0.02647500   1.008000   ; qtot 10.262835
  784         c3     33    ccc     C3    784 0.04732600  12.010000   ; qtot 10.310161
  785         h1     33    ccc     H5    785 0.07030200   1.008000   ; qtot 10.380463
  786         h1     33    ccc     H6    786 0.07030200   1.008000   ; qtot 10.450765
  787         n4     33    ccc     N1    787 -0.21077700  14.010000   ; qtot 10.239988
  788         hn     33    ccc     H7    788 0.28399900   1.008000   ; qtot 10.523987
  789         hn     33    ccc     H8    789 0.28399900   1.008000   ; qtot 10.807986
  790         os     33    ccc     O1    790 -0.09200600  16.000000   ; qtot 10.715980
  791         hn     33    ccc    H17    791 0.28399900   1.008000   ; qtot 10.999979
; residue   34 ccc rtp ccc q 1.0
  792         c3     34    ccc     C1    792 0.17060900  12.010000   ; qtot 11.170588
  793         hx     34    ccc     H1    793 0.04213200   1.008000   ; qtot 11.212720
  794         hx     34    ccc     H2    794 0.04213200   1.008000   ; qtot 11.254852
  795         c3     34    ccc     C2    795 -0.04496700  12.010000   ; qtot 11.209885
  796         hc     34    ccc     H3    796 0.02647500   1.008000   ; qtot 11.236360
  797         hc     34    ccc     H4    797 0.02647500   1.008000   ; qtot 11.262835
  798         c3     34    ccc     C3    798 0.04732600  12.010000   ; qtot 11.310161
  799         h1     34    ccc     H5    799 0.07030200   1.008000   ; qtot 11.380463
  800         h1     34    ccc     H6    800 0.07030200   1.008000   ; qtot 11.450765
  801         n4     34    ccc     N1    801 -0.21077700  14.010000   ; qtot 11.239988
  802         hn     34    ccc     H7    802 0.28399900   1.008000   ; qtot 11.523987
  803         hn     34    ccc     H8    803 0.28399900   1.008000   ; qtot 11.807986
  804         os     34    ccc     O1    804 -0.09200600  16.000000   ; qtot 11.715980
  805         hn     34    ccc    H17    805 0.28399900   1.008000   ; qtot 11.999979
; residue   35 ccc rtp ccc q 1.0
  806         c3     35    ccc     C1    806 0.17060900  12.010000   ; qtot 12.170588
  807         hx     35    ccc     H1    807 0.04213200   1.008000   ; qtot 12.212720
  808         hx     35    ccc     H2    808 0.04213200   1.008000   ; qtot 12.254852
  809         c3     35    ccc     C2    809 -0.04496700  12.010000   ; qtot 12.209885
  810         hc     35    ccc     H3    810 0.02647500   1.008000   ; qtot 12.236360
  811         hc     35    ccc     H4    811 0.02647500   1.008000   ; qtot 12.262835
  812         c3     35    ccc     C3    812 0.04732600  12.010000   ; qtot 12.310161
  813         h1     35    ccc     H5    813 0.07030200   1.008000   ; qtot 12.380463
  814         h1     35    ccc     H6    814 0.07030200   1.008000   ; qtot 12.450765
  815         n4     35    ccc     N1    815 -0.21077700  14.010000   ; qtot 12.239988
  816         hn     35    ccc     H7    816 0.28399900   1.008000   ; qtot 12.523987
  817         hn     35    ccc     H8    817 0.28399900   1.008000   ; qtot 12.807986
  818         os     35    ccc     O1    818 -0.09200600  16.000000   ; qtot 12.715980
  819         hn     35    ccc    H17    819 0.28399900   1.008000   ; qtot 12.999979
; residue   36 ccc rtp ccc q 1.0
  820         c3     36    ccc     C1    820 0.17060900  12.010000   ; qtot 13.170588
  821         hx     36    ccc     H1    821 0.04213200   1.008000   ; qtot 13.212720
  822         hx     36    ccc     H2    822 0.04213200   1.008000   ; qtot 13.254852
  823         c3     36    ccc     C2    823 -0.04496700  12.010000   ; qtot 13.209885
  824         hc     36    ccc     H3    824 0.02647500   1.008000   ; qtot 13.236360
  825         hc     36    ccc     H4    825 0.02647500   1.008000   ; qtot 13.262835
  826         c3     36    ccc     C3    826 0.04732600  12.010000   ; qtot 13.310161
  827         h1     36    ccc     H5    827 0.07030200   1.008000   ; qtot 13.380463
  828         h1     36    ccc     H6    828 0.07030200   1.008000   ; qtot 13.450765
  829         n4     36    ccc     N1    829 -0.21077700  14.010000   ; qtot 13.239988
  830         hn     36    ccc     H7    830 0.28399900   1.008000   ; qtot 13.523987
  831         hn     36    ccc     H8    831 0.28399900   1.008000   ; qtot 13.807986
  832         os     36    ccc     O1    832 -0.09200600  16.000000   ; qtot 13.715980
  833         hn     36    ccc    H17    833 0.28399900   1.008000   ; qtot 13.999979
; residue   37 ccc rtp ccc q 1.0
  834         c3     37    ccc     C1    834 0.17060900  12.010000   ; qtot 14.170588
  835         hx     37    ccc     H1    835 0.04213200   1.008000   ; qtot 14.212720
  836         hx     37    ccc     H2    836 0.04213200   1.008000   ; qtot 14.254852
  837         c3     37    ccc     C2    837 -0.04496700  12.010000   ; qtot 14.209885
  838         hc     37    ccc     H3    838 0.02647500   1.008000   ; qtot 14.236360
  839         hc     37    ccc     H4    839 0.02647500   1.008000   ; qtot 14.262835
  840         c3     37    ccc     C3    840 0.04732600  12.010000   ; qtot 14.310161
  841         h1     37    ccc     H5    841 0.07030200   1.008000   ; qtot 14.380463
  842         h1     37    ccc     H6    842 0.07030200   1.008000   ; qtot 14.450765
  843         n4     37    ccc     N1    843 -0.21077700  14.010000   ; qtot 14.239988
  844         hn     37    ccc     H7    844 0.28399900   1.008000   ; qtot 14.523987
  845         hn     37    ccc     H8    845 0.28399900   1.008000   ; qtot 14.807986
  846         os     37    ccc     O1    846 -0.09200600  16.000000   ; qtot 14.715980
  847         hn     37    ccc    H17    847 0.28399900   1.008000   ; qtot 14.999979
; residue   38 ccc rtp ccc q 1.0
  848         c3     38    ccc     C1    848 0.17060900  12.010000   ; qtot 15.170588
  849         hx     38    ccc     H1    849 0.04213200   1.008000   ; qtot 15.212720
  850         hx     38    ccc     H2    850 0.04213200   1.008000   ; qtot 15.254852
  851         c3     38    ccc     C2    851 -0.04496700  12.010000   ; qtot 15.209885
  852         hc     38    ccc     H3    852 0.02647500   1.008000   ; qtot 15.236360
  853         hc     38    ccc     H4    853 0.02647500   1.008000   ; qtot 15.262835
  854         c3     38    ccc     C3    854 0.04732600  12.010000   ; qtot 15.310161
  855         h1     38    ccc     H5    855 0.07030200   1.008000   ; qtot 15.380463
  856         h1     38    ccc     H6    856 0.07030200   1.008000   ; qtot 15.450765
  857         n4     38    ccc     N1    857 -0.21077700  14.010000   ; qtot 15.239988
  858         hn     38    ccc     H7    858 0.28399900   1.008000   ; qtot 15.523987
  859         hn     38    ccc     H8    859 0.28399900   1.008000   ; qtot 15.807986
  860         os     38    ccc     O1    860 -0.09200600  16.000000   ; qtot 15.715980
  861         hn     38    ccc    H17    861 0.28399900   1.008000   ; qtot 15.999979
; residue   39 ccc rtp ccc q 1.0
  862         c3     39    ccc     C1    862 0.17060900  12.010000   ; qtot 16.170588
  863         hx     39    ccc     H1    863 0.04213200   1.008000   ; qtot 16.212720
  864         hx     39    ccc     H2    864 0.04213200   1.008000   ; qtot 16.254852
  865         c3     39    ccc     C2    865 -0.04496700  12.010000   ; qtot 16.209885
  866         hc     39    ccc     H3    866 0.02647500   1.008000   ; qtot 16.236360
  867         hc     39    ccc     H4    867 0.02647500   1.008000   ; qtot 16.262835
  868         c3     39    ccc     C3    868 0.04732600  12.010000   ; qtot 16.310161
  869         h1     39    ccc     H5    869 0.07030200   1.008000   ; qtot 16.380463
  870         h1     39    ccc     H6    870 0.07030200   1.008000   ; qtot 16.450765
  871         n4     39    ccc     N1    871 -0.21077700  14.010000   ; qtot 16.239988
  872         hn     39    ccc     H7    872 0.28399900   1.008000   ; qtot 16.523987
  873         hn     39    ccc     H8    873 0.28399900   1.008000   ; qtot 16.807986
  874         os     39    ccc     O1    874 -0.09200600  16.000000   ; qtot 16.715980
  875         hn     39    ccc    H17    875 0.28399900   1.008000   ; qtot 16.999979
; residue   40 ccc rtp ccc q 1.0
  876         c3     40    ccc     C1    876 0.17060900  12.010000   ; qtot 17.170588
  877         hx     40    ccc     H1    877 0.04213200   1.008000   ; qtot 17.212720
  878         hx     40    ccc     H2    878 0.04213200   1.008000   ; qtot 17.254852
  879         c3     40    ccc     C2    879 -0.04496700  12.010000   ; qtot 17.209885
  880         hc     40    ccc     H3    880 0.02647500   1.008000   ; qtot 17.236360
  881         hc     40    ccc     H4    881 0.02647500   1.008000   ; qtot 17.262835
  882         c3     40    ccc     C3    882 0.04732600  12.010000   ; qtot 17.310161
  883         h1     40    ccc     H5    883 0.07030200   1.008000   ; qtot 17.380463
  884         h1     40    ccc     H6    884 0.07030200   1.008000   ; qtot 17.450765
  885         n4     40    ccc     N1    885 -0.21077700  14.010000   ; qtot 17.239988
  886         hn     40    ccc     H7    886 0.28399900   1.008000   ; qtot 17.523987
  887         hn     40    ccc     H8    887 0.28399900   1.008000   ; qtot 17.807986
  888         os     40    ccc     O1    888 -0.09200600  16.000000   ; qtot 17.715980
  889         hn     40    ccc    H17    889 0.28399900   1.008000   ; qtot 17.999979
; residue   41 ccc rtp ccc q 1.0
  890         c3     41    ccc     C1    890 0.17060900  12.010000   ; qtot 18.170588
  891         hx     41    ccc     H1    891 0.04213200   1.008000   ; qtot 18.212720
  892         hx     41    ccc     H2    892 0.04213200   1.008000   ; qtot 18.254852
  893         c3     41    ccc     C2    893 -0.04496700  12.010000   ; qtot 18.209885
  894         hc     41    ccc     H3    894 0.02647500   1.008000   ; qtot 18.236360
  895         hc     41    ccc     H4    895 0.02647500   1.008000   ; qtot 18.262835
  896         c3     41    ccc     C3    896 0.04732600  12.010000   ; qtot 18.310161
  897         h1     41    ccc     H5    897 0.07030200   1.008000   ; qtot 18.380463
  898         h1     41    ccc     H6    898 0.07030200   1.008000   ; qtot 18.450765
  899         n4     41    ccc     N1    899 -0.21077700  14.010000   ; qtot 18.239988
  900         hn     41    ccc     H7    900 0.28399900   1.008000   ; qtot 18.523987
  901         hn     41    ccc     H8    901 0.28399900   1.008000   ; qtot 18.807986
  902         os     41    ccc     O1    902 -0.09200600  16.000000   ; qtot 18.715980
  903         hn     41    ccc    H17    903 0.28399900   1.008000   ; qtot 18.999979
; residue   42 ccc rtp ccc q 1.0
  904         c3     42    ccc     C1    904 0.17060900  12.010000   ; qtot 19.170588
  905         hx     42    ccc     H1    905 0.04213200   1.008000   ; qtot 19.212720
  906         hx     42    ccc     H2    906 0.04213200   1.008000   ; qtot 19.254852
  907         c3     42    ccc     C2    907 -0.04496700  12.010000   ; qtot 19.209885
  908         hc     42    ccc     H3    908 0.02647500   1.008000   ; qtot 19.236360
  909         hc     42    ccc     H4    909 0.02647500   1.008000   ; qtot 19.262835
  910         c3     42    ccc     C3    910 0.04732600  12.010000   ; qtot 19.310161
  911         h1     42    ccc     H5    911 0.07030200   1.008000   ; qtot 19.380463
  912         h1     42    ccc     H6    912 0.07030200   1.008000   ; qtot 19.450765
  913         n4     42    ccc     N1    913 -0.21077700  14.010000   ; qtot 19.239988
  914         hn     42    ccc     H7    914 0.28399900   1.008000   ; qtot 19.523987
  915         hn     42    ccc     H8    915 0.28399900   1.008000   ; qtot 19.807986
  916         os     42    ccc     O1    916 -0.09200600  16.000000   ; qtot 19.715980
  917         hn     42    ccc    H17    917 0.28399900   1.008000   ; qtot 19.999979
; residue   43 ccc rtp ccc q 1.0
  918         c3     43    ccc     C1    918 0.17060900  12.010000   ; qtot 20.170588
  919         hx     43    ccc     H1    919 0.04213200   1.008000   ; qtot 20.212720
  920         hx     43    ccc     H2    920 0.04213200   1.008000   ; qtot 20.254852
  921         c3     43    ccc     C2    921 -0.04496700  12.010000   ; qtot 20.209885
  922         hc     43    ccc     H3    922 0.02647500   1.008000   ; qtot 20.236360
  923         hc     43    ccc     H4    923 0.02647500   1.008000   ; qtot 20.262835
  924         c3     43    ccc     C3    924 0.04732600  12.010000   ; qtot 20.310161
  925         h1     43    ccc     H5    925 0.07030200   1.008000   ; qtot 20.380463
  926         h1     43    ccc     H6    926 0.07030200   1.008000   ; qtot 20.450765
  927         n4     43    ccc     N1    927 -0.21077700  14.010000   ; qtot 20.239988
  928         hn     43    ccc     H7    928 0.28399900   1.008000   ; qtot 20.523987
  929         hn     43    ccc     H8    929 0.28399900   1.008000   ; qtot 20.807986
  930         os     43    ccc     O1    930 -0.09200600  16.000000   ; qtot 20.715980
  931         hn     43    ccc    H17    931 0.28399900   1.008000   ; qtot 20.999979
; residue   44 ccc rtp ccc q 1.0
  932         c3     44    ccc     C1    932 0.17060900  12.010000   ; qtot 21.170588
  933         hx     44    ccc     H1    933 0.04213200   1.008000   ; qtot 21.212720
  934         hx     44    ccc     H2    934 0.04213200   1.008000   ; qtot 21.254852
  935         c3     44    ccc     C2    935 -0.04496700  12.010000   ; qtot 21.209885
  936         hc     44    ccc     H3    936 0.02647500   1.008000   ; qtot 21.236360
  937         hc     44    ccc     H4    937 0.02647500   1.008000   ; qtot 21.262835
  938         c3     44    ccc     C3    938 0.04732600  12.010000   ; qtot 21.310161
  939         h1     44    ccc     H5    939 0.07030200   1.008000   ; qtot 21.380463
  940         h1     44    ccc     H6    940 0.07030200   1.008000   ; qtot 21.450765
  941         n4     44    ccc     N1    941 -0.21077700  14.010000   ; qtot 21.239988
  942         hn     44    ccc     H7    942 0.28399900   1.008000   ; qtot 21.523987
  943         hn     44    ccc     H8    943 0.28399900   1.008000   ; qtot 21.807986
  944         os     44    ccc     O1    944 -0.09200600  16.000000   ; qtot 21.715980
  945         hn     44    ccc    H17    945 0.28399900   1.008000   ; qtot 21.999979
; residue   45 ccc rtp ccc q 1.0
  946         c3     45    ccc     C1    946 0.17060900  12.010000   ; qtot 22.170588
  947         hx     45    ccc     H1    947 0.04213200   1.008000   ; qtot 22.212720
  948         hx     45    ccc     H2    948 0.04213200   1.008000   ; qtot 22.254852
  949         c3     45    ccc     C2    949 -0.04496700  12.010000   ; qtot 22.209885
  950         hc     45    ccc     H3    950 0.02647500   1.008000   ; qtot 22.236360
  951         hc     45    ccc     H4    951 0.02647500   1.008000   ; qtot 22.262835
  952         c3     45    ccc     C3    952 0.04732600  12.010000   ; qtot 22.310161
  953         h1     45    ccc     H5    953 0.07030200   1.008000   ; qtot 22.380463
  954         h1     45    ccc     H6    954 0.07030200   1.008000   ; qtot 22.450765
  955         n4     45    ccc     N1    955 -0.21077700  14.010000   ; qtot 22.239988
  956         hn     45    ccc     H7    956 0.28399900   1.008000   ; qtot 22.523987
  957         hn     45    ccc     H8    957 0.28399900   1.008000   ; qtot 22.807986
  958         os     45    ccc     O1    958 -0.09200600  16.000000   ; qtot 22.715980
  959         hn     45    ccc    H17    959 0.28399900   1.008000   ; qtot 22.999979
; residue   46 ccc rtp ccc q 1.0
  960         c3     46    ccc     C1    960 0.17060900  12.010000   ; qtot 23.170588
  961         hx     46    ccc     H1    961 0.04213200   1.008000   ; qtot 23.212720
  962         hx     46    ccc     H2    962 0.04213200   1.008000   ; qtot 23.254852
  963         c3     46    ccc     C2    963 -0.04496700  12.010000   ; qtot 23.209885
  964         hc     46    ccc     H3    964 0.02647500   1.008000   ; qtot 23.236360
  965         hc     46    ccc     H4    965 0.02647500   1.008000   ; qtot 23.262835
  966         c3     46    ccc     C3    966 0.04732600  12.010000   ; qtot 23.310161
  967         h1     46    ccc     H5    967 0.07030200   1.008000   ; qtot 23.380463
  968         h1     46    ccc     H6    968 0.07030200   1.008000   ; qtot 23.450765
  969         n4     46    ccc     N1    969 -0.21077700  14.010000   ; qtot 23.239988
  970         hn     46    ccc     H7    970 0.28399900   1.008000   ; qtot 23.523987
  971         hn     46    ccc     H8    971 0.28399900   1.008000   ; qtot 23.807986
  972         os     46    ccc     O1    972 -0.09200600  16.000000   ; qtot 23.715980
  973         hn     46    ccc    H17    973 0.28399900   1.008000   ; qtot 23.999979

[ bonds ]
;    ai     aj funct         c0         c1         c2         c3
      1      2     1   0.14647 272713.120000
      1      5     1   0.14647 272713.120000
      1      8     1   0.14647 272713.120000
      2     14     1   0.15375 251793.120000
      5     17     1   0.15375 251793.120000
      8     11     1   0.15375 251793.120000
     11     23     1   0.15375 251793.120000
     14     26     1   0.15375 251793.120000
     17     20     1   0.15375 251793.120000
     20     57     1   0.14316 258236.480000
     23     86     1   0.14316 258236.480000
     26    115     1   0.14316 258236.480000
     29     30     1   0.14647 272713.120000
     29     33     1   0.14647 272713.120000
     29     36     1   0.14647 272713.120000
     30     42     1   0.15375 251793.120000
     33     45     1   0.15375 251793.120000
     36     39     1   0.15375 251793.120000
     39     48     1   0.15375 251793.120000
     42     54     1   0.15375 251793.120000
     45     51     1   0.15375 251793.120000
     48     57     1   0.14316 258236.480000
     51    144     1   0.14316 258236.480000
     54    173     1   0.14316 258236.480000
     58     59     1   0.14647 272713.120000
     58     62     1   0.14647 272713.120000
     58     65     1   0.14647 272713.120000
     59     71     1   0.15375 251793.120000
     62     74     1   0.15375 251793.120000
     65     68     1   0.15375 251793.120000
     68     77     1   0.15375 251793.120000
     71     83     1   0.15375 251793.120000
     74     80     1   0.15375 251793.120000
     77     86     1   0.14316 258236.480000
     80    202     1   0.14316 258236.480000
     83    231     1   0.14316 258236.480000
     87     88     1   0.14647 272713.120000
     87     91     1   0.14647 272713.120000
     87     94     1   0.14647 272713.120000
     88    100     1   0.15375 251793.120000
     91    103     1   0.15375 251793.120000
     94     97     1   0.15375 251793.120000
     97    106     1   0.15375 251793.120000
    100    112     1   0.15375 251793.120000
    103    109     1   0.15375 251793.120000
    106    115     1   0.14316 258236.480000
    109    260     1   0.14316 258236.480000
    112    289     1   0.14316 258236.480000
    116    117     1   0.14647 272713.120000
    116    120     1   0.14647 272713.120000
    116    123     1   0.14647 272713.120000
    117    129     1   0.15375 251793.120000
    120    132     1   0.15375 251793.120000
    123    126     1   0.15375 251793.120000
    126    135     1   0.15375 251793.120000
    129    141     1   0.15375 251793.120000
    132    138     1   0.15375 251793.120000
    135    144     1   0.14316 258236.480000
    138    318     1   0.14316 258236.480000
    141    347     1   0.14316 258236.480000
    145    146     1   0.14647 272713.120000
    145    149     1   0.14647 272713.120000
    145    152     1   0.14647 272713.120000
    146    158     1   0.15375 251793.120000
    149    161     1   0.15375 251793.120000
    152    155     1   0.15375 251793.120000
    155    164     1   0.15375 251793.120000
    158    170     1   0.15375 251793.120000
    161    167     1   0.15375 251793.120000
    164    173     1   0.14316 258236.480000
    167    376     1   0.14316 258236.480000
    170    405     1   0.14316 258236.480000
    174    175     1   0.14647 272713.120000
    174    178     1   0.14647 272713.120000
    174    181     1   0.14647 272713.120000
    175    187     1   0.15375 251793.120000
    178    190     1   0.15375 251793.120000
    181    184     1   0.15375 251793.120000
    184    193     1   0.15375 251793.120000
    187    199     1   0.15375 251793.120000
    190    196     1   0.15375 251793.120000
    193    202     1   0.14316 258236.480000
    196    434     1   0.14316 258236.480000
    199    463     1   0.14316 258236.480000
    203    204     1   0.14647 272713.120000
    203    207     1   0.14647 272713.120000
    203    210     1   0.14647 272713.120000
    204    216     1   0.15375 251793.120000
    207    219     1   0.15375 251793.120000
    210    213     1   0.15375 251793.120000
    213    222     1   0.15375 251793.120000
    216    228     1   0.15375 251793.120000
    219    225     1   0.15375 251793.120000
    222    231     1   0.14316 258236.480000
    225    492     1   0.14316 258236.480000
    228    521     1   0.14316 258236.480000
    232    233     1   0.14647 272713.120000
    232    236     1   0.14647 272713.120000
    232    239     1   0.14647 272713.120000
    233    245     1   0.15375 251793.120000
    236    248     1   0.15375 251793.120000
    239    242     1   0.15375 251793.120000
    242    251     1   0.15375 251793.120000
    245    257     1   0.15375 251793.120000
    248    254     1   0.15375 251793.120000
    251    260     1   0.14316 258236.480000
    254    550     1   0.14316 258236.480000
    257    579     1   0.14316 258236.480000
    261    262     1   0.14647 272713.120000
    261    265     1   0.14647 272713.120000
    261    268     1   0.14647 272713.120000
    262    274     1   0.15375 251793.120000
    265    277     1   0.15375 251793.120000
    268    271     1   0.15375 251793.120000
    271    280     1   0.15375 251793.120000
    274    286     1   0.15375 251793.120000
    277    283     1   0.15375 251793.120000
    280    289     1   0.14316 258236.480000
    283    608     1   0.14316 258236.480000
    286    637     1   0.14316 258236.480000
    290    291     1   0.14647 272713.120000
    290    294     1   0.14647 272713.120000
    290    297     1   0.14647 272713.120000
    291    303     1   0.15375 251793.120000
    294    306     1   0.15375 251793.120000
    297    300     1   0.15375 251793.120000
    300    309     1   0.15375 251793.120000
    303    315     1   0.15375 251793.120000
    306    312     1   0.15375 251793.120000
    309    318     1   0.14316 258236.480000
    312    650     1   0.14316 258236.480000
    315    664     1   0.14316 258236.480000
    319    320     1   0.14647 272713.120000
    319    323     1   0.14647 272713.120000
    319    326     1   0.14647 272713.120000
    320    332     1   0.15375 251793.120000
    323    335     1   0.15375 251793.120000
    326    329     1   0.15375 251793.120000
    329    338     1   0.15375 251793.120000
    332    344     1   0.15375 251793.120000
    335    341     1   0.15375 251793.120000
    338    347     1   0.14316 258236.480000
    341    678     1   0.14316 258236.480000
    344    692     1   0.14316 258236.480000
    348    349     1   0.14647 272713.120000
    348    352     1   0.14647 272713.120000
    348    355     1   0.14647 272713.120000
    349    361     1   0.15375 251793.120000
    352    364     1   0.15375 251793.120000
    355    358     1   0.15375 251793.120000
    358    367     1   0.15375 251793.120000
    361    373     1   0.15375 251793.120000
    364    370     1   0.15375 251793.120000
    367    376     1   0.14316 258236.480000
    370    706     1   0.14316 258236.480000
    373    720     1   0.14316 258236.480000
    377    378     1   0.14647 272713.120000
    377    381     1   0.14647 272713.120000
    377    384     1   0.14647 272713.120000
    378    390     1   0.15375 251793.120000
    381    393     1   0.15375 251793.120000
    384    387     1   0.15375 251793.120000
    387    396     1   0.15375 251793.120000
    390    402     1   0.15375 251793.120000
    393    399     1   0.15375 251793.120000
    396    405     1   0.14316 258236.480000
    399    734     1   0.14316 258236.480000
    402    748     1   0.14316 258236.480000
    406    407     1   0.14647 272713.120000
    406    410     1   0.14647 272713.120000
    406    413     1   0.14647 272713.120000
    407    419     1   0.15375 251793.120000
    410    422     1   0.15375 251793.120000
    413    416     1   0.15375 251793.120000
    416    425     1   0.15375 251793.120000
    419    431     1   0.15375 251793.120000
    422    428     1   0.15375 251793.120000
    425    434     1   0.14316 258236.480000
    428    762     1   0.14316 258236.480000
    431    776     1   0.14316 258236.480000
    435    436     1   0.14647 272713.120000
    435    439     1   0.14647 272713.120000
    435    442     1   0.14647 272713.120000
    436    448     1   0.15375 251793.120000
    439    451     1   0.15375 251793.120000
    442    445     1   0.15375 251793.120000
    445    454     1   0.15375 251793.120000
    448    460     1   0.15375 251793.120000
    451    457     1   0.15375 251793.120000
    454    463     1   0.14316 258236.480000
    457    790     1   0.14316 258236.480000
    460    804     1   0.14316 258236.480000
    464    465     1   0.14647 272713.120000
    464    468     1   0.14647 272713.120000
    464    471     1   0.14647 272713.120000
    465    477     1   0.15375 251793.120000
    468    480     1   0.15375 251793.120000
    471    474     1   0.15375 251793.120000
    474    483     1   0.15375 251793.120000
    477    489     1   0.15375 251793.120000
    480    486     1   0.15375 251793.120000
    483    492     1   0.14316 258236.480000
    486    818     1   0.14316 258236.480000
    489    832     1   0.14316 258236.480000
    493    494     1   0.14647 272713.120000
    493    497     1   0.14647 272713.120000
    493    500     1   0.14647 272713.120000
    494    506     1   0.15375 251793.120000
    497    509     1   0.15375 251793.120000
    500    503     1   0.15375 251793.120000
    503    512     1   0.15375 251793.120000
    506    518     1   0.15375 251793.120000
    509    515     1   0.15375 251793.120000
    512    521     1   0.14316 258236.480000
    515    846     1   0.14316 258236.480000
    518    860     1   0.14316 258236.480000
    522    523     1   0.14647 272713.120000
    522    526     1   0.14647 272713.120000
    522    529     1   0.14647 272713.120000
    523    535     1   0.15375 251793.120000
    526    538     1   0.15375 251793.120000
    529    532     1   0.15375 251793.120000
    532    541     1   0.15375 251793.120000
    535    547     1   0.15375 251793.120000
    538    544     1   0.15375 251793.120000
    541    550     1   0.14316 258236.480000
    544    874     1   0.14316 258236.480000
    547    888     1   0.14316 258236.480000
    551    552     1   0.14647 272713.120000
    551    555     1   0.14647 272713.120000
    551    558     1   0.14647 272713.120000
    552    564     1   0.15375 251793.120000
    555    567     1   0.15375 251793.120000
    558    561     1   0.15375 251793.120000
    561    570     1   0.15375 251793.120000
    564    576     1   0.15375 251793.120000
    567    573     1   0.15375 251793.120000
    570    579     1   0.14316 258236.480000
    573    902     1   0.14316 258236.480000
    576    916     1   0.14316 258236.480000
    580    581     1   0.14647 272713.120000
    580    584     1   0.14647 272713.120000
    580    587     1   0.14647 272713.120000
    581    593     1   0.15375 251793.120000
    584    596     1   0.15375 251793.120000
    587    590     1   0.15375 251793.120000
    590    599     1   0.15375 251793.120000
    593    605     1   0.15375 251793.120000
    596    602     1   0.15375 251793.120000
    599    608     1   0.14316 258236.480000
    602    930     1   0.14316 258236.480000
    605    944     1   0.14316 258236.480000
    609    610     1   0.14647 272713.120000
    609    613     1   0.14647 272713.120000
    609    616     1   0.14647 272713.120000
    610    622     1   0.15375 251793.120000
    613    625     1   0.15375 251793.120000
    616    619     1   0.15375 251793.120000
    619    628     1   0.15375 251793.120000
    622    634     1   0.15375 251793.120000
    625    631     1   0.15375 251793.120000
    628    637     1   0.14316 258236.480000
    631    958     1   0.14316 258236.480000
    634    972     1   0.14316 258236.480000
    638    641     1   0.15375 251793.120000
    638    647     1   0.15110 237065.440000
    641    644     1   0.15375 251793.120000
    644    650     1   0.14316 258236.480000
    652    655     1   0.15375 251793.120000
    652    661     1   0.15110 237065.440000
    655    658     1   0.15375 251793.120000
    658    664     1   0.14316 258236.480000
    666    669     1   0.15375 251793.120000
    666    675     1   0.15110 237065.440000
    669    672     1   0.15375 251793.120000
    672    678     1   0.14316 258236.480000
    680    683     1   0.15375 251793.120000
    680    689     1   0.15110 237065.440000
    683    686     1   0.15375 251793.120000
    686    692     1   0.14316 258236.480000
    694    697     1   0.15375 251793.120000
    694    703     1   0.15110 237065.440000
    697    700     1   0.15375 251793.120000
    700    706     1   0.14316 258236.480000
    708    711     1   0.15375 251793.120000
    708    717     1   0.15110 237065.440000
    711    714     1   0.15375 251793.120000
    714    720     1   0.14316 258236.480000
    722    725     1   0.15375 251793.120000
    722    731     1   0.15110 237065.440000
    725    728     1   0.15375 251793.120000
    728    734     1   0.14316 258236.480000
    736    739     1   0.15375 251793.120000
    736    745     1   0.15110 237065.440000
    739    742     1   0.15375 251793.120000
    742    748     1   0.14316 258236.480000
    750    753     1   0.15375 251793.120000
    750    759     1   0.15110 237065.440000
    753    756     1   0.15375 251793.120000
    756    762     1   0.14316 258236.480000
    764    767     1   0.15375 251793.120000
    764    773     1   0.15110 237065.440000
    767    770     1   0.15375 251793.120000
    770    776     1   0.14316 258236.480000
    778    781     1   0.15375 251793.120000
    778    787     1   0.15110 237065.440000
    781    784     1   0.15375 251793.120000
    784    790     1   0.14316 258236.480000
    792    795     1   0.15375 251793.120000
    792    801     1   0.15110 237065.440000
    795    798     1   0.15375 251793.120000
    798    804     1   0.14316 258236.480000
    806    809     1   0.15375 251793.120000
    806    815     1   0.15110 237065.440000
    809    812     1   0.15375 251793.120000
    812    818     1   0.14316 258236.480000
    820    823     1   0.15375 251793.120000
    820    829     1   0.15110 237065.440000
    823    826     1   0.15375 251793.120000
    826    832     1   0.14316 258236.480000
    834    837     1   0.15375 251793.120000
    834    843     1   0.15110 237065.440000
    837    840     1   0.15375 251793.120000
    840    846     1   0.14316 258236.480000
    848    851     1   0.15375 251793.120000
    848    857     1   0.15110 237065.440000
    851    854     1   0.15375 251793.120000
    854    860     1   0.14316 258236.480000
    862    865     1   0.15375 251793.120000
    862    871     1   0.15110 237065.440000
    865    868     1   0.15375 251793.120000
    868    874     1   0.14316 258236.480000
    876    879     1   0.15375 251793.120000
    876    885     1   0.15110 237065.440000
    879    882     1   0.15375 251793.120000
    882    888     1   0.14316 258236.480000
    890    893     1   0.15375 251793.120000
    890    899     1   0.15110 237065.440000
    893    896     1   0.15375 251793.120000
    896    902     1   0.14316 258236.480000
    904    907     1   0.15375 251793.120000
    904    913     1   0.15110 237065.440000
    907    910     1   0.15375 251793.120000
    910    916     1   0.14316 258236.480000
    918    921     1   0.15375 251793.120000
    918    927     1   0.15110 237065.440000
    921    924     1   0.15375 251793.120000
    924    930     1   0.14316 258236.480000
    932    935     1   0.15375 251793.120000
    932    941     1   0.15110 237065.440000
    935    938     1   0.15375 251793.120000
    938    944     1   0.14316 258236.480000
    946    949     1   0.15375 251793.120000
    946    955     1   0.15110 237065.440000
    949    952     1   0.15375 251793.120000
    952    958     1   0.14316 258236.480000
    960    963     1   0.15375 251793.120000
    960    969     1   0.15110 237065.440000
    963    966     1   0.15375 251793.120000
    966    972     1   0.14316 258236.480000
      2      3     1   0.10969 276646.080000
      2      4     1   0.10969 276646.080000
      5      6     1   0.10969 276646.080000
      5      7     1   0.10969 276646.080000
      8      9     1   0.10969 276646.080000
      8     10     1   0.10969 276646.080000
     11     12     1   0.10969 276646.080000
     11     13     1   0.10969 276646.080000
     14     15     1   0.10969 276646.080000
     14     16     1   0.10969 276646.080000
     17     18     1   0.10969 276646.080000
     17     19     1   0.10969 276646.080000
     20     21     1   0.10969 276646.080000
     20     22     1   0.10969 276646.080000
     23     24     1   0.10969 276646.080000
     23     25     1   0.10969 276646.080000
     26     27     1   0.10969 276646.080000
     26     28     1   0.10969 276646.080000
     30     31     1   0.10969 276646.080000
     30     32     1   0.10969 276646.080000
     33     34     1   0.10969 276646.080000
     33     35     1   0.10969 276646.080000
     36     37     1   0.10969 276646.080000
     36     38     1   0.10969 276646.080000
     39     40     1   0.10969 276646.080000
     39     41     1   0.10969 276646.080000
     42     43     1   0.10969 276646.080000
     42     44     1   0.10969 276646.080000
     45     46     1   0.10969 276646.080000
     45     47     1   0.10969 276646.080000
     48     49     1   0.10969 276646.080000
     48     50     1   0.10969 276646.080000
     51     52     1   0.10969 276646.080000
     51     53     1   0.10969 276646.080000
     54     55     1   0.10969 276646.080000
     54     56     1   0.10969 276646.080000
     59     60     1   0.10969 276646.080000
     59     61     1   0.10969 276646.080000
     62     63     1   0.10969 276646.080000
     62     64     1   0.10969 276646.080000
     65     66     1   0.10969 276646.080000
     65     67     1   0.10969 276646.080000
     68     69     1   0.10969 276646.080000
     68     70     1   0.10969 276646.080000
     71     72     1   0.10969 276646.080000
     71     73     1   0.10969 276646.080000
     74     75     1   0.10969 276646.080000
     74     76     1   0.10969 276646.080000
     77     78     1   0.10969 276646.080000
     77     79     1   0.10969 276646.080000
     80     81     1   0.10969 276646.080000
     80     82     1   0.10969 276646.080000
     83     84     1   0.10969 276646.080000
     83     85     1   0.10969 276646.080000
     88     89     1   0.10969 276646.080000
     88     90     1   0.10969 276646.080000
     91     92     1   0.10969 276646.080000
     91     93     1   0.10969 276646.080000
     94     95     1   0.10969 276646.080000
     94     96     1   0.10969 276646.080000
     97     98     1   0.10969 276646.080000
     97     99     1   0.10969 276646.080000
    100    101     1   0.10969 276646.080000
    100    102     1   0.10969 276646.080000
    103    104     1   0.10969 276646.080000
    103    105     1   0.10969 276646.080000
    106    107     1   0.10969 276646.080000
    106    108     1   0.10969 276646.080000
    109    110     1   0.10969 276646.080000
    109    111     1   0.10969 276646.080000
    112    113     1   0.10969 276646.080000
    112    114     1   0.10969 276646.080000
    117    118     1   0.10969 276646.080000
    117    119     1   0.10969 276646.080000
    120    121     1   0.10969 276646.080000
    120    122     1   0.10969 276646.080000
    123    124     1   0.10969 276646.080000
    123    125     1   0.10969 276646.080000
    126    127     1   0.10969 276646.080000
    126    128     1   0.10969 276646.080000
    129    130     1   0.10969 276646.080000
    129    131     1   0.10969 276646.080000
    132    133     1   0.10969 276646.080000
    132    134     1   0.10969 276646.080000
    135    136     1   0.10969 276646.080000
    135    137     1   0.10969 276646.080000
    138    139     1   0.10969 276646.080000
    138    140     1   0.10969 276646.080000
    141    142     1   0.10969 276646.080000
    141    143     1   0.10969 276646.080000
    146    147     1   0.10969 276646.080000
    146    148     1   0.10969 276646.080000
    149    150     1   0.10969 276646.080000
    149    151     1   0.10969 276646.080000
    152    153     1   0.10969 276646.080000
    152    154     1   0.10969 276646.080000
    155    156     1   0.10969 276646.080000
    155    157     1   0.10969 276646.080000
    158    159     1   0.10969 276646.080000
    158    160     1   0.10969 276646.080000
    161    162     1   0.10969 276646.080000
    161    163     1   0.10969 276646.080000
    164    165     1   0.10969 276646.080000
    164    166     1   0.10969 276646.080000
    167    168     1   0.10969 276646.080000
    167    169     1   0.10969 276646.080000
    170    171     1   0.10969 276646.080000
    170    172     1   0.10969 276646.080000
    175    176     1   0.10969 276646.080000
    175    177     1   0.10969 276646.080000
    178    179     1   0.10969 276646.080000
    178    180     1   0.10969 276646.080000
    181    182     1   0.10969 276646.080000
    181    183     1   0.10969 276646.080000
    184    185     1   0.10969 276646.080000
    184    186     1   0.10969 276646.080000
    187    188     1   0.10969 276646.080000
    187    189     1   0.10969 276646.080000
    190    191     1   0.10969 276646.080000
    190    192     1   0.10969 276646.080000
    193    194     1   0.10969 276646.080000
    193    195     1   0.10969 276646.080000
    196    197     1   0.10969 276646.080000
    196    198     1   0.10969 276646.080000
    199    200     1   0.10969 276646.080000
    199    201     1   0.10969 276646.080000
    204    205     1   0.10969 276646.080000
    204    206     1   0.10969 276646.080000
    207    208     1   0.10969 276646.080000
    207    209     1   0.10969 276646.080000
    210    211     1   0.10969 276646.080000
    210    212     1   0.10969 276646.080000
    213    214     1   0.10969 276646.080000
    213    215     1   0.10969 276646.080000
    216    217     1   0.10969 276646.080000
    216    218     1   0.10969 276646.080000
    219    220     1   0.10969 276646.080000
    219    221     1   0.10969 276646.080000
    222    223     1   0.10969 276646.080000
    222    224     1   0.10969 276646.080000
    225    226     1   0.10969 276646.080000
    225    227     1   0.10969 276646.080000
    228    229     1   0.10969 276646.080000
    228    230     1   0.10969 276646.080000
    233    234     1   0.10969 276646.080000
    233    235     1   0.10969 276646.080000
    236    237     1   0.10969 276646.080000
    236    238     1   0.10969 276646.080000
    239    240     1   0.10969 276646.080000
    239    241     1   0.10969 276646.080000
    242    243     1   0.10969 276646.080000
    242    244     1   0.10969 276646.080000
    245    246     1   0.10969 276646.080000
    245    247     1   0.10969 276646.080000
    248    249     1   0.10969 276646.080000
    248    250     1   0.10969 276646.080000
    251    252     1   0.10969 276646.080000
    251    253     1   0.10969 276646.080000
    254    255     1   0.10969 276646.080000
    254    256     1   0.10969 276646.080000
    257    258     1   0.10969 276646.080000
    257    259     1   0.10969 276646.080000
    262    263     1   0.10969 276646.080000
    262    264     1   0.10969 276646.080000
    265    266     1   0.10969 276646.080000
    265    267     1   0.10969 276646.080000
    268    269     1   0.10969 276646.080000
    268    270     1   0.10969 276646.080000
    271    272     1   0.10969 276646.080000
    271    273     1   0.10969 276646.080000
    274    275     1   0.10969 276646.080000
    274    276     1   0.10969 276646.080000
    277    278     1   0.10969 276646.080000
    277    279     1   0.10969 276646.080000
    280    281     1   0.10969 276646.080000
    280    282     1   0.10969 276646.080000
    283    284     1   0.10969 276646.080000
    283    285     1   0.10969 276646.080000
    286    287     1   0.10969 276646.080000
    286    288     1   0.10969 276646.080000
    291    292     1   0.10969 276646.080000
    291    293     1   0.10969 276646.080000
    294    295     1   0.10969 276646.080000
    294    296     1   0.10969 276646.080000
    297    298     1   0.10969 276646.080000
    297    299     1   0.10969 276646.080000
    300    301     1   0.10969 276646.080000
    300    302     1   0.10969 276646.080000
    303    304     1   0.10969 276646.080000
    303    305     1   0.10969 276646.080000
    306    307     1   0.10969 276646.080000
    306    308     1   0.10969 276646.080000
    309    310     1   0.10969 276646.080000
    309    311     1   0.10969 276646.080000
    312    313     1   0.10969 276646.080000
    312    314     1   0.10969 276646.080000
    315    316     1   0.10969 276646.080000
    315    317     1   0.10969 276646.080000
    320    321     1   0.10969 276646.080000
    320    322     1   0.10969 276646.080000
    323    324     1   0.10969 276646.080000
    323    325     1   0.10969 276646.080000
    326    327     1   0.10969 276646.080000
    326    328     1   0.10969 276646.080000
    329    330     1   0.10969 276646.080000
    329    331     1   0.10969 276646.080000
    332    333     1   0.10969 276646.080000
    332    334     1   0.10969 276646.080000
    335    336     1   0.10969 276646.080000
    335    337     1   0.10969 276646.080000
    338    339     1   0.10969 276646.080000
    338    340     1   0.10969 276646.080000
    341    342     1   0.10969 276646.080000
    341    343     1   0.10969 276646.080000
    344    345     1   0.10969 276646.080000
    344    346     1   0.10969 276646.080000
    349    350     1   0.10969 276646.080000
    349    351     1   0.10969 276646.080000
    352    353     1   0.10969 276646.080000
    352    354     1   0.10969 276646.080000
    355    356     1   0.10969 276646.080000
    355    357     1   0.10969 276646.080000
    358    359     1   0.10969 276646.080000
    358    360     1   0.10969 276646.080000
    361    362     1   0.10969 276646.080000
    361    363     1   0.10969 276646.080000
    364    365     1   0.10969 276646.080000
    364    366     1   0.10969 276646.080000
    367    368     1   0.10969 276646.080000
    367    369     1   0.10969 276646.080000
    370    371     1   0.10969 276646.080000
    370    372     1   0.10969 276646.080000
    373    374     1   0.10969 276646.080000
    373    375     1   0.10969 276646.080000
    378    379     1   0.10969 276646.080000
    378    380     1   0.10969 276646.080000
    381    382     1   0.10969 276646.080000
    381    383     1   0.10969 276646.080000
    384    385     1   0.10969 276646.080000
    384    386     1   0.10969 276646.080000
    387    388     1   0.10969 276646.080000
    387    389     1   0.10969 276646.080000
    390    391     1   0.10969 276646.080000
    390    392     1   0.10969 276646.080000
    393    394     1   0.10969 276646.080000
    393    395     1   0.10969 276646.080000
    396    397     1   0.10969 276646.080000
    396    398     1   0.10969 276646.080000
    399    400     1   0.10969 276646.080000
    399    401     1   0.10969 276646.080000
    402    403     1   0.10969 276646.080000
    402    404     1   0.10969 276646.080000
    407    408     1   0.10969 276646.080000
    407    409     1   0.10969 276646.080000
    410    411     1   0.10969 276646.080000
    410    412     1   0.10969 276646.080000
    413    414     1   0.10969 276646.080000
    413    415     1   0.10969 276646.080000
    416    417     1   0.10969 276646.080000
    416    418     1   0.10969 276646.080000
    419    420     1   0.10969 276646.080000
    419    421     1   0.10969 276646.080000
    422    423     1   0.10969 276646.080000
    422    424     1   0.10969 276646.080000
    425    426     1   0.10969 276646.080000
    425    427     1   0.10969 276646.080000
    428    429     1   0.10969 276646.080000
    428    430     1   0.10969 276646.080000
    431    432     1   0.10969 276646.080000
    431    433     1   0.10969 276646.080000
    436    437     1   0.10969 276646.080000
    436    438     1   0.10969 276646.080000
    439    440     1   0.10969 276646.080000
    439    441     1   0.10969 276646.080000
    442    443     1   0.10969 276646.080000
    442    444     1   0.10969 276646.080000
    445    446     1   0.10969 276646.080000
    445    447     1   0.10969 276646.080000
    448    449     1   0.10969 276646.080000
    448    450     1   0.10969 276646.080000
    451    452     1   0.10969 276646.080000
    451    453     1   0.10969 276646.080000
    454    455     1   0.10969 276646.080000
    454    456     1   0.10969 276646.080000
    457    458     1   0.10969 276646.080000
    457    459     1   0.10969 276646.080000
    460    461     1   0.10969 276646.080000
    460    462     1   0.10969 276646.080000
    465    466     1   0.10969 276646.080000
    465    467     1   0.10969 276646.080000
    468    469     1   0.10969 276646.080000
    468    470     1   0.10969 276646.080000
    471    472     1   0.10969 276646.080000
    471    473     1   0.10969 276646.080000
    474    475     1   0.10969 276646.080000
    474    476     1   0.10969 276646.080000
    477    478     1   0.10969 276646.080000
    477    479     1   0.10969 276646.080000
    480    481     1   0.10969 276646.080000
    480    482     1   0.10969 276646.080000
    483    484     1   0.10969 276646.080000
    483    485     1   0.10969 276646.080000
    486    487     1   0.10969 276646.080000
    486    488     1   0.10969 276646.080000
    489    490     1   0.10969 276646.080000
    489    491     1   0.10969 276646.080000
    494    495     1   0.10969 276646.080000
    494    496     1   0.10969 276646.080000
    497    498     1   0.10969 276646.080000
    497    499     1   0.10969 276646.080000
    500    501     1   0.10969 276646.080000
    500    502     1   0.10969 276646.080000
    503    504     1   0.10969 276646.080000
    503    505     1   0.10969 276646.080000
    506    507     1   0.10969 276646.080000
    506    508     1   0.10969 276646.080000
    509    510     1   0.10969 276646.080000
    509    511     1   0.10969 276646.080000
    512    513     1   0.10969 276646.080000
    512    514     1   0.10969 276646.080000
    515    516     1   0.10969 276646.080000
    515    517     1   0.10969 276646.080000
    518    519     1   0.10969 276646.080000
    518    520     1   0.10969 276646.080000
    523    524     1   0.10969 276646.080000
    523    525     1   0.10969 276646.080000
    526    527     1   0.10969 276646.080000
    526    528     1   0.10969 276646.080000
    529    530     1   0.10969 276646.080000
    529    531     1   0.10969 276646.080000
    532    533     1   0.10969 276646.080000
    532    534     1   0.10969 276646.080000
    535    536     1   0.10969 276646.080000
    535    537     1   0.10969 276646.080000
    538    539     1   0.10969 276646.080000
    538    540     1   0.10969 276646.080000
    541    542     1   0.10969 276646.080000
    541    543     1   0.10969 276646.080000
    544    545     1   0.10969 276646.080000
    544    546     1   0.10969 276646.080000
    547    548     1   0.10969 276646.080000
    547    549     1   0.10969 276646.080000
    552    553     1   0.10969 276646.080000
    552    554     1   0.10969 276646.080000
    555    556     1   0.10969 276646.080000
    555    557     1   0.10969 276646.080000
    558    559     1   0.10969 276646.080000
    558    560     1   0.10969 276646.080000
    561    562     1   0.10969 276646.080000
    561    563     1   0.10969 276646.080000
    564    565     1   0.10969 276646.080000
    564    566     1   0.10969 276646.080000
    567    568     1   0.10969 276646.080000
    567    569     1   0.10969 276646.080000
    570    571     1   0.10969 276646.080000
    570    572     1   0.10969 276646.080000
    573    574     1   0.10969 276646.080000
    573    575     1   0.10969 276646.080000
    576    577     1   0.10969 276646.080000
    576    578     1   0.10969 276646.080000
    581    582     1   0.10969 276646.080000
    581    583     1   0.10969 276646.080000
    584    585     1   0.10969 276646.080000
    584    586     1   0.10969 276646.080000
    587    588     1   0.10969 276646.080000
    587    589     1   0.10969 276646.080000
    590    591     1   0.10969 276646.080000
    590    592     1   0.10969 276646.080000
    593    594     1   0.10969 276646.080000
    593    595     1   0.10969 276646.080000
    596    597     1   0.10969 276646.080000
    596    598     1   0.10969 276646.080000
    599    600     1   0.10969 276646.080000
    599    601     1   0.10969 276646.080000
    602    603     1   0.10969 276646.080000
    602    604     1   0.10969 276646.080000
    605    606     1   0.10969 276646.080000
    605    607     1   0.10969 276646.080000
    610    611     1   0.10969 276646.080000
    610    612     1   0.10969 276646.080000
    613    614     1   0.10969 276646.080000
    613    615     1   0.10969 276646.080000
    616    617     1   0.10969 276646.080000
    616    618     1   0.10969 276646.080000
    619    620     1   0.10969 276646.080000
    619    621     1   0.10969 276646.080000
    622    623     1   0.10969 276646.080000
    622    624     1   0.10969 276646.080000
    625    626     1   0.10969 276646.080000
    625    627     1   0.10969 276646.080000
    628    629     1   0.10969 276646.080000
    628    630     1   0.10969 276646.080000
    631    632     1   0.10969 276646.080000
    631    633     1   0.10969 276646.080000
    634    635     1   0.10969 276646.080000
    634    636     1   0.10969 276646.080000
    638    639     1   0.10910 283424.160000
    638    640     1   0.10910 283424.160000
    641    642     1   0.10969 276646.080000
    641    643     1   0.10969 276646.080000
    644    645     1   0.10969 276646.080000
    644    646     1   0.10969 276646.080000
    647    648     1   0.10304 312293.760000
    647    649     1   0.10304 312293.760000
    647    651     1   0.10304 312293.760000
    652    653     1   0.10910 283424.160000
    652    654     1   0.10910 283424.160000
    655    656     1   0.10969 276646.080000
    655    657     1   0.10969 276646.080000
    658    659     1   0.10969 276646.080000
    658    660     1   0.10969 276646.080000
    661    662     1   0.10304 312293.760000
    661    663     1   0.10304 312293.760000
    661    665     1   0.10304 312293.760000
    666    667     1   0.10910 283424.160000
    666    668     1   0.10910 283424.160000
    669    670     1   0.10969 276646.080000
    669    671     1   0.10969 276646.080000
    672    673     1   0.10969 276646.080000
    672    674     1   0.10969 276646.080000
    675    676     1   0.10304 312293.760000
    675    677     1   0.10304 312293.760000
    675    679     1   0.10304 312293.760000
    680    681     1   0.10910 283424.160000
    680    682     1   0.10910 283424.160000
    683    684     1   0.10969 276646.080000
    683    685     1   0.10969 276646.080000
    686    687     1   0.10969 276646.080000
    686    688     1   0.10969 276646.080000
    689    690     1   0.10304 312293.760000
    689    691     1   0.10304 312293.760000
    689    693     1   0.10304 312293.760000
    694    695     1   0.10910 283424.160000
    694    696     1   0.10910 283424.160000
    697    698     1   0.10969 276646.080000
    697    699     1   0.10969 276646.080000
    700    701     1   0.10969 276646.080000
    700    702     1   0.10969 276646.080000
    703    704     1   0.10304 312293.760000
    703    705     1   0.10304 312293.760000
    703    707     1   0.10304 312293.760000
    708    709     1   0.10910 283424.160000
    708    710     1   0.10910 283424.160000
    711    712     1   0.10969 276646.080000
    711    713     1   0.10969 276646.080000
    714    715     1   0.10969 276646.080000
    714    716     1   0.10969 276646.080000
    717    718     1   0.10304 312293.760000
    717    719     1   0.10304 312293.760000
    717    721     1   0.10304 312293.760000
    722    723     1   0.10910 283424.160000
    722    724     1   0.10910 283424.160000
    725    726     1   0.10969 276646.080000
    725    727     1   0.10969 276646.080000
    728    729     1   0.10969 276646.080000
    728    730     1   0.10969 276646.080000
    731    732     1   0.10304 312293.760000
    731    733     1   0.10304 312293.760000
    731    735     1   0.10304 312293.760000
    736    737     1   0.10910 283424.160000
    736    738     1   0.10910 283424.160000
    739    740     1   0.10969 276646.080000
    739    741     1   0.10969 276646.080000
    742    743     1   0.10969 276646.080000
    742    744     1   0.10969 276646.080000
    745    746     1   0.10304 312293.760000
    745    747     1   0.10304 312293.760000
    745    749     1   0.10304 312293.760000
    750    751     1   0.10910 283424.160000
    750    752     1   0.10910 283424.160000
    753    754     1   0.10969 276646.080000
    753    755     1   0.10969 276646.080000
    756    757     1   0.10969 276646.080000
    756    758     1   0.10969 276646.080000
    759    760     1   0.10304 312293.760000
    759    761     1   0.10304 312293.760000
    759    763     1   0.10304 312293.760000
    764    765     1   0.10910 283424.160000
    764    766     1   0.10910 283424.160000
    767    768     1   0.10969 276646.080000
    767    769     1   0.10969 276646.080000
    770    771     1   0.10969 276646.080000
    770    772     1   0.10969 276646.080000
    773    774     1   0.10304 312293.760000
    773    775     1   0.10304 312293.760000
    773    777     1   0.10304 312293.760000
    778    779     1   0.10910 283424.160000
    778    780     1   0.10910 283424.160000
    781    782     1   0.10969 276646.080000
    781    783     1   0.10969 276646.080000
    784    785     1   0.10969 276646.080000
    784    786     1   0.10969 276646.080000
    787    788     1   0.10304 312293.760000
    787    789     1   0.10304 312293.760000
    787    791     1   0.10304 312293.760000
    792    793     1   0.10910 283424.160000
    792    794     1   0.10910 283424.160000
    795    796     1   0.10969 276646.080000
    795    797     1   0.10969 276646.080000
    798    799     1   0.10969 276646.080000
    798    800     1   0.10969 276646.080000
    801    802     1   0.10304 312293.760000
    801    803     1   0.10304 312293.760000
    801    805     1   0.10304 312293.760000
    806    807     1   0.10910 283424.160000
    806    808     1   0.10910 283424.160000
    809    810     1   0.10969 276646.080000
    809    811     1   0.10969 276646.080000
    812    813     1   0.10969 276646.080000
    812    814     1   0.10969 276646.080000
    815    816     1   0.10304 312293.760000
    815    817     1   0.10304 312293.760000
    815    819     1   0.10304 312293.760000
    820    821     1   0.10910 283424.160000
    820    822     1   0.10910 283424.160000
    823    824     1   0.10969 276646.080000
    823    825     1   0.10969 276646.080000
    826    827     1   0.10969 276646.080000
    826    828     1   0.10969 276646.080000
    829    830     1   0.10304 312293.760000
    829    831     1   0.10304 312293.760000
    829    833     1   0.10304 312293.760000
    834    835     1   0.10910 283424.160000
    834    836     1   0.10910 283424.160000
    837    838     1   0.10969 276646.080000
    837    839     1   0.10969 276646.080000
    840    841     1   0.10969 276646.080000
    840    842     1   0.10969 276646.080000
    843    844     1   0.10304 312293.760000
    843    845     1   0.10304 312293.760000
    843    847     1   0.10304 312293.760000
    848    849     1   0.10910 283424.160000
    848    850     1   0.10910 283424.160000
    851    852     1   0.10969 276646.080000
    851    853     1   0.10969 276646.080000
    854    855     1   0.10969 276646.080000
    854    856     1   0.10969 276646.080000
    857    858     1   0.10304 312293.760000
    857    859     1   0.10304 312293.760000
    857    861     1   0.10304 312293.760000
    862    863     1   0.10910 283424.160000
    862    864     1   0.10910 283424.160000
    865    866     1   0.10969 276646.080000
    865    867     1   0.10969 276646.080000
    868    869     1   0.10969 276646.080000
    868    870     1   0.10969 276646.080000
    871    872     1   0.10304 312293.760000
    871    873     1   0.10304 312293.760000
    871    875     1   0.10304 312293.760000
    876    877     1   0.10910 283424.160000
    876    878     1   0.10910 283424.160000
    879    880     1   0.10969 276646.080000
    879    881     1   0.10969 276646.080000
    882    883     1   0.10969 276646.080000
    882    884     1   0.10969 276646.080000
    885    886     1   0.10304 312293.760000
    885    887     1   0.10304 312293.760000
    885    889     1   0.10304 312293.760000
    890    891     1   0.10910 283424.160000
    890    892     1   0.10910 283424.160000
    893    894     1   0.10969 276646.080000
    893    895     1   0.10969 276646.080000
    896    897     1   0.10969 276646.080000
    896    898     1   0.10969 276646.080000
    899    900     1   0.10304 312293.760000
    899    901     1   0.10304 312293.760000
    899    903     1   0.10304 312293.760000
    904    905     1   0.10910 283424.160000
    904    906     1   0.10910 283424.160000
    907    908     1   0.10969 276646.080000
    907    909     1   0.10969 276646.080000
    910    911     1   0.10969 276646.080000
    910    912     1   0.10969 276646.080000
    913    914     1   0.10304 312293.760000
    913    915     1   0.10304 312293.760000
    913    917     1   0.10304 312293.760000
    918    919     1   0.10910 283424.160000
    918    920     1   0.10910 283424.160000
    921    922     1   0.10969 276646.080000
    921    923     1   0.10969 276646.080000
    924    925     1   0.10969 276646.080000
    924    926     1   0.10969 276646.080000
    927    928     1   0.10304 312293.760000
    927    929     1   0.10304 312293.760000
    927    931     1   0.10304 312293.760000
    932    933     1   0.10910 283424.160000
    932    934     1   0.10910 283424.160000
    935    936     1   0.10969 276646.080000
    935    937     1   0.10969 276646.080000
    938    939     1   0.10969 276646.080000
    938    940     1   0.10969 276646.080000
    941    942     1   0.10304 312293.760000
    941    943     1   0.10304 312293.760000
    941    945     1   0.10304 312293.760000
    946    947     1   0.10910 283424.160000
    946    948     1   0.10910 283424.160000
    949    950     1   0.10969 276646.080000
    949    951     1   0.10969 276646.080000
    952    953     1   0.10969 276646.080000
    952    954     1   0.10969 276646.080000
    955    956     1   0.10304 312293.760000
    955    957     1   0.10304 312293.760000
    955    959     1   0.10304 312293.760000
    960    961     1   0.10910 283424.160000
    960    962     1   0.10910 283424.160000
    963    964     1   0.10969 276646.080000
    963    965     1   0.10969 276646.080000
    966    967     1   0.10969 276646.080000
    966    968     1   0.10969 276646.080000
    969    970     1   0.10304 312293.760000
    969    971     1   0.10304 312293.760000
    969    973     1   0.10304 312293.760000

[ pairs ]
;    ai     aj funct         c0         c1         c2         c3
      1     26     1
      1     20     1
      1     23     1
      2     17     1
      2     11     1
      2    115     1
      5     14     1
      5     11     1
      5     57     1
      8     14     1
      8     17     1
      8     86     1
     11     77     1
     14    106     1
     17     48     1
     20     39     1
     23     68     1
     26     97     1
     29     54     1
     29     51     1
     29     48     1
     30     45     1
     30     39     1
     30    173     1
     33     42     1
     33     39     1
     33    144     1
     36     42     1
     36     45     1
     36     57     1
     42    164     1
     45    135     1
     51    126     1
     54    155     1
     58     83     1
     58     80     1
     58     77     1
     59     74     1
     59     68     1
     59    231     1
     62     71     1
     62     68     1
     62    202     1
     65     71     1
     65     74     1
     65     86     1
     71    222     1
     74    193     1
     80    184     1
     83    213     1
     87    112     1
     87    109     1
     87    106     1
     88    103     1
     88     97     1
     88    289     1
     91    100     1
     91     97     1
     91    260     1
     94    100     1
     94    103     1
     94    115     1
    100    280     1
    103    251     1
    109    242     1
    112    271     1
    116    141     1
    116    138     1
    116    135     1
    117    132     1
    117    126     1
    117    347     1
    120    129     1
    120    126     1
    120    318     1
    123    129     1
    123    132     1
    123    144     1
    129    338     1
    132    309     1
    138    300     1
    141    329     1
    145    170     1
    145    167     1
    145    164     1
    146    161     1
    146    155     1
    146    405     1
    149    158     1
    149    155     1
    149    376     1
    152    158     1
    152    161     1
    152    173     1
    158    396     1
    161    367     1
    167    358     1
    170    387     1
    174    199     1
    174    196     1
    174    193     1
    175    190     1
    175    184     1
    175    463     1
    178    187     1
    178    184     1
    178    434     1
    181    187     1
    181    190     1
    181    202     1
    187    454     1
    190    425     1
    196    416     1
    199    445     1
    203    228     1
    203    225     1
    203    222     1
    204    219     1
    204    213     1
    204    521     1
    207    216     1
    207    213     1
    207    492     1
    210    216     1
    210    219     1
    210    231     1
    216    512     1
    219    483     1
    225    474     1
    228    503     1
    232    257     1
    232    254     1
    232    251     1
    233    248     1
    233    242     1
    233    579     1
    236    245     1
    236    242     1
    236    550     1
    239    245     1
    239    248     1
    239    260     1
    245    570     1
    248    541     1
    254    532     1
    257    561     1
    261    286     1
    261    283     1
    261    280     1
    262    277     1
    262    271     1
    262    637     1
    265    274     1
    265    271     1
    265    608     1
    268    274     1
    268    277     1
    268    289     1
    274    628     1
    277    599     1
    283    590     1
    286    619     1
    290    315     1
    290    312     1
    290    309     1
    291    306     1
    291    300     1
    291    664     1
    294    303     1
    294    300     1
    294    650     1
    297    303     1
    297    306     1
    297    318     1
    303    658     1
    306    644     1
    312    641     1
    315    655     1
    319    344     1
    319    341     1
    319    338     1
    320    335     1
    320    329     1
    320    692     1
    323    332     1
    323    329     1
    323    678     1
    326    332     1
    326    335     1
    326    347     1
    332    686     1
    335    672     1
    341    669     1
    344    683     1
    348    373     1
    348    370     1
    348    367     1
    349    364     1
    349    358     1
    349    720     1
    352    361     1
    352    358     1
    352    706     1
    355    361     1
    355    364     1
    355    376     1
    361    714     1
    364    700     1
    370    697     1
    373    711     1
    377    402     1
    377    399     1
    377    396     1
    378    393     1
    378    387     1
    378    748     1
    381    390     1
    381    387     1
    381    734     1
    384    390     1
    384    393     1
    384    405     1
    390    742     1
    393    728     1
    399    725     1
    402    739     1
    406    431     1
    406    428     1
    406    425     1
    407    422     1
    407    416     1
    407    776     1
    410    419     1
    410    416     1
    410    762     1
    413    419     1
    413    422     1
    413    434     1
    419    770     1
    422    756     1
    428    753     1
    431    767     1
    435    460     1
    435    457     1
    435    454     1
    436    451     1
    436    445     1
    436    804     1
    439    448     1
    439    445     1
    439    790     1
    442    448     1
    442    451     1
    442    463     1
    448    798     1
    451    784     1
    457    781     1
    460    795     1
    464    489     1
    464    486     1
    464    483     1
    465    480     1
    465    474     1
    465    832     1
    468    477     1
    468    474     1
    468    818     1
    471    477     1
    471    480     1
    471    492     1
    477    826     1
    480    812     1
    486    809     1
    489    823     1
    493    518     1
    493    515     1
    493    512     1
    494    509     1
    494    503     1
    494    860     1
    497    506     1
    497    503     1
    497    846     1
    500    506     1
    500    509     1
    500    521     1
    506    854     1
    509    840     1
    515    837     1
    518    851     1
    522    547     1
    522    544     1
    522    541     1
    523    538     1
    523    532     1
    523    888     1
    526    535     1
    526    532     1
    526    874     1
    529    535     1
    529    538     1
    529    550     1
    535    882     1
    538    868     1
    544    865     1
    547    879     1
    551    576     1
    551    573     1
    551    570     1
    552    567     1
    552    561     1
    552    916     1
    555    564     1
    555    561     1
    555    902     1
    558    564     1
    558    567     1
    558    579     1
    564    910     1
    567    896     1
    573    893     1
    576    907     1
    580    605     1
    580    602     1
    580    599     1
    581    596     1
    581    590     1
    581    944     1
    584    593     1
    584    590     1
    584    930     1
    587    593     1
    587    596     1
    587    608     1
    593    938     1
    596    924     1
    602    921     1
    605    935     1
    609    634     1
    609    631     1
    609    628     1
    610    625     1
    610    619     1
    610    972     1
    613    622     1
    613    619     1
    613    958     1
    616    622     1
    616    625     1
    616    637     1
    622    966     1
    625    952     1
    631    949     1
    634    963     1
    638    650     1
    644    647     1
    652    664     1
    658    661     1
    666    678     1
    672    675     1
    680    692     1
    686    689     1
    694    706     1
    700    703     1
    708    720     1
    714    717     1
    722    734     1
    728    731     1
    736    748     1
    742    745     1
    750    762     1
    756    759     1
    764    776     1
    770    773     1
    778    790     1
    784    787     1
    792    804     1
    798    801     1
    806    818     1
    812    815     1
    820    832     1
    826    829     1
    834    846     1
    840    843     1
    848    860     1
    854    857     1
    862    874     1
    868    871     1
    876    888     1
    882    885     1
    890    902     1
    896    899     1
    904    916     1
    910    913     1
    918    930     1
    924    927     1
    932    944     1
    938    941     1
    946    958     1
    952    955     1
    960    972     1
    966    969     1
      1     15     1
      1     16     1
      1     18     1
      1     19     1
      1     12     1
      1     13     1
      2      6     1
      2      7     1
      2      9     1
      2     10     1
      2     27     1
      2     28     1
      5      3     1
      8      3     1
      3     26     1
      3     15     1
      3     16     1
      5      4     1
      8      4     1
      4     26     1
      4     15     1
      4     16     1
      5      9     1
      5     10     1
      5     21     1
      5     22     1
      8      6     1
      6     20     1
      6     18     1
      6     19     1
      8      7     1
      7     20     1
      7     18     1
      7     19     1
      8     24     1
      8     25     1
      9     23     1
      9     12     1
      9     13     1
     10     23     1
     10     12     1
     10     13     1
     12     86     1
     12     24     1
     12     25     1
     13     86     1
     13     24     1
     13     25     1
     15    115     1
     15     27     1
     15     28     1
     16    115     1
     16     27     1
     16     28     1
     18     57     1
     18     21     1
     18     22     1
     19     57     1
     19     21     1
     19     22     1
     20     49     1
     20     50     1
     21     48     1
     22     48     1
     23     78     1
     23     79     1
     24     77     1
     25     77     1
     26    107     1
     26    108     1
     27    106     1
     28    106     1
     29     43     1
     29     44     1
     29     46     1
     29     47     1
     29     40     1
     29     41     1
     30     34     1
     30     35     1
     30     37     1
     30     38     1
     30     55     1
     30     56     1
     31     33     1
     31     36     1
     31     54     1
     31     43     1
     31     44     1
     32     33     1
     32     36     1
     32     54     1
     32     43     1
     32     44     1
     33     37     1
     33     38     1
     33     52     1
     33     53     1
     34     36     1
     34     51     1
     34     46     1
     34     47     1
     35     36     1
     35     51     1
     35     46     1
     35     47     1
     36     49     1
     36     50     1
     37     48     1
     37     40     1
     37     41     1
     38     48     1
     38     40     1
     38     41     1
     40     57     1
     40     49     1
     40     50     1
     41     57     1
     41     49     1
     41     50     1
     43    173     1
     43     55     1
     43     56     1
     44    173     1
     44     55     1
     44     56     1
     46    144     1
     46     52     1
     46     53     1
     47    144     1
     47     52     1
     47     53     1
     51    136     1
     51    137     1
     52    135     1
     53    135     1
     54    165     1
     54    166     1
     55    164     1
     56    164     1
     58     72     1
     58     73     1
     58     75     1
     58     76     1
     58     69     1
     58     70     1
     59     63     1
     59     64     1
     59     66     1
     59     67     1
     59     84     1
     59     85     1
     60     62     1
     60     65     1
     60     83     1
     60     72     1
     60     73     1
     61     62     1
     61     65     1
     61     83     1
     61     72     1
     61     73     1
     62     66     1
     62     67     1
     62     81     1
     62     82     1
     63     65     1
     63     80     1
     63     75     1
     63     76     1
     64     65     1
     64     80     1
     64     75     1
     64     76     1
     65     78     1
     65     79     1
     66     77     1
     66     69     1
     66     70     1
     67     77     1
     67     69     1
     67     70     1
     69     86     1
     69     78     1
     69     79     1
     70     86     1
     70     78     1
     70     79     1
     72    231     1
     72     84     1
     72     85     1
     73    231     1
     73     84     1
     73     85     1
     75    202     1
     75     81     1
     75     82     1
     76    202     1
     76     81     1
     76     82     1
     80    194     1
     80    195     1
     81    193     1
     82    193     1
     83    223     1
     83    224     1
     84    222     1
     85    222     1
     87    101     1
     87    102     1
     87    104     1
     87    105     1
     87     98     1
     87     99     1
     88     92     1
     88     93     1
     88     95     1
     88     96     1
     88    113     1
     88    114     1
     89     91     1
     89     94     1
     89    112     1
     89    101     1
     89    102     1
     90     91     1
     90     94     1
     90    112     1
     90    101     1
     90    102     1
     91     95     1
     91     96     1
     91    110     1
     91    111     1
     92     94     1
     92    109     1
     92    104     1
     92    105     1
     93     94     1
     93    109     1
     93    104     1
     93    105     1
     94    107     1
     94    108     1
     95    106     1
     95     98     1
     95     99     1
     96    106     1
     96     98     1
     96     99     1
     98    115     1
     98    107     1
     98    108     1
     99    115     1
     99    107     1
     99    108     1
    101    289     1
    101    113     1
    101    114     1
    102    289     1
    102    113     1
    102    114     1
    104    260     1
    104    110     1
    104    111     1
    105    260     1
    105    110     1
    105    111     1
    109    252     1
    109    253     1
    110    251     1
    111    251     1
    112    281     1
    112    282     1
    113    280     1
    114    280     1
    116    130     1
    116    131     1
    116    133     1
    116    134     1
    116    127     1
    116    128     1
    117    121     1
    117    122     1
    117    124     1
    117    125     1
    117    142     1
    117    143     1
    118    120     1
    118    123     1
    118    141     1
    118    130     1
    118    131     1
    119    120     1
    119    123     1
    119    141     1
    119    130     1
    119    131     1
    120    124     1
    120    125     1
    120    139     1
    120    140     1
    121    123     1
    121    138     1
    121    133     1
    121    134     1
    122    123     1
    122    138     1
    122    133     1
    122    134     1
    123    136     1
    123    137     1
    124    135     1
    124    127     1
    124    128     1
    125    135     1
    125    127     1
    125    128     1
    127    144     1
    127    136     1
    127    137     1
    128    144     1
    128    136     1
    128    137     1
    130    347     1
    130    142     1
    130    143     1
    131    347     1
    131    142     1
    131    143     1
    133    318     1
    133    139     1
    133    140     1
    134    318     1
    134    139     1
    134    140     1
    138    310     1
    138    311     1
    139    309     1
    140    309     1
    141    339     1
    141    340     1
    142    338     1
    143    338     1
    145    159     1
    145    160     1
    145    162     1
    145    163     1
    145    156     1
    145    157     1
    146    150     1
    146    151     1
    146    153     1
    146    154     1
    146    171     1
    146    172     1
    147    149     1
    147    152     1
    147    170     1
    147    159     1
    147    160     1
    148    149     1
    148    152     1
    148    170     1
    148    159     1
    148    160     1
    149    153     1
    149    154     1
    149    168     1
    149    169     1
    150    152     1
    150    167     1
    150    162     1
    150    163     1
    151    152     1
    151    167     1
    151    162     1
    151    163     1
    152    165     1
    152    166     1
    153    164     1
    153    156     1
    153    157     1
    154    164     1
    154    156     1
    154    157     1
    156    173     1
    156    165     1
    156    166     1
    157    173     1
    157    165     1
    157    166     1
    159    405     1
    159    171     1
    159    172     1
    160    405     1
    160    171     1
    160    172     1
    162    376     1
    162    168     1
    162    169     1
    163    376     1
    163    168     1
    163    169     1
    167    368     1
    167    369     1
    168    367     1
    169    367     1
    170    397     1
    170    398     1
    171    396     1
    172    396     1
    174    188     1
    174    189     1
    174    191     1
    174    192     1
    174    185     1
    174    186     1
    175    179     1
    175    180     1
    175    182     1
    175    183     1
    175    200     1
    175    201     1
    176    178     1
    176    181     1
    176    199     1
    176    188     1
    176    189     1
    177    178     1
    177    181     1
    177    199     1
    177    188     1
    177    189     1
    178    182     1
    178    183     1
    178    197     1
    178    198     1
    179    181     1
    179    196     1
    179    191     1
    179    192     1
    180    181     1
    180    196     1
    180    191     1
    180    192     1
    181    194     1
    181    195     1
    182    193     1
    182    185     1
    182    186     1
    183    193     1
    183    185     1
    183    186     1
    185    202     1
    185    194     1
    185    195     1
    186    202     1
    186    194     1
    186    195     1
    188    463     1
    188    200     1
    188    201     1
    189    463     1
    189    200     1
    189    201     1
    191    434     1
    191    197     1
    191    198     1
    192    434     1
    192    197     1
    192    198     1
    196    426     1
    196    427     1
    197    425     1
    198    425     1
    199    455     1
    199    456     1
    200    454     1
    201    454     1
    203    217     1
    203    218     1
    203    220     1
    203    221     1
    203    214     1
    203    215     1
    204    208     1
    204    209     1
    204    211     1
    204    212     1
    204    229     1
    204    230     1
    205    207     1
    205    210     1
    205    228     1
    205    217     1
    205    218     1
    206    207     1
    206    210     1
    206    228     1
    206    217     1
    206    218     1
    207    211     1
    207    212     1
    207    226     1
    207    227     1
    208    210     1
    208    225     1
    208    220     1
    208    221     1
    209    210     1
    209    225     1
    209    220     1
    209    221     1
    210    223     1
    210    224     1
    211    222     1
    211    214     1
    211    215     1
    212    222     1
    212    214     1
    212    215     1
    214    231     1
    214    223     1
    214    224     1
    215    231     1
    215    223     1
    215    224     1
    217    521     1
    217    229     1
    217    230     1
    218    521     1
    218    229     1
    218    230     1
    220    492     1
    220    226     1
    220    227     1
    221    492     1
    221    226     1
    221    227     1
    225    484     1
    225    485     1
    226    483     1
    227    483     1
    228    513     1
    228    514     1
    229    512     1
    230    512     1
    232    246     1
    232    247     1
    232    249     1
    232    250     1
    232    243     1
    232    244     1
    233    237     1
    233    238     1
    233    240     1
    233    241     1
    233    258     1
    233    259     1
    234    236     1
    234    239     1
    234    257     1
    234    246     1
    234    247     1
    235    236     1
    235    239     1
    235    257     1
    235    246     1
    235    247     1
    236    240     1
    236    241     1
    236    255     1
    236    256     1
    237    239     1
    237    254     1
    237    249     1
    237    250     1
    238    239     1
    238    254     1
    238    249     1
    238    250     1
    239    252     1
    239    253     1
    240    251     1
    240    243     1
    240    244     1
    241    251     1
    241    243     1
    241    244     1
    243    260     1
    243    252     1
    243    253     1
    244    260     1
    244    252     1
    244    253     1
    246    579     1
    246    258     1
    246    259     1
    247    579     1
    247    258     1
    247    259     1
    249    550     1
    249    255     1
    249    256     1
    250    550     1
    250    255     1
    250    256     1
    254    542     1
    254    543     1
    255    541     1
    256    541     1
    257    571     1
    257    572     1
    258    570     1
    259    570     1
    261    275     1
    261    276     1
    261    278     1
    261    279     1
    261    272     1
    261    273     1
    262    266     1
    262    267     1
    262    269     1
    262    270     1
    262    287     1
    262    288     1
    263    265     1
    263    268     1
    263    286     1
    263    275     1
    263    276     1
    264    265     1
    264    268     1
    264    286     1
    264    275     1
    264    276     1
    265    269     1
    265    270     1
    265    284     1
    265    285     1
    266    268     1
    266    283     1
    266    278     1
    266    279     1
    267    268     1
    267    283     1
    267    278     1
    267    279     1
    268    281     1
    268    282     1
    269    280     1
    269    272     1
    269    273     1
    270    280     1
    270    272     1
    270    273     1
    272    289     1
    272    281     1
    272    282     1
    273    289     1
    273    281     1
    273    282     1
    275    637     1
    275    287     1
    275    288     1
    276    637     1
    276    287     1
    276    288     1
    278    608     1
    278    284     1
    278    285     1
    279    608     1
    279    284     1
    279    285     1
    283    600     1
    283    601     1
    284    599     1
    285    599     1
    286    629     1
    286    630     1
    287    628     1
    288    628     1
    290    304     1
    290    305     1
    290    307     1
    290    308     1
    290    301     1
    290    302     1
    291    295     1
    291    296     1
    291    298     1
    291    299     1
    291    316     1
    291    317     1
    292    294     1
    292    297     1
    292    315     1
    292    304     1
    292    305     1
    293    294     1
    293    297     1
    293    315     1
    293    304     1
    293    305     1
    294    298     1
    294    299     1
    294    313     1
    294    314     1
    295    297     1
    295    312     1
    295    307     1
    295    308     1
    296    297     1
    296    312     1
    296    307     1
    296    308     1
    297    310     1
    297    311     1
    298    309     1
    298    301     1
    298    302     1
    299    309     1
    299    301     1
    299    302     1
    301    318     1
    301    310     1
    301    311     1
    302    318     1
    302    310     1
    302    311     1
    304    664     1
    304    316     1
    304    317     1
    305    664     1
    305    316     1
    305    317     1
    307    650     1
    307    313     1
    307    314     1
    308    650     1
    308    313     1
    308    314     1
    312    645     1
    312    646     1
    313    644     1
    314    644     1
    315    659     1
    315    660     1
    316    658     1
    317    658     1
    319    333     1
    319    334     1
    319    336     1
    319    337     1
    319    330     1
    319    331     1
    320    324     1
    320    325     1
    320    327     1
    320    328     1
    320    345     1
    320    346     1
    321    323     1
    321    326     1
    321    344     1
    321    333     1
    321    334     1
    322    323     1
    322    326     1
    322    344     1
    322    333     1
    322    334     1
    323    327     1
    323    328     1
    323    342     1
    323    343     1
    324    326     1
    324    341     1
    324    336     1
    324    337     1
    325    326     1
    325    341     1
    325    336     1
    325    337     1
    326    339     1
    326    340     1
    327    338     1
    327    330     1
    327    331     1
    328    338     1
    328    330     1
    328    331     1
    330    347     1
    330    339     1
    330    340     1
    331    347     1
    331    339     1
    331    340     1
    333    692     1
    333    345     1
    333    346     1
    334    692     1
    334    345     1
    334    346     1
    336    678     1
    336    342     1
    336    343     1
    337    678     1
    337    342     1
    337    343     1
    341    673     1
    341    674     1
    342    672     1
    343    672     1
    344    687     1
    344    688     1
    345    686     1
    346    686     1
    348    362     1
    348    363     1
    348    365     1
    348    366     1
    348    359     1
    348    360     1
    349    353     1
    349    354     1
    349    356     1
    349    357     1
    349    374     1
    349    375     1
    350    352     1
    350    355     1
    350    373     1
    350    362     1
    350    363     1
    351    352     1
    351    355     1
    351    373     1
    351    362     1
    351    363     1
    352    356     1
    352    357     1
    352    371     1
    352    372     1
    353    355     1
    353    370     1
    353    365     1
    353    366     1
    354    355     1
    354    370     1
    354    365     1
    354    366     1
    355    368     1
    355    369     1
    356    367     1
    356    359     1
    356    360     1
    357    367     1
    357    359     1
    357    360     1
    359    376     1
    359    368     1
    359    369     1
    360    376     1
    360    368     1
    360    369     1
    362    720     1
    362    374     1
    362    375     1
    363    720     1
    363    374     1
    363    375     1
    365    706     1
    365    371     1
    365    372     1
    366    706     1
    366    371     1
    366    372     1
    370    701     1
    370    702     1
    371    700     1
    372    700     1
    373    715     1
    373    716     1
    374    714     1
    375    714     1
    377    391     1
    377    392     1
    377    394     1
    377    395     1
    377    388     1
    377    389     1
    378    382     1
    378    383     1
    378    385     1
    378    386     1
    378    403     1
    378    404     1
    379    381     1
    379    384     1
    379    402     1
    379    391     1
    379    392     1
    380    381     1
    380    384     1
    380    402     1
    380    391     1
    380    392     1
    381    385     1
    381    386     1
    381    400     1
    381    401     1
    382    384     1
    382    399     1
    382    394     1
    382    395     1
    383    384     1
    383    399     1
    383    394     1
    383    395     1
    384    397     1
    384    398     1
    385    396     1
    385    388     1
    385    389     1
    386    396     1
    386    388     1
    386    389     1
    388    405     1
    388    397     1
    388    398     1
    389    405     1
    389    397     1
    389    398     1
    391    748     1
    391    403     1
    391    404     1
    392    748     1
    392    403     1
    392    404     1
    394    734     1
    394    400     1
    394    401     1
    395    734     1
    395    400     1
    395    401     1
    399    729     1
    399    730     1
    400    728     1
    401    728     1
    402    743     1
    402    744     1
    403    742     1
    404    742     1
    406    420     1
    406    421     1
    406    423     1
    406    424     1
    406    417     1
    406    418     1
    407    411     1
    407    412     1
    407    414     1
    407    415     1
    407    432     1
    407    433     1
    408    410     1
    408    413     1
    408    431     1
    408    420     1
    408    421     1
    409    410     1
    409    413     1
    409    431     1
    409    420     1
    409    421     1
    410    414     1
    410    415     1
    410    429     1
    410    430     1
    411    413     1
    411    428     1
    411    423     1
    411    424     1
    412    413     1
    412    428     1
    412    423     1
    412    424     1
    413    426     1
    413    427     1
    414    425     1
    414    417     1
    414    418     1
    415    425     1
    415    417     1
    415    418     1
    417    434     1
    417    426     1
    417    427     1
    418    434     1
    418    426     1
    418    427     1
    420    776     1
    420    432     1
    420    433     1
    421    776     1
    421    432     1
    421    433     1
    423    762     1
    423    429     1
    423    430     1
    424    762     1
    424    429     1
    424    430     1
    428    757     1
    428    758     1
    429    756     1
    430    756     1
    431    771     1
    431    772     1
    432    770     1
    433    770     1
    435    449     1
    435    450     1
    435    452     1
    435    453     1
    435    446     1
    435    447     1
    436    440     1
    436    441     1
    436    443     1
    436    444     1
    436    461     1
    436    462     1
    437    439     1
    437    442     1
    437    460     1
    437    449     1
    437    450     1
    438    439     1
    438    442     1
    438    460     1
    438    449     1
    438    450     1
    439    443     1
    439    444     1
    439    458     1
    439    459     1
    440    442     1
    440    457     1
    440    452     1
    440    453     1
    441    442     1
    441    457     1
    441    452     1
    441    453     1
    442    455     1
    442    456     1
    443    454     1
    443    446     1
    443    447     1
    444    454     1
    444    446     1
    444    447     1
    446    463     1
    446    455     1
    446    456     1
    447    463     1
    447    455     1
    447    456     1
    449    804     1
    449    461     1
    449    462     1
    450    804     1
    450    461     1
    450    462     1
    452    790     1
    452    458     1
    452    459     1
    453    790     1
    453    458     1
    453    459     1
    457    785     1
    457    786     1
    458    784     1
    459    784     1
    460    799     1
    460    800     1
    461    798     1
    462    798     1
    464    478     1
    464    479     1
    464    481     1
    464    482     1
    464    475     1
    464    476     1
    465    469     1
    465    470     1
    465    472     1
    465    473     1
    465    490     1
    465    491     1
    466    468     1
    466    471     1
    466    489     1
    466    478     1
    466    479     1
    467    468     1
    467    471     1
    467    489     1
    467    478     1
    467    479     1
    468    472     1
    468    473     1
    468    487     1
    468    488     1
    469    471     1
    469    486     1
    469    481     1
    469    482     1
    470    471     1
    470    486     1
    470    481     1
    470    482     1
    471    484     1
    471    485     1
    472    483     1
    472    475     1
    472    476     1
    473    483     1
    473    475     1
    473    476     1
    475    492     1
    475    484     1
    475    485     1
    476    492     1
    476    484     1
    476    485     1
    478    832     1
    478    490     1
    478    491     1
    479    832     1
    479    490     1
    479    491     1
    481    818     1
    481    487     1
    481    488     1
    482    818     1
    482    487     1
    482    488     1
    486    813     1
    486    814     1
    487    812     1
    488    812     1
    489    827     1
    489    828     1
    490    826     1
    491    826     1
    493    507     1
    493    508     1
    493    510     1
    493    511     1
    493    504     1
    493    505     1
    494    498     1
    494    499     1
    494    501     1
    494    502     1
    494    519     1
    494    520     1
    495    497     1
    495    500     1
    495    518     1
    495    507     1
    495    508     1
    496    497     1
    496    500     1
    496    518     1
    496    507     1
    496    508     1
    497    501     1
    497    502     1
    497    516     1
    497    517     1
    498    500     1
    498    515     1
    498    510     1
    498    511     1
    499    500     1
    499    515     1
    499    510     1
    499    511     1
    500    513     1
    500    514     1
    501    512     1
    501    504     1
    501    505     1
    502    512     1
    502    504     1
    502    505     1
    504    521     1
    504    513     1
    504    514     1
    505    521     1
    505    513     1
    505    514     1
    507    860     1
    507    519     1
    507    520     1
    508    860     1
    508    519     1
    508    520     1
    510    846     1
    510    516     1
    510    517     1
    511    846     1
    511    516     1
    511    517     1
    515    841     1
    515    842     1
    516    840     1
    517    840     1
    518    855     1
    518    856     1
    519    854     1
    520    854     1
    522    536     1
    522    537     1
    522    539     1
    522    540     1
    522    533     1
    522    534     1
    523    527     1
    523    528     1
    523    530     1
    523    531     1
    523    548     1
    523    549     1
    524    526     1
    524    529     1
    524    547     1
    524    536     1
    524    537     1
    525    526     1
    525    529     1
    525    547     1
    525    536     1
    525    537     1
    526    530     1
    526    531     1
    526    545     1
    526    546     1
    527    529     1
    527    544     1
    527    539     1
    527    540     1
    528    529     1
    528    544     1
    528    539     1
    528    540     1
    529    542     1
    529    543     1
    530    541     1
    530    533     1
    530    534     1
    531    541     1
    531    533     1
    531    534     1
    533    550     1
    533    542     1
    533    543     1
    534    550     1
    534    542     1
    534    543     1
    536    888     1
    536    548     1
    536    549     1
    537    888     1
    537    548     1
    537    549     1
    539    874     1
    539    545     1
    539    546     1
    540    874     1
    540    545     1
    540    546     1
    544    869     1
    544    870     1
    545    868     1
    546    868     1
    547    883     1
    547    884     1
    548    882     1
    549    882     1
    551    565     1
    551    566     1
    551    568     1
    551    569     1
    551    562     1
    551    563     1
    552    556     1
    552    557     1
    552    559     1
    552    560     1
    552    577     1
    552    578     1
    553    555     1
    553    558     1
    553    576     1
    553    565     1
    553    566     1
    554    555     1
    554    558     1
    554    576     1
    554    565     1
    554    566     1
    555    559     1
    555    560     1
    555    574     1
    555    575     1
    556    558     1
    556    573     1
    556    568     1
    556    569     1
    557    558     1
    557    573     1
    557    568     1
    557    569     1
    558    571     1
    558    572     1
    559    570     1
    559    562     1
    559    563     1
    560    570     1
    560    562     1
    560    563     1
    562    579     1
    562    571     1
    562    572     1
    563    579     1
    563    571     1
    563    572     1
    565    916     1
    565    577     1
    565    578     1
    566    916     1
    566    577     1
    566    578     1
    568    902     1
    568    574     1
    568    575     1
    569    902     1
    569    574     1
    569    575     1
    573    897     1
    573    898     1
    574    896     1
    575    896     1
    576    911     1
    576    912     1
    577    910     1
    578    910     1
    580    594     1
    580    595     1
    580    597     1
    580    598     1
    580    591     1
    580    592     1
    581    585     1
    581    586     1
    581    588     1
    581    589     1
    581    606     1
    581    607     1
    582    584     1
    582    587     1
    582    605     1
    582    594     1
    582    595     1
    583    584     1
    583    587     1
    583    605     1
    583    594     1
    583    595     1
    584    588     1
    584    589     1
    584    603     1
    584    604     1
    585    587     1
    585    602     1
    585    597     1
    585    598     1
    586    587     1
    586    602     1
    586    597     1
    586    598     1
    587    600     1
    587    601     1
    588    599     1
    588    591     1
    588    592     1
    589    599     1
    589    591     1
    589    592     1
    591    608     1
    591    600     1
    591    601     1
    592    608     1
    592    600     1
    592    601     1
    594    944     1
    594    606     1
    594    607     1
    595    944     1
    595    606     1
    595    607     1
    597    930     1
    597    603     1
    597    604     1
    598    930     1
    598    603     1
    598    604     1
    602    925     1
    602    926     1
    603    924     1
    604    924     1
    605    939     1
    605    940     1
    606    938     1
    607    938     1
    609    623     1
    609    624     1
    609    626     1
    609    627     1
    609    620     1
    609    621     1
    610    614     1
    610    615     1
    610    617     1
    610    618     1
    610    635     1
    610    636     1
    611    613     1
    611    616     1
    611    634     1
    611    623     1
    611    624     1
    612    613     1
    612    616     1
    612    634     1
    612    623     1
    612    624     1
    613    617     1
    613    618     1
    613    632     1
    613    633     1
    614    616     1
    614    631     1
    614    626     1
    614    627     1
    615    616     1
    615    631     1
    615    626     1
    615    627     1
    616    629     1
    616    630     1
    617    628     1
    617    620     1
    617    621     1
    618    628     1
    618    620     1
    618    621     1
    620    637     1
    620    629     1
    620    630     1
    621    637     1
    621    629     1
    621    630     1
    623    972     1
    623    635     1
    623    636     1
    624    972     1
    624    635     1
    624    636     1
    626    958     1
    626    632     1
    626    633     1
    627    958     1
    627    632     1
    627    633     1
    631    953     1
    631    954     1
    632    952     1
    633    952     1
    634    967     1
    634    968     1
    635    966     1
    636    966     1
    638    645     1
    638    646     1
    639    644     1
    639    642     1
    639    643     1
    639    648     1
    639    649     1
    639    651     1
    640    644     1
    640    642     1
    640    643     1
    640    648     1
    640    649     1
    640    651     1
    641    648     1
    641    649     1
    641    651     1
    642    647     1
    642    650     1
    642    645     1
    642    646     1
    643    647     1
    643    650     1
    643    645     1
    643    646     1
    652    659     1
    652    660     1
    653    658     1
    653    656     1
    653    657     1
    653    662     1
    653    663     1
    653    665     1
    654    658     1
    654    656     1
    654    657     1
    654    662     1
    654    663     1
    654    665     1
    655    662     1
    655    663     1
    655    665     1
    656    664     1
    656    659     1
    656    660     1
    656    661     1
    657    664     1
    657    659     1
    657    660     1
    657    661     1
    666    673     1
    666    674     1
    667    672     1
    667    670     1
    667    671     1
    667    676     1
    667    677     1
    667    679     1
    668    672     1
    668    670     1
    668    671     1
    668    676     1
    668    677     1
    668    679     1
    669    676     1
    669    677     1
    669    679     1
    670    675     1
    670    678     1
    670    673     1
    670    674     1
    671    675     1
    671    678     1
    671    673     1
    671    674     1
    680    687     1
    680    688     1
    681    686     1
    681    684     1
    681    685     1
    681    690     1
    681    691     1
    681    693     1
    682    686     1
    682    684     1
    682    685     1
    682    690     1
    682    691     1
    682    693     1
    683    690     1
    683    691     1
    683    693     1
    684    692     1
    684    687     1
    684    688     1
    684    689     1
    685    692     1
    685    687     1
    685    688     1
    685    689     1
    694    701     1
    694    702     1
    695    700     1
    695    698     1
    695    699     1
    695    704     1
    695    705     1
    695    707     1
    696    700     1
    696    698     1
    696    699     1
    696    704     1
    696    705     1
    696    707     1
    697    704     1
    697    705     1
    697    707     1
    698    703     1
    698    706     1
    698    701     1
    698    702     1
    699    703     1
    699    706     1
    699    701     1
    699    702     1
    708    715     1
    708    716     1
    709    714     1
    709    712     1
    709    713     1
    709    718     1
    709    719     1
    709    721     1
    710    714     1
    710    712     1
    710    713     1
    710    718     1
    710    719     1
    710    721     1
    711    718     1
    711    719     1
    711    721     1
    712    720     1
    712    715     1
    712    716     1
    712    717     1
    713    720     1
    713    715     1
    713    716     1
    713    717     1
    722    729     1
    722    730     1
    723    728     1
    723    726     1
    723    727     1
    723    732     1
    723    733     1
    723    735     1
    724    728     1
    724    726     1
    724    727     1
    724    732     1
    724    733     1
    724    735     1
    725    732     1
    725    733     1
    725    735     1
    726    731     1
    726    734     1
    726    729     1
    726    730     1
    727    731     1
    727    734     1
    727    729     1
    727    730     1
    736    743     1
    736    744     1
    737    742     1
    737    740     1
    737    741     1
    737    746     1
    737    747     1
    737    749     1
    738    742     1
    738    740     1
    738    741     1
    738    746     1
    738    747     1
    738    749     1
    739    746     1
    739    747     1
    739    749     1
    740    748     1
    740    743     1
    740    744     1
    740    745     1
    741    748     1
    741    743     1
    741    744     1
    741    745     1
    750    757     1
    750    758     1
    751    756     1
    751    754     1
    751    755     1
    751    760     1
    751    761     1
    751    763     1
    752    756     1
    752    754     1
    752    755     1
    752    760     1
    752    761     1
    752    763     1
    753    760     1
    753    761     1
    753    763     1
    754    759     1
    754    762     1
    754    757     1
    754    758     1
    755    759     1
    755    762     1
    755    757     1
    755    758     1
    764    771     1
    764    772     1
    765    770     1
    765    768     1
    765    769     1
    765    774     1
    765    775     1
    765    777     1
    766    770     1
    766    768     1
    766    769     1
    766    774     1
    766    775     1
    766    777     1
    767    774     1
    767    775     1
    767    777     1
    768    776     1
    768    771     1
    768    772     1
    768    773     1
    769    776     1
    769    771     1
    769    772     1
    769    773     1
    778    785     1
    778    786     1
    779    784     1
    779    782     1
    779    783     1
    779    788     1
    779    789     1
    779    791     1
    780    784     1
    780    782     1
    780    783     1
    780    788     1
    780    789     1
    780    791     1
    781    788     1
    781    789     1
    781    791     1
    782    787     1
    782    790     1
    782    785     1
    782    786     1
    783    787     1
    783    790     1
    783    785     1
    783    786     1
    792    799     1
    792    800     1
    793    798     1
    793    796     1
    793    797     1
    793    802     1
    793    803     1
    793    805     1
    794    798     1
    794    796     1
    794    797     1
    794    802     1
    794    803     1
    794    805     1
    795    802     1
    795    803     1
    795    805     1
    796    804     1
    796    799     1
    796    800     1
    796    801     1
    797    804     1
    797    799     1
    797    800     1
    797    801     1
    806    813     1
    806    814     1
    807    812     1
    807    810     1
    807    811     1
    807    816     1
    807    817     1
    807    819     1
    808    812     1
    808    810     1
    808    811     1
    808    816     1
    808    817     1
    808    819     1
    809    816     1
    809    817     1
    809    819     1
    810    815     1
    810    818     1
    810    813     1
    810    814     1
    811    815     1
    811    818     1
    811    813     1
    811    814     1
    820    827     1
    820    828     1
    821    826     1
    821    824     1
    821    825     1
    821    830     1
    821    831     1
    821    833     1
    822    826     1
    822    824     1
    822    825     1
    822    830     1
    822    831     1
    822    833     1
    823    830     1
    823    831     1
    823    833     1
    824    832     1
    824    827     1
    824    828     1
    824    829     1
    825    832     1
    825    827     1
    825    828     1
    825    829     1
    834    841     1
    834    842     1
    835    840     1
    835    838     1
    835    839     1
    835    844     1
    835    845     1
    835    847     1
    836    840     1
    836    838     1
    836    839     1
    836    844     1
    836    845     1
    836    847     1
    837    844     1
    837    845     1
    837    847     1
    838    843     1
    838    846     1
    838    841     1
    838    842     1
    839    843     1
    839    846     1
    839    841     1
    839    842     1
    848    855     1
    848    856     1
    849    854     1
    849    852     1
    849    853     1
    849    858     1
    849    859     1
    849    861     1
    850    854     1
    850    852     1
    850    853     1
    850    858     1
    850    859     1
    850    861     1
    851    858     1
    851    859     1
    851    861     1
    852    860     1
    852    855     1
    852    856     1
    852    857     1
    853    860     1
    853    855     1
    853    856     1
    853    857     1
    862    869     1
    862    870     1
    863    868     1
    863    866     1
    863    867     1
    863    872     1
    863    873     1
    863    875     1
    864    868     1
    864    866     1
    864    867     1
    864    872     1
    864    873     1
    864    875     1
    865    872     1
    865    873     1
    865    875     1
    866    871     1
    866    874     1
    866    869     1
    866    870     1
    867    871     1
    867    874     1
    867    869     1
    867    870     1
    876    883     1
    876    884     1
    877    882     1
    877    880     1
    877    881     1
    877    886     1
    877    887     1
    877    889     1
    878    882     1
    878    880     1
    878    881     1
    878    886     1
    878    887     1
    878    889     1
    879    886     1
    879    887     1
    879    889     1
    880    888     1
    880    883     1
    880    884     1
    880    885     1
    881    888     1
    881    883     1
    881    884     1
    881    885     1
    890    897     1
    890    898     1
    891    896     1
    891    894     1
    891    895     1
    891    900     1
    891    901     1
    891    903     1
    892    896     1
    892    894     1
    892    895     1
    892    900     1
    892    901     1
    892    903     1
    893    900     1
    893    901     1
    893    903     1
    894    899     1
    894    902     1
    894    897     1
    894    898     1
    895    899     1
    895    902     1
    895    897     1
    895    898     1
    904    911     1
    904    912     1
    905    910     1
    905    908     1
    905    909     1
    905    914     1
    905    915     1
    905    917     1
    906    910     1
    906    908     1
    906    909     1
    906    914     1
    906    915     1
    906    917     1
    907    914     1
    907    915     1
    907    917     1
    908    916     1
    908    911     1
    908    912     1
    908    913     1
    909    916     1
    909    911     1
    909    912     1
    909    913     1
    918    925     1
    918    926     1
    919    924     1
    919    922     1
    919    923     1
    919    928     1
    919    929     1
    919    931     1
    920    924     1
    920    922     1
    920    923     1
    920    928     1
    920    929     1
    920    931     1
    921    928     1
    921    929     1
    921    931     1
    922    927     1
    922    930     1
    922    925     1
    922    926     1
    923    927     1
    923    930     1
    923    925     1
    923    926     1
    932    939     1
    932    940     1
    933    938     1
    933    936     1
    933    937     1
    933    942     1
    933    943     1
    933    945     1
    934    938     1
    934    936     1
    934    937     1
    934    942     1
    934    943     1
    934    945     1
    935    942     1
    935    943     1
    935    945     1
    936    944     1
    936    939     1
    936    940     1
    936    941     1
    937    944     1
    937    939     1
    937    940     1
    937    941     1
    946    953     1
    946    954     1
    947    952     1
    947    950     1
    947    951     1
    947    956     1
    947    957     1
    947    959     1
    948    952     1
    948    950     1
    948    951     1
    948    956     1
    948    957     1
    948    959     1
    949    956     1
    949    957     1
    949    959     1
    950    955     1
    950    958     1
    950    953     1
    950    954     1
    951    955     1
    951    958     1
    951    953     1
    951    954     1
    960    967     1
    960    968     1
    961    966     1
    961    964     1
    961    965     1
    961    970     1
    961    971     1
    961    973     1
    962    966     1
    962    964     1
    962    965     1
    962    970     1
    962    971     1
    962    973     1
    963    970     1
    963    971     1
    963    973     1
    964    972     1
    964    967     1
    964    968     1
    964    969     1
    965    972     1
    965    967     1
    965    968     1
    965    969     1

[ angles ]
;    ai     aj     ak funct         c0         c1         c2         c3
      1      2     14     1   111.0400475 552.288000
      1      5     17     1   111.0400475 552.288000
      1      8     11     1   111.0400475 552.288000
      2      1      5     1   112.3500484 533.878400
      2      1      8     1   112.3500484 533.878400
      2     14     26     1   111.5100476 526.347200
      5      1      8     1   112.3500484 533.878400
      5     17     20     1   111.5100476 526.347200
      8     11     23     1   111.5100476 526.347200
     11     23     86     1   107.9700462 569.024000
     14     26    115     1   107.9700462 569.024000
     17     20     57     1   107.9700462 569.024000
     20     57     48     1   112.4800480 524.673600
     23     86     77     1   112.4800480 524.673600
     26    115    106     1   112.4800480 524.673600
     29     30     42     1   111.0400475 552.288000
     29     33     45     1   111.0400475 552.288000
     29     36     39     1   111.0400475 552.288000
     30     29     33     1   112.3500484 533.878400
     30     29     36     1   112.3500484 533.878400
     30     42     54     1   111.5100476 526.347200
     33     29     36     1   112.3500484 533.878400
     33     45     51     1   111.5100476 526.347200
     36     39     48     1   111.5100476 526.347200
     39     48     57     1   107.9700462 569.024000
     42     54    173     1   107.9700462 569.024000
     45     51    144     1   107.9700462 569.024000
     51    144    135     1   112.4800480 524.673600
     54    173    164     1   112.4800480 524.673600
     58     59     71     1   111.0400475 552.288000
     58     62     74     1   111.0400475 552.288000
     58     65     68     1   111.0400475 552.288000
     59     58     62     1   112.3500484 533.878400
     59     58     65     1   112.3500484 533.878400
     59     71     83     1   111.5100476 526.347200
     62     58     65     1   112.3500484 533.878400
     62     74     80     1   111.5100476 526.347200
     65     68     77     1   111.5100476 526.347200
     68     77     86     1   107.9700462 569.024000
     71     83    231     1   107.9700462 569.024000
     74     80    202     1   107.9700462 569.024000
     80    202    193     1   112.4800480 524.673600
     83    231    222     1   112.4800480 524.673600
     87     88    100     1   111.0400475 552.288000
     87     91    103     1   111.0400475 552.288000
     87     94     97     1   111.0400475 552.288000
     88     87     91     1   112.3500484 533.878400
     88     87     94     1   112.3500484 533.878400
     88    100    112     1   111.5100476 526.347200
     91     87     94     1   112.3500484 533.878400
     91    103    109     1   111.5100476 526.347200
     94     97    106     1   111.5100476 526.347200
     97    106    115     1   107.9700462 569.024000
    100    112    289     1   107.9700462 569.024000
    103    109    260     1   107.9700462 569.024000
    109    260    251     1   112.4800480 524.673600
    112    289    280     1   112.4800480 524.673600
    116    117    129     1   111.0400475 552.288000
    116    120    132     1   111.0400475 552.288000
    116    123    126     1   111.0400475 552.288000
    117    116    120     1   112.3500484 533.878400
    117    116    123     1   112.3500484 533.878400
    117    129    141     1   111.5100476 526.347200
    120    116    123     1   112.3500484 533.878400
    120    132    138     1   111.5100476 526.347200
    123    126    135     1   111.5100476 526.347200
    126    135    144     1   107.9700462 569.024000
    129    141    347     1   107.9700462 569.024000
    132    138    318     1   107.9700462 569.024000
    138    318    309     1   112.4800480 524.673600
    141    347    338     1   112.4800480 524.673600
    145    146    158     1   111.0400475 552.288000
    145    149    161     1   111.0400475 552.288000
    145    152    155     1   111.0400475 552.288000
    146    145    149     1   112.3500484 533.878400
    146    145    152     1   112.3500484 533.878400
    146    158    170     1   111.5100476 526.347200
    149    145    152     1   112.3500484 533.878400
    149    161    167     1   111.5100476 526.347200
    152    155    164     1   111.5100476 526.347200
    155    164    173     1   107.9700462 569.024000
    158    170    405     1   107.9700462 569.024000
    161    167    376     1   107.9700462 569.024000
    167    376    367     1   112.4800480 524.673600
    170    405    396     1   112.4800480 524.673600
    174    175    187     1   111.0400475 552.288000
    174    178    190     1   111.0400475 552.288000
    174    181    184     1   111.0400475 552.288000
    175    174    178     1   112.3500484 533.878400
    175    174    181     1   112.3500484 533.878400
    175    187    199     1   111.5100476 526.347200
    178    174    181     1   112.3500484 533.878400
    178    190    196     1   111.5100476 526.347200
    181    184    193     1   111.5100476 526.347200
    184    193    202     1   107.9700462 569.024000
    187    199    463     1   107.9700462 569.024000
    190    196    434     1   107.9700462 569.024000
    196    434    425     1   112.4800480 524.673600
    199    463    454     1   112.4800480 524.673600
    203    204    216     1   111.0400475 552.288000
    203    207    219     1   111.0400475 552.288000
    203    210    213     1   111.0400475 552.288000
    204    203    207     1   112.3500484 533.878400
    204    203    210     1   112.3500484 533.878400
    204    216    228     1   111.5100476 526.347200
    207    203    210     1   112.3500484 533.878400
    207    219    225     1   111.5100476 526.347200
    210    213    222     1   111.5100476 526.347200
    213    222    231     1   107.9700462 569.024000
    216    228    521     1   107.9700462 569.024000
    219    225    492     1   107.9700462 569.024000
    225    492    483     1   112.4800480 524.673600
    228    521    512     1   112.4800480 524.673600
    232    233    245     1   111.0400475 552.288000
    232    236    248     1   111.0400475 552.288000
    232    239    242     1   111.0400475 552.288000
    233    232    236     1   112.3500484 533.878400
    233    232    239     1   112.3500484 533.878400
    233    245    257     1   111.5100476 526.347200
    236    232    239     1   112.3500484 533.878400
    236    248    254     1   111.5100476 526.347200
    239    242    251     1   111.5100476 526.347200
    242    251    260     1   107.9700462 569.024000
    245    257    579     1   107.9700462 569.024000
    248    254    550     1   107.9700462 569.024000
    254    550    541     1   112.4800480 524.673600
    257    579    570     1   112.4800480 524.673600
    261    262    274     1   111.0400475 552.288000
    261    265    277     1   111.0400475 552.288000
    261    268    271     1   111.0400475 552.288000
    262    261    265     1   112.3500484 533.878400
    262    261    268     1   112.3500484 533.878400
    262    274    286     1   111.5100476 526.347200
    265    261    268     1   112.3500484 533.878400
    265    277    283     1   111.5100476 526.347200
    268    271    280     1   111.5100476 526.347200
    271    280    289     1   107.9700462 569.024000
    274    286    637     1   107.9700462 569.024000
    277    283    608     1   107.9700462 569.024000
    283    608    599     1   112.4800480 524.673600
    286    637    628     1   112.4800480 524.673600
    290    291    303     1   111.0400475 552.288000
    290    294    306     1   111.0400475 552.288000
    290    297    300     1   111.0400475 552.288000
    291    290    294     1   112.3500484 533.878400
    291    290    297     1   112.3500484 533.878400
    291    303    315     1   111.5100476 526.347200
    294    290    297     1   112.3500484 533.878400
    294    306    312     1   111.5100476 526.347200
    297    300    309     1   111.5100476 526.347200
    300    309    318     1   107.9700462 569.024000
    303    315    664     1   107.9700462 569.024000
    306    312    650     1   107.9700462 569.024000
    312    650    644     1   112.4800480 524.673600
    315    664    658     1   112.4800480 524.673600
    319    320    332     1   111.0400475 552.288000
    319    323    335     1   111.0400475 552.288000
    319    326    329     1   111.0400475 552.288000
    320    319    323     1   112.3500484 533.878400
    320    319    326     1   112.3500484 533.878400
    320    332    344     1   111.5100476 526.347200
    323    319    326     1   112.3500484 533.878400
    323    335    341     1   111.5100476 526.347200
    326    329    338     1   111.5100476 526.347200
    329    338    347     1   107.9700462 569.024000
    332    344    692     1   107.9700462 569.024000
    335    341    678     1   107.9700462 569.024000
    341    678    672     1   112.4800480 524.673600
    344    692    686     1   112.4800480 524.673600
    348    349    361     1   111.0400475 552.288000
    348    352    364     1   111.0400475 552.288000
    348    355    358     1   111.0400475 552.288000
    349    348    352     1   112.3500484 533.878400
    349    348    355     1   112.3500484 533.878400
    349    361    373     1   111.5100476 526.347200
    352    348    355     1   112.3500484 533.878400
    352    364    370     1   111.5100476 526.347200
    355    358    367     1   111.5100476 526.347200
    358    367    376     1   107.9700462 569.024000
    361    373    720     1   107.9700462 569.024000
    364    370    706     1   107.9700462 569.024000
    370    706    700     1   112.4800480 524.673600
    373    720    714     1   112.4800480 524.673600
    377    378    390     1   111.0400475 552.288000
    377    381    393     1   111.0400475 552.288000
    377    384    387     1   111.0400475 552.288000
    378    377    381     1   112.3500484 533.878400
    378    377    384     1   112.3500484 533.878400
    378    390    402     1   111.5100476 526.347200
    381    377    384     1   112.3500484 533.878400
    381    393    399     1   111.5100476 526.347200
    384    387    396     1   111.5100476 526.347200
    387    396    405     1   107.9700462 569.024000
    390    402    748     1   107.9700462 569.024000
    393    399    734     1   107.9700462 569.024000
    399    734    728     1   112.4800480 524.673600
    402    748    742     1   112.4800480 524.673600
    406    407    419     1   111.0400475 552.288000
    406    410    422     1   111.0400475 552.288000
    406    413    416     1   111.0400475 552.288000
    407    406    410     1   112.3500484 533.878400
    407    406    413     1   112.3500484 533.878400
    407    419    431     1   111.5100476 526.347200
    410    406    413     1   112.3500484 533.878400
    410    422    428     1   111.5100476 526.347200
    413    416    425     1   111.5100476 526.347200
    416    425    434     1   107.9700462 569.024000
    419    431    776     1   107.9700462 569.024000
    422    428    762     1   107.9700462 569.024000
    428    762    756     1   112.4800480 524.673600
    431    776    770     1   112.4800480 524.673600
    435    436    448     1   111.0400475 552.288000
    435    439    451     1   111.0400475 552.288000
    435    442    445     1   111.0400475 552.288000
    436    435    439     1   112.3500484 533.878400
    436    435    442     1   112.3500484 533.878400
    436    448    460     1   111.5100476 526.347200
    439    435    442     1   112.3500484 533.878400
    439    451    457     1   111.5100476 526.347200
    442    445    454     1   111.5100476 526.347200
    445    454    463     1   107.9700462 569.024000
    448    460    804     1   107.9700462 569.024000
    451    457    790     1   107.9700462 569.024000
    457    790    784     1   112.4800480 524.673600
    460    804    798     1   112.4800480 524.673600
    464    465    477     1   111.0400475 552.288000
    464    468    480     1   111.0400475 552.288000
    464    471    474     1   111.0400475 552.288000
    465    464    468     1   112.3500484 533.878400
    465    464    471     1   112.3500484 533.878400
    465    477    489     1   111.5100476 526.347200
    468    464    471     1   112.3500484 533.878400
    468    480    486     1   111.5100476 526.347200
    471    474    483     1   111.5100476 526.347200
    474    483    492     1   107.9700462 569.024000
    477    489    832     1   107.9700462 569.024000
    480    486    818     1   107.9700462 569.024000
    486    818    812     1   112.4800480 524.673600
    489    832    826     1   112.4800480 524.673600
    493    494    506     1   111.0400475 552.288000
    493    497    509     1   111.0400475 552.288000
    493    500    503     1   111.0400475 552.288000
    494    493    497     1   112.3500484 533.878400
    494    493    500     1   112.3500484 533.878400
    494    506    518     1   111.5100476 526.347200
    497    493    500     1   112.3500484 533.878400
    497    509    515     1   111.5100476 526.347200
    500    503    512     1   111.5100476 526.347200
    503    512    521     1   107.9700462 569.024000
    506    518    860     1   107.9700462 569.024000
    509    515    846     1   107.9700462 569.024000
    515    846    840     1   112.4800480 524.673600
    518    860    854     1   112.4800480 524.673600
    522    523    535     1   111.0400475 552.288000
    522    526    538     1   111.0400475 552.288000
    522    529    532     1   111.0400475 552.288000
    523    522    526     1   112.3500484 533.878400
    523    522    529     1   112.3500484 533.878400
    523    535    547     1   111.5100476 526.347200
    526    522    529     1   112.3500484 533.878400
    526    538    544     1   111.5100476 526.347200
    529    532    541     1   111.5100476 526.347200
    532    541    550     1   107.9700462 569.024000
    535    547    888     1   107.9700462 569.024000
    538    544    874     1   107.9700462 569.024000
    544    874    868     1   112.4800480 524.673600
    547    888    882     1   112.4800480 524.673600
    551    552    564     1   111.0400475 552.288000
    551    555    567     1   111.0400475 552.288000
    551    558    561     1   111.0400475 552.288000
    552    551    555     1   112.3500484 533.878400
    552    551    558     1   112.3500484 533.878400
    552    564    576     1   111.5100476 526.347200
    555    551    558     1   112.3500484 533.878400
    555    567    573     1   111.5100476 526.347200
    558    561    570     1   111.5100476 526.347200
    561    570    579     1   107.9700462 569.024000
    564    576    916     1   107.9700462 569.024000
    567    573    902     1   107.9700462 569.024000
    573    902    896     1   112.4800480 524.673600
    576    916    910     1   112.4800480 524.673600
    580    581    593     1   111.0400475 552.288000
    580    584    596     1   111.0400475 552.288000
    580    587    590     1   111.0400475 552.288000
    581    580    584     1   112.3500484 533.878400
    581    580    587     1   112.3500484 533.878400
    581    593    605     1   111.5100476 526.347200
    584    580    587     1   112.3500484 533.878400
    584    596    602     1   111.5100476 526.347200
    587    590    599     1   111.5100476 526.347200
    590    599    608     1   107.9700462 569.024000
    593    605    944     1   107.9700462 569.024000
    596    602    930     1   107.9700462 569.024000
    602    930    924     1   112.4800480 524.673600
    605    944    938     1   112.4800480 524.673600
    609    610    622     1   111.0400475 552.288000
    609    613    625     1   111.0400475 552.288000
    609    616    619     1   111.0400475 552.288000
    610    609    613     1   112.3500484 533.878400
    610    609    616     1   112.3500484 533.878400
    610    622    634     1   111.5100476 526.347200
    613    609    616     1   112.3500484 533.878400
    613    625    631     1   111.5100476 526.347200
    616    619    628     1   111.5100476 526.347200
    619    628    637     1   107.9700462 569.024000
    622    634    972     1   107.9700462 569.024000
    625    631    958     1   107.9700462 569.024000
    631    958    952     1   112.4800480 524.673600
    634    972    966     1   112.4800480 524.673600
    638    641    644     1   111.5100476 526.347200
    641    638    647     1   114.2100488 537.225600
    641    644    650     1   107.9700462 569.024000
    652    655    658     1   111.5100476 526.347200
    655    658    664     1   107.9700462 569.024000
    655    652    661     1   114.2100488 537.225600
    666    669    672     1   111.5100476 526.347200
    669    666    675     1   114.2100488 537.225600
    669    672    678     1   107.9700462 569.024000
    680    683    686     1   111.5100476 526.347200
    683    686    692     1   107.9700462 569.024000
    683    680    689     1   114.2100488 537.225600
    694    697    700     1   111.5100476 526.347200
    697    694    703     1   114.2100488 537.225600
    697    700    706     1   107.9700462 569.024000
    708    711    714     1   111.5100476 526.347200
    711    714    720     1   107.9700462 569.024000
    711    708    717     1   114.2100488 537.225600
    722    725    728     1   111.5100476 526.347200
    725    722    731     1   114.2100488 537.225600
    725    728    734     1   107.9700462 569.024000
    736    739    742     1   111.5100476 526.347200
    739    742    748     1   107.9700462 569.024000
    739    736    745     1   114.2100488 537.225600
    750    753    756     1   111.5100476 526.347200
    753    750    759     1   114.2100488 537.225600
    753    756    762     1   107.9700462 569.024000
    764    767    770     1   111.5100476 526.347200
    767    770    776     1   107.9700462 569.024000
    767    764    773     1   114.2100488 537.225600
    778    781    784     1   111.5100476 526.347200
    781    778    787     1   114.2100488 537.225600
    781    784    790     1   107.9700462 569.024000
    792    795    798     1   111.5100476 526.347200
    795    798    804     1   107.9700462 569.024000
    795    792    801     1   114.2100488 537.225600
    806    809    812     1   111.5100476 526.347200
    809    806    815     1   114.2100488 537.225600
    809    812    818     1   107.9700462 569.024000
    820    823    826     1   111.5100476 526.347200
    823    826    832     1   107.9700462 569.024000
    823    820    829     1   114.2100488 537.225600
    834    837    840     1   111.5100476 526.347200
    837    834    843     1   114.2100488 537.225600
    837    840    846     1   107.9700462 569.024000
    848    851    854     1   111.5100476 526.347200
    851    854    860     1   107.9700462 569.024000
    851    848    857     1   114.2100488 537.225600
    862    865    868     1   111.5100476 526.347200
    865    862    871     1   114.2100488 537.225600
    865    868    874     1   107.9700462 569.024000
    876    879    882     1   111.5100476 526.347200
    879    882    888     1   107.9700462 569.024000
    879    876    885     1   114.2100488 537.225600
    890    893    896     1   111.5100476 526.347200
    893    890    899     1   114.2100488 537.225600
    893    896    902     1   107.9700462 569.024000
    904    907    910     1   111.5100476 526.347200
    907    910    916     1   107.9700462 569.024000
    907    904    913     1   114.2100488 537.225600
    918    921    924     1   111.5100476 526.347200
    921    918    927     1   114.2100488 537.225600
    921    924    930     1   107.9700462 569.024000
    932    935    938     1   111.5100476 526.347200
    935    938    944     1   107.9700462 569.024000
    935    932    941     1   114.2100488 537.225600
    946    949    952     1   111.5100476 526.347200
    949    946    955     1   114.2100488 537.225600
    949    952    958     1   107.9700462 569.024000
    960    963    966     1   111.5100476 526.347200
    963    966    972     1   107.9700462 569.024000
    963    960    969     1   114.2100488 537.225600
      1      2      3     1   109.8800469 414.216000
      1      2      4     1   109.8800469 414.216000
      1      5      6     1   109.8800469 414.216000
      1      5      7     1   109.8800469 414.216000
      1      8      9     1   109.8800469 414.216000
      1      8     10     1   109.8800469 414.216000
      2     14     15     1   109.8000471 387.438400
      2     14     16     1   109.8000471 387.438400
      3      2     14     1   109.5600471 388.275200
      3      2      4     1   108.4600466 328.025600
      4      2     14     1   109.5600471 388.275200
      5     17     18     1   109.8000471 387.438400
      5     17     19     1   109.8000471 387.438400
      6      5     17     1   109.5600471 388.275200
      6      5      7     1   108.4600466 328.025600
      7      5     17     1   109.5600471 388.275200
      8     11     12     1   109.8000471 387.438400
      8     11     13     1   109.8000471 387.438400
      9      8     11     1   109.5600471 388.275200
      9      8     10     1   108.4600466 328.025600
     10      8     11     1   109.5600471 388.275200
     11     23     24     1   109.5600471 388.275200
     11     23     25     1   109.5600471 388.275200
     12     11     23     1   109.8000471 387.438400
     12     11     13     1   107.5800459 329.699200
     13     11     23     1   109.8000471 387.438400
     14     26     27     1   109.5600471 388.275200
     14     26     28     1   109.5600471 388.275200
     15     14     26     1   109.8000471 387.438400
     15     14     16     1   107.5800459 329.699200
     16     14     26     1   109.8000471 387.438400
     17     20     21     1   109.5600471 388.275200
     17     20     22     1   109.5600471 388.275200
     18     17     20     1   109.8000471 387.438400
     18     17     19     1   107.5800459 329.699200
     19     17     20     1   109.8000471 387.438400
     21     20     57     1   109.7800468 425.094400
     21     20     22     1   108.4600466 328.025600
     22     20     57     1   109.7800468 425.094400
     24     23     86     1   109.7800468 425.094400
     24     23     25     1   108.4600466 328.025600
     25     23     86     1   109.7800468 425.094400
     27     26    115     1   109.7800468 425.094400
     27     26     28     1   108.4600466 328.025600
     28     26    115     1   109.7800468 425.094400
     29     30     31     1   109.8800469 414.216000
     29     30     32     1   109.8800469 414.216000
     29     33     34     1   109.8800469 414.216000
     29     33     35     1   109.8800469 414.216000
     29     36     37     1   109.8800469 414.216000
     29     36     38     1   109.8800469 414.216000
     30     42     43     1   109.8000471 387.438400
     30     42     44     1   109.8000471 387.438400
     31     30     42     1   109.5600471 388.275200
     31     30     32     1   108.4600466 328.025600
     32     30     42     1   109.5600471 388.275200
     33     45     46     1   109.8000471 387.438400
     33     45     47     1   109.8000471 387.438400
     34     33     45     1   109.5600471 388.275200
     34     33     35     1   108.4600466 328.025600
     35     33     45     1   109.5600471 388.275200
     36     39     40     1   109.8000471 387.438400
     36     39     41     1   109.8000471 387.438400
     37     36     39     1   109.5600471 388.275200
     37     36     38     1   108.4600466 328.025600
     38     36     39     1   109.5600471 388.275200
     39     48     49     1   109.5600471 388.275200
     39     48     50     1   109.5600471 388.275200
     40     39     48     1   109.8000471 387.438400
     40     39     41     1   107.5800459 329.699200
     41     39     48     1   109.8000471 387.438400
     42     54     55     1   109.5600471 388.275200
     42     54     56     1   109.5600471 388.275200
     43     42     54     1   109.8000471 387.438400
     43     42     44     1   107.5800459 329.699200
     44     42     54     1   109.8000471 387.438400
     45     51     52     1   109.5600471 388.275200
     45     51     53     1   109.5600471 388.275200
     46     45     51     1   109.8000471 387.438400
     46     45     47     1   107.5800459 329.699200
     47     45     51     1   109.8000471 387.438400
     49     48     57     1   109.7800468 425.094400
     49     48     50     1   108.4600466 328.025600
     50     48     57     1   109.7800468 425.094400
     52     51    144     1   109.7800468 425.094400
     52     51     53     1   108.4600466 328.025600
     53     51    144     1   109.7800468 425.094400
     55     54    173     1   109.7800468 425.094400
     55     54     56     1   108.4600466 328.025600
     56     54    173     1   109.7800468 425.094400
     58     59     60     1   109.8800469 414.216000
     58     59     61     1   109.8800469 414.216000
     58     62     63     1   109.8800469 414.216000
     58     62     64     1   109.8800469 414.216000
     58     65     66     1   109.8800469 414.216000
     58     65     67     1   109.8800469 414.216000
     59     71     72     1   109.8000471 387.438400
     59     71     73     1   109.8000471 387.438400
     60     59     71     1   109.5600471 388.275200
     60     59     61     1   108.4600466 328.025600
     61     59     71     1   109.5600471 388.275200
     62     74     75     1   109.8000471 387.438400
     62     74     76     1   109.8000471 387.438400
     63     62     74     1   109.5600471 388.275200
     63     62     64     1   108.4600466 328.025600
     64     62     74     1   109.5600471 388.275200
     65     68     69     1   109.8000471 387.438400
     65     68     70     1   109.8000471 387.438400
     66     65     68     1   109.5600471 388.275200
     66     65     67     1   108.4600466 328.025600
     67     65     68     1   109.5600471 388.275200
     68     77     78     1   109.5600471 388.275200
     68     77     79     1   109.5600471 388.275200
     69     68     77     1   109.8000471 387.438400
     69     68     70     1   107.5800459 329.699200
     70     68     77     1   109.8000471 387.438400
     71     83     84     1   109.5600471 388.275200
     71     83     85     1   109.5600471 388.275200
     72     71     83     1   109.8000471 387.438400
     72     71     73     1   107.5800459 329.699200
     73     71     83     1   109.8000471 387.438400
     74     80     81     1   109.5600471 388.275200
     74     80     82     1   109.5600471 388.275200
     75     74     80     1   109.8000471 387.438400
     75     74     76     1   107.5800459 329.699200
     76     74     80     1   109.8000471 387.438400
     78     77     86     1   109.7800468 425.094400
     78     77     79     1   108.4600466 328.025600
     79     77     86     1   109.7800468 425.094400
     81     80    202     1   109.7800468 425.094400
     81     80     82     1   108.4600466 328.025600
     82     80    202     1   109.7800468 425.094400
     84     83    231     1   109.7800468 425.094400
     84     83     85     1   108.4600466 328.025600
     85     83    231     1   109.7800468 425.094400
     87     88     89     1   109.8800469 414.216000
     87     88     90     1   109.8800469 414.216000
     87     91     92     1   109.8800469 414.216000
     87     91     93     1   109.8800469 414.216000
     87     94     95     1   109.8800469 414.216000
     87     94     96     1   109.8800469 414.216000
     88    100    101     1   109.8000471 387.438400
     88    100    102     1   109.8000471 387.438400
     89     88    100     1   109.5600471 388.275200
     89     88     90     1   108.4600466 328.025600
     90     88    100     1   109.5600471 388.275200
     91    103    104     1   109.8000471 387.438400
     91    103    105     1   109.8000471 387.438400
     92     91    103     1   109.5600471 388.275200
     92     91     93     1   108.4600466 328.025600
     93     91    103     1   109.5600471 388.275200
     94     97     98     1   109.8000471 387.438400
     94     97     99     1   109.8000471 387.438400
     95     94     97     1   109.5600471 388.275200
     95     94     96     1   108.4600466 328.025600
     96     94     97     1   109.5600471 388.275200
     97    106    107     1   109.5600471 388.275200
     97    106    108     1   109.5600471 388.275200
     98     97    106     1   109.8000471 387.438400
     98     97     99     1   107.5800459 329.699200
     99     97    106     1   109.8000471 387.438400
    100    112    113     1   109.5600471 388.275200
    100    112    114     1   109.5600471 388.275200
    101    100    112     1   109.8000471 387.438400
    101    100    102     1   107.5800459 329.699200
    102    100    112     1   109.8000471 387.438400
    103    109    110     1   109.5600471 388.275200
    103    109    111     1   109.5600471 388.275200
    104    103    109     1   109.8000471 387.438400
    104    103    105     1   107.5800459 329.699200
    105    103    109     1   109.8000471 387.438400
    107    106    115     1   109.7800468 425.094400
    107    106    108     1   108.4600466 328.025600
    108    106    115     1   109.7800468 425.094400
    110    109    260     1   109.7800468 425.094400
    110    109    111     1   108.4600466 328.025600
    111    109    260     1   109.7800468 425.094400
    113    112    289     1   109.7800468 425.094400
    113    112    114     1   108.4600466 328.025600
    114    112    289     1   109.7800468 425.094400
    116    117    118     1   109.8800469 414.216000
    116    117    119     1   109.8800469 414.216000
    116    120    121     1   109.8800469 414.216000
    116    120    122     1   109.8800469 414.216000
    116    123    124     1   109.8800469 414.216000
    116    123    125     1   109.8800469 414.216000
    117    129    130     1   109.8000471 387.438400
    117    129    131     1   109.8000471 387.438400
    118    117    129     1   109.5600471 388.275200
    118    117    119     1   108.4600466 328.025600
    119    117    129     1   109.5600471 388.275200
    120    132    133     1   109.8000471 387.438400
    120    132    134     1   109.8000471 387.438400
    121    120    132     1   109.5600471 388.275200
    121    120    122     1   108.4600466 328.025600
    122    120    132     1   109.5600471 388.275200
    123    126    127     1   109.8000471 387.438400
    123    126    128     1   109.8000471 387.438400
    124    123    126     1   109.5600471 388.275200
    124    123    125     1   108.4600466 328.025600
    125    123    126     1   109.5600471 388.275200
    126    135    136     1   109.5600471 388.275200
    126    135    137     1   109.5600471 388.275200
    127    126    135     1   109.8000471 387.438400
    127    126    128     1   107.5800459 329.699200
    128    126    135     1   109.8000471 387.438400
    129    141    142     1   109.5600471 388.275200
    129    141    143     1   109.5600471 388.275200
    130    129    141     1   109.8000471 387.438400
    130    129    131     1   107.5800459 329.699200
    131    129    141     1   109.8000471 387.438400
    132    138    139     1   109.5600471 388.275200
    132    138    140     1   109.5600471 388.275200
    133    132    138     1   109.8000471 387.438400
    133    132    134     1   107.5800459 329.699200
    134    132    138     1   109.8000471 387.438400
    136    135    144     1   109.7800468 425.094400
    136    135    137     1   108.4600466 328.025600
    137    135    144     1   109.7800468 425.094400
    139    138    318     1   109.7800468 425.094400
    139    138    140     1   108.4600466 328.025600
    140    138    318     1   109.7800468 425.094400
    142    141    347     1   109.7800468 425.094400
    142    141    143     1   108.4600466 328.025600
    143    141    347     1   109.7800468 425.094400
    145    146    147     1   109.8800469 414.216000
    145    146    148     1   109.8800469 414.216000
    145    149    150     1   109.8800469 414.216000
    145    149    151     1   109.8800469 414.216000
    145    152    153     1   109.8800469 414.216000
    145    152    154     1   109.8800469 414.216000
    146    158    159     1   109.8000471 387.438400
    146    158    160     1   109.8000471 387.438400
    147    146    158     1   109.5600471 388.275200
    147    146    148     1   108.4600466 328.025600
    148    146    158     1   109.5600471 388.275200
    149    161    162     1   109.8000471 387.438400
    149    161    163     1   109.8000471 387.438400
    150    149    161     1   109.5600471 388.275200
    150    149    151     1   108.4600466 328.025600
    151    149    161     1   109.5600471 388.275200
    152    155    156     1   109.8000471 387.438400
    152    155    157     1   109.8000471 387.438400
    153    152    155     1   109.5600471 388.275200
    153    152    154     1   108.4600466 328.025600
    154    152    155     1   109.5600471 388.275200
    155    164    165     1   109.5600471 388.275200
    155    164    166     1   109.5600471 388.275200
    156    155    164     1   109.8000471 387.438400
    156    155    157     1   107.5800459 329.699200
    157    155    164     1   109.8000471 387.438400
    158    170    171     1   109.5600471 388.275200
    158    170    172     1   109.5600471 388.275200
    159    158    170     1   109.8000471 387.438400
    159    158    160     1   107.5800459 329.699200
    160    158    170     1   109.8000471 387.438400
    161    167    168     1   109.5600471 388.275200
    161    167    169     1   109.5600471 388.275200
    162    161    167     1   109.8000471 387.438400
    162    161    163     1   107.5800459 329.699200
    163    161    167     1   109.8000471 387.438400
    165    164    173     1   109.7800468 425.094400
    165    164    166     1   108.4600466 328.025600
    166    164    173     1   109.7800468 425.094400
    168    167    376     1   109.7800468 425.094400
    168    167    169     1   108.4600466 328.025600
    169    167    376     1   109.7800468 425.094400
    171    170    405     1   109.7800468 425.094400
    171    170    172     1   108.4600466 328.025600
    172    170    405     1   109.7800468 425.094400
    174    175    176     1   109.8800469 414.216000
    174    175    177     1   109.8800469 414.216000
    174    178    179     1   109.8800469 414.216000
    174    178    180     1   109.8800469 414.216000
    174    181    182     1   109.8800469 414.216000
    174    181    183     1   109.8800469 414.216000
    175    187    188     1   109.8000471 387.438400
    175    187    189     1   109.8000471 387.438400
    176    175    187     1   109.5600471 388.275200
    176    175    177     1   108.4600466 328.025600
    177    175    187     1   109.5600471 388.275200
    178    190    191     1   109.8000471 387.438400
    178    190    192     1   109.8000471 387.438400
    179    178    190     1   109.5600471 388.275200
    179    178    180     1   108.4600466 328.025600
    180    178    190     1   109.5600471 388.275200
    181    184    185     1   109.8000471 387.438400
    181    184    186     1   109.8000471 387.438400
    182    181    184     1   109.5600471 388.275200
    182    181    183     1   108.4600466 328.025600
    183    181    184     1   109.5600471 388.275200
    184    193    194     1   109.5600471 388.275200
    184    193    195     1   109.5600471 388.275200
    185    184    193     1   109.8000471 387.438400
    185    184    186     1   107.5800459 329.699200
    186    184    193     1   109.8000471 387.438400
    187    199    200     1   109.5600471 388.275200
    187    199    201     1   109.5600471 388.275200
    188    187    199     1   109.8000471 387.438400
    188    187    189     1   107.5800459 329.699200
    189    187    199     1   109.8000471 387.438400
    190    196    197     1   109.5600471 388.275200
    190    196    198     1   109.5600471 388.275200
    191    190    196     1   109.8000471 387.438400
    191    190    192     1   107.5800459 329.699200
    192    190    196     1   109.8000471 387.438400
    194    193    202     1   109.7800468 425.094400
    194    193    195     1   108.4600466 328.025600
    195    193    202     1   109.7800468 425.094400
    197    196    434     1   109.7800468 425.094400
    197    196    198     1   108.4600466 328.025600
    198    196    434     1   109.7800468 425.094400
    200    199    463     1   109.7800468 425.094400
    200    199    201     1   108.4600466 328.025600
    201    199    463     1   109.7800468 425.094400
    203    204    205     1   109.8800469 414.216000
    203    204    206     1   109.8800469 414.216000
    203    207    208     1   109.8800469 414.216000
    203    207    209     1   109.8800469 414.216000
    203    210    211     1   109.8800469 414.216000
    203    210    212     1   109.8800469 414.216000
    204    216    217     1   109.8000471 387.438400
    204    216    218     1   109.8000471 387.438400
    205    204    216     1   109.5600471 388.275200
    205    204    206     1   108.4600466 328.025600
    206    204    216     1   109.5600471 388.275200
    207    219    220     1   109.8000471 387.438400
    207    219    221     1   109.8000471 387.438400
    208    207    219     1   109.5600471 388.275200
    208    207    209     1   108.4600466 328.025600
    209    207    219     1   109.5600471 388.275200
    210    213    214     1   109.8000471 387.438400
    210    213    215     1   109.8000471 387.438400
    211    210    213     1   109.5600471 388.275200
    211    210    212     1   108.4600466 328.025600
    212    210    213     1   109.5600471 388.275200
    213    222    223     1   109.5600471 388.275200
    213    222    224     1   109.5600471 388.275200
    214    213    222     1   109.8000471 387.438400
    214    213    215     1   107.5800459 329.699200
    215    213    222     1   109.8000471 387.438400
    216    228    229     1   109.5600471 388.275200
    216    228    230     1   109.5600471 388.275200
    217    216    228     1   109.8000471 387.438400
    217    216    218     1   107.5800459 329.699200
    218    216    228     1   109.8000471 387.438400
    219    225    226     1   109.5600471 388.275200
    219    225    227     1   109.5600471 388.275200
    220    219    225     1   109.8000471 387.438400
    220    219    221     1   107.5800459 329.699200
    221    219    225     1   109.8000471 387.438400
    223    222    231     1   109.7800468 425.094400
    223    222    224     1   108.4600466 328.025600
    224    222    231     1   109.7800468 425.094400
    226    225    492     1   109.7800468 425.094400
    226    225    227     1   108.4600466 328.025600
    227    225    492     1   109.7800468 425.094400
    229    228    521     1   109.7800468 425.094400
    229    228    230     1   108.4600466 328.025600
    230    228    521     1   109.7800468 425.094400
    232    233    234     1   109.8800469 414.216000
    232    233    235     1   109.8800469 414.216000
    232    236    237     1   109.8800469 414.216000
    232    236    238     1   109.8800469 414.216000
    232    239    240     1   109.8800469 414.216000
    232    239    241     1   109.8800469 414.216000
    233    245    246     1   109.8000471 387.438400
    233    245    247     1   109.8000471 387.438400
    234    233    245     1   109.5600471 388.275200
    234    233    235     1   108.4600466 328.025600
    235    233    245     1   109.5600471 388.275200
    236    248    249     1   109.8000471 387.438400
    236    248    250     1   109.8000471 387.438400
    237    236    248     1   109.5600471 388.275200
    237    236    238     1   108.4600466 328.025600
    238    236    248     1   109.5600471 388.275200
    239    242    243     1   109.8000471 387.438400
    239    242    244     1   109.8000471 387.438400
    240    239    242     1   109.5600471 388.275200
    240    239    241     1   108.4600466 328.025600
    241    239    242     1   109.5600471 388.275200
    242    251    252     1   109.5600471 388.275200
    242    251    253     1   109.5600471 388.275200
    243    242    251     1   109.8000471 387.438400
    243    242    244     1   107.5800459 329.699200
    244    242    251     1   109.8000471 387.438400
    245    257    258     1   109.5600471 388.275200
    245    257    259     1   109.5600471 388.275200
    246    245    257     1   109.8000471 387.438400
    246    245    247     1   107.5800459 329.699200
    247    245    257     1   109.8000471 387.438400
    248    254    255     1   109.5600471 388.275200
    248    254    256     1   109.5600471 388.275200
    249    248    254     1   109.8000471 387.438400
    249    248    250     1   107.5800459 329.699200
    250    248    254     1   109.8000471 387.438400
    252    251    260     1   109.7800468 425.094400
    252    251    253     1   108.4600466 328.025600
    253    251    260     1   109.7800468 425.094400
    255    254    550     1   109.7800468 425.094400
    255    254    256     1   108.4600466 328.025600
    256    254    550     1   109.7800468 425.094400
    258    257    579     1   109.7800468 425.094400
    258    257    259     1   108.4600466 328.025600
    259    257    579     1   109.7800468 425.094400
    261    262    263     1   109.8800469 414.216000
    261    262    264     1   109.8800469 414.216000
    261    265    266     1   109.8800469 414.216000
    261    265    267     1   109.8800469 414.216000
    261    268    269     1   109.8800469 414.216000
    261    268    270     1   109.8800469 414.216000
    262    274    275     1   109.8000471 387.438400
    262    274    276     1   109.8000471 387.438400
    263    262    274     1   109.5600471 388.275200
    263    262    264     1   108.4600466 328.025600
    264    262    274     1   109.5600471 388.275200
    265    277    278     1   109.8000471 387.438400
    265    277    279     1   109.8000471 387.438400
    266    265    277     1   109.5600471 388.275200
    266    265    267     1   108.4600466 328.025600
    267    265    277     1   109.5600471 388.275200
    268    271    272     1   109.8000471 387.438400
    268    271    273     1   109.8000471 387.438400
    269    268    271     1   109.5600471 388.275200
    269    268    270     1   108.4600466 328.025600
    270    268    271     1   109.5600471 388.275200
    271    280    281     1   109.5600471 388.275200
    271    280    282     1   109.5600471 388.275200
    272    271    280     1   109.8000471 387.438400
    272    271    273     1   107.5800459 329.699200
    273    271    280     1   109.8000471 387.438400
    274    286    287     1   109.5600471 388.275200
    274    286    288     1   109.5600471 388.275200
    275    274    286     1   109.8000471 387.438400
    275    274    276     1   107.5800459 329.699200
    276    274    286     1   109.8000471 387.438400
    277    283    284     1   109.5600471 388.275200
    277    283    285     1   109.5600471 388.275200
    278    277    283     1   109.8000471 387.438400
    278    277    279     1   107.5800459 329.699200
    279    277    283     1   109.8000471 387.438400
    281    280    289     1   109.7800468 425.094400
    281    280    282     1   108.4600466 328.025600
    282    280    289     1   109.7800468 425.094400
    284    283    608     1   109.7800468 425.094400
    284    283    285     1   108.4600466 328.025600
    285    283    608     1   109.7800468 425.094400
    287    286    637     1   109.7800468 425.094400
    287    286    288     1   108.4600466 328.025600
    288    286    637     1   109.7800468 425.094400
    290    291    292     1   109.8800469 414.216000
    290    291    293     1   109.8800469 414.216000
    290    294    295     1   109.8800469 414.216000
    290    294    296     1   109.8800469 414.216000
    290    297    298     1   109.8800469 414.216000
    290    297    299     1   109.8800469 414.216000
    291    303    304     1   109.8000471 387.438400
    291    303    305     1   109.8000471 387.438400
    292    291    303     1   109.5600471 388.275200
    292    291    293     1   108.4600466 328.025600
    293    291    303     1   109.5600471 388.275200
    294    306    307     1   109.8000471 387.438400
    294    306    308     1   109.8000471 387.438400
    295    294    306     1   109.5600471 388.275200
    295    294    296     1   108.4600466 328.025600
    296    294    306     1   109.5600471 388.275200
    297    300    301     1   109.8000471 387.438400
    297    300    302     1   109.8000471 387.438400
    298    297    300     1   109.5600471 388.275200
    298    297    299     1   108.4600466 328.025600
    299    297    300     1   109.5600471 388.275200
    300    309    310     1   109.5600471 388.275200
    300    309    311     1   109.5600471 388.275200
    301    300    309     1   109.8000471 387.438400
    301    300    302     1   107.5800459 329.699200
    302    300    309     1   109.8000471 387.438400
    303    315    316     1   109.5600471 388.275200
    303    315    317     1   109.5600471 388.275200
    304    303    315     1   109.8000471 387.438400
    304    303    305     1   107.5800459 329.699200
    305    303    315     1   109.8000471 387.438400
    306    312    313     1   109.5600471 388.275200
    306    312    314     1   109.5600471 388.275200
    307    306    312     1   109.8000471 387.438400
    307    306    308     1   107.5800459 329.699200
    308    306    312     1   109.8000471 387.438400
    310    309    318     1   109.7800468 425.094400
    310    309    311     1   108.4600466 328.025600
    311    309    318     1   109.7800468 425.094400
    313    312    650     1   109.7800468 425.094400
    313    312    314     1   108.4600466 328.025600
    314    312    650     1   109.7800468 425.094400
    316    315    664     1   109.7800468 425.094400
    316    315    317     1   108.4600466 328.025600
    317    315    664     1   109.7800468 425.094400
    319    320    321     1   109.8800469 414.216000
    319    320    322     1   109.8800469 414.216000
    319    323    324     1   109.8800469 414.216000
    319    323    325     1   109.8800469 414.216000
    319    326    327     1   109.8800469 414.216000
    319    326    328     1   109.8800469 414.216000
    320    332    333     1   109.8000471 387.438400
    320    332    334     1   109.8000471 387.438400
    321    320    332     1   109.5600471 388.275200
    321    320    322     1   108.4600466 328.025600
    322    320    332     1   109.5600471 388.275200
    323    335    336     1   109.8000471 387.438400
    323    335    337     1   109.8000471 387.438400
    324    323    335     1   109.5600471 388.275200
    324    323    325     1   108.4600466 328.025600
    325    323    335     1   109.5600471 388.275200
    326    329    330     1   109.8000471 387.438400
    326    329    331     1   109.8000471 387.438400
    327    326    329     1   109.5600471 388.275200
    327    326    328     1   108.4600466 328.025600
    328    326    329     1   109.5600471 388.275200
    329    338    339     1   109.5600471 388.275200
    329    338    340     1   109.5600471 388.275200
    330    329    338     1   109.8000471 387.438400
    330    329    331     1   107.5800459 329.699200
    331    329    338     1   109.8000471 387.438400
    332    344    345     1   109.5600471 388.275200
    332    344    346     1   109.5600471 388.275200
    333    332    344     1   109.8000471 387.438400
    333    332    334     1   107.5800459 329.699200
    334    332    344     1   109.8000471 387.438400
    335    341    342     1   109.5600471 388.275200
    335    341    343     1   109.5600471 388.275200
    336    335    341     1   109.8000471 387.438400
    336    335    337     1   107.5800459 329.699200
    337    335    341     1   109.8000471 387.438400
    339    338    347     1   109.7800468 425.094400
    339    338    340     1   108.4600466 328.025600
    340    338    347     1   109.7800468 425.094400
    342    341    678     1   109.7800468 425.094400
    342    341    343     1   108.4600466 328.025600
    343    341    678     1   109.7800468 425.094400
    345    344    692     1   109.7800468 425.094400
    345    344    346     1   108.4600466 328.025600
    346    344    692     1   109.7800468 425.094400
    348    349    350     1   109.8800469 414.216000
    348    349    351     1   109.8800469 414.216000
    348    352    353     1   109.8800469 414.216000
    348    352    354     1   109.8800469 414.216000
    348    355    356     1   109.8800469 414.216000
    348    355    357     1   109.8800469 414.216000
    349    361    362     1   109.8000471 387.438400
    349    361    363     1   109.8000471 387.438400
    350    349    361     1   109.5600471 388.275200
    350    349    351     1   108.4600466 328.025600
    351    349    361     1   109.5600471 388.275200
    352    364    365     1   109.8000471 387.438400
    352    364    366     1   109.8000471 387.438400
    353    352    364     1   109.5600471 388.275200
    353    352    354     1   108.4600466 328.025600
    354    352    364     1   109.5600471 388.275200
    355    358    359     1   109.8000471 387.438400
    355    358    360     1   109.8000471 387.438400
    356    355    358     1   109.5600471 388.275200
    356    355    357     1   108.4600466 328.025600
    357    355    358     1   109.5600471 388.275200
    358    367    368     1   109.5600471 388.275200
    358    367    369     1   109.5600471 388.275200
    359    358    367     1   109.8000471 387.438400
    359    358    360     1   107.5800459 329.699200
    360    358    367     1   109.8000471 387.438400
    361    373    374     1   109.5600471 388.275200
    361    373    375     1   109.5600471 388.275200
    362    361    373     1   109.8000471 387.438400
    362    361    363     1   107.5800459 329.699200
    363    361    373     1   109.8000471 387.438400
    364    370    371     1   109.5600471 388.275200
    364    370    372     1   109.5600471 388.275200
    365    364    370     1   109.8000471 387.438400
    365    364    366     1   107.5800459 329.699200
    366    364    370     1   109.8000471 387.438400
    368    367    376     1   109.7800468 425.094400
    368    367    369     1   108.4600466 328.025600
    369    367    376     1   109.7800468 425.094400
    371    370    706     1   109.7800468 425.094400
    371    370    372     1   108.4600466 328.025600
    372    370    706     1   109.7800468 425.094400
    374    373    720     1   109.7800468 425.094400
    374    373    375     1   108.4600466 328.025600
    375    373    720     1   109.7800468 425.094400
    377    378    379     1   109.8800469 414.216000
    377    378    380     1   109.8800469 414.216000
    377    381    382     1   109.8800469 414.216000
    377    381    383     1   109.8800469 414.216000
    377    384    385     1   109.8800469 414.216000
    377    384    386     1   109.8800469 414.216000
    378    390    391     1   109.8000471 387.438400
    378    390    392     1   109.8000471 387.438400
    379    378    390     1   109.5600471 388.275200
    379    378    380     1   108.4600466 328.025600
    380    378    390     1   109.5600471 388.275200
    381    393    394     1   109.8000471 387.438400
    381    393    395     1   109.8000471 387.438400
    382    381    393     1   109.5600471 388.275200
    382    381    383     1   108.4600466 328.025600
    383    381    393     1   109.5600471 388.275200
    384    387    388     1   109.8000471 387.438400
    384    387    389     1   109.8000471 387.438400
    385    384    387     1   109.5600471 388.275200
    385    384    386     1   108.4600466 328.025600
    386    384    387     1   109.5600471 388.275200
    387    396    397     1   109.5600471 388.275200
    387    396    398     1   109.5600471 388.275200
    388    387    396     1   109.8000471 387.438400
    388    387    389     1   107.5800459 329.699200
    389    387    396     1   109.8000471 387.438400
    390    402    403     1   109.5600471 388.275200
    390    402    404     1   109.5600471 388.275200
    391    390    402     1   109.8000471 387.438400
    391    390    392     1   107.5800459 329.699200
    392    390    402     1   109.8000471 387.438400
    393    399    400     1   109.5600471 388.275200
    393    399    401     1   109.5600471 388.275200
    394    393    399     1   109.8000471 387.438400
    394    393    395     1   107.5800459 329.699200
    395    393    399     1   109.8000471 387.438400
    397    396    405     1   109.7800468 425.094400
    397    396    398     1   108.4600466 328.025600
    398    396    405     1   109.7800468 425.094400
    400    399    734     1   109.7800468 425.094400
    400    399    401     1   108.4600466 328.025600
    401    399    734     1   109.7800468 425.094400
    403    402    748     1   109.7800468 425.094400
    403    402    404     1   108.4600466 328.025600
    404    402    748     1   109.7800468 425.094400
    406    407    408     1   109.8800469 414.216000
    406    407    409     1   109.8800469 414.216000
    406    410    411     1   109.8800469 414.216000
    406    410    412     1   109.8800469 414.216000
    406    413    414     1   109.8800469 414.216000
    406    413    415     1   109.8800469 414.216000
    407    419    420     1   109.8000471 387.438400
    407    419    421     1   109.8000471 387.438400
    408    407    419     1   109.5600471 388.275200
    408    407    409     1   108.4600466 328.025600
    409    407    419     1   109.5600471 388.275200
    410    422    423     1   109.8000471 387.438400
    410    422    424     1   109.8000471 387.438400
    411    410    422     1   109.5600471 388.275200
    411    410    412     1   108.4600466 328.025600
    412    410    422     1   109.5600471 388.275200
    413    416    417     1   109.8000471 387.438400
    413    416    418     1   109.8000471 387.438400
    414    413    416     1   109.5600471 388.275200
    414    413    415     1   108.4600466 328.025600
    415    413    416     1   109.5600471 388.275200
    416    425    426     1   109.5600471 388.275200
    416    425    427     1   109.5600471 388.275200
    417    416    425     1   109.8000471 387.438400
    417    416    418     1   107.5800459 329.699200
    418    416    425     1   109.8000471 387.438400
    419    431    432     1   109.5600471 388.275200
    419    431    433     1   109.5600471 388.275200
    420    419    431     1   109.8000471 387.438400
    420    419    421     1   107.5800459 329.699200
    421    419    431     1   109.8000471 387.438400
    422    428    429     1   109.5600471 388.275200
    422    428    430     1   109.5600471 388.275200
    423    422    428     1   109.8000471 387.438400
    423    422    424     1   107.5800459 329.699200
    424    422    428     1   109.8000471 387.438400
    426    425    434     1   109.7800468 425.094400
    426    425    427     1   108.4600466 328.025600
    427    425    434     1   109.7800468 425.094400
    429    428    762     1   109.7800468 425.094400
    429    428    430     1   108.4600466 328.025600
    430    428    762     1   109.7800468 425.094400
    432    431    776     1   109.7800468 425.094400
    432    431    433     1   108.4600466 328.025600
    433    431    776     1   109.7800468 425.094400
    435    436    437     1   109.8800469 414.216000
    435    436    438     1   109.8800469 414.216000
    435    439    440     1   109.8800469 414.216000
    435    439    441     1   109.8800469 414.216000
    435    442    443     1   109.8800469 414.216000
    435    442    444     1   109.8800469 414.216000
    436    448    449     1   109.8000471 387.438400
    436    448    450     1   109.8000471 387.438400
    437    436    448     1   109.5600471 388.275200
    437    436    438     1   108.4600466 328.025600
    438    436    448     1   109.5600471 388.275200
    439    451    452     1   109.8000471 387.438400
    439    451    453     1   109.8000471 387.438400
    440    439    451     1   109.5600471 388.275200
    440    439    441     1   108.4600466 328.025600
    441    439    451     1   109.5600471 388.275200
    442    445    446     1   109.8000471 387.438400
    442    445    447     1   109.8000471 387.438400
    443    442    445     1   109.5600471 388.275200
    443    442    444     1   108.4600466 328.025600
    444    442    445     1   109.5600471 388.275200
    445    454    455     1   109.5600471 388.275200
    445    454    456     1   109.5600471 388.275200
    446    445    454     1   109.8000471 387.438400
    446    445    447     1   107.5800459 329.699200
    447    445    454     1   109.8000471 387.438400
    448    460    461     1   109.5600471 388.275200
    448    460    462     1   109.5600471 388.275200
    449    448    460     1   109.8000471 387.438400
    449    448    450     1   107.5800459 329.699200
    450    448    460     1   109.8000471 387.438400
    451    457    458     1   109.5600471 388.275200
    451    457    459     1   109.5600471 388.275200
    452    451    457     1   109.8000471 387.438400
    452    451    453     1   107.5800459 329.699200
    453    451    457     1   109.8000471 387.438400
    455    454    463     1   109.7800468 425.094400
    455    454    456     1   108.4600466 328.025600
    456    454    463     1   109.7800468 425.094400
    458    457    790     1   109.7800468 425.094400
    458    457    459     1   108.4600466 328.025600
    459    457    790     1   109.7800468 425.094400
    461    460    804     1   109.7800468 425.094400
    461    460    462     1   108.4600466 328.025600
    462    460    804     1   109.7800468 425.094400
    464    465    466     1   109.8800469 414.216000
    464    465    467     1   109.8800469 414.216000
    464    468    469     1   109.8800469 414.216000
    464    468    470     1   109.8800469 414.216000
    464    471    472     1   109.8800469 414.216000
    464    471    473     1   109.8800469 414.216000
    465    477    478     1   109.8000471 387.438400
    465    477    479     1   109.8000471 387.438400
    466    465    477     1   109.5600471 388.275200
    466    465    467     1   108.4600466 328.025600
    467    465    477     1   109.5600471 388.275200
    468    480    481     1   109.8000471 387.438400
    468    480    482     1   109.8000471 387.438400
    469    468    480     1   109.5600471 388.275200
    469    468    470     1   108.4600466 328.025600
    470    468    480     1   109.5600471 388.275200
    471    474    475     1   109.8000471 387.438400
    471    474    476     1   109.8000471 387.438400
    472    471    474     1   109.5600471 388.275200
    472    471    473     1   108.4600466 328.025600
    473    471    474     1   109.5600471 388.275200
    474    483    484     1   109.5600471 388.275200
    474    483    485     1   109.5600471 388.275200
    475    474    483     1   109.8000471 387.438400
    475    474    476     1   107.5800459 329.699200
    476    474    483     1   109.8000471 387.438400
    477    489    490     1   109.5600471 388.275200
    477    489    491     1   109.5600471 388.275200
    478    477    489     1   109.8000471 387.438400
    478    477    479     1   107.5800459 329.699200
    479    477    489     1   109.8000471 387.438400
    480    486    487     1   109.5600471 388.275200
    480    486    488     1   109.5600471 388.275200
    481    480    486     1   109.8000471 387.438400
    481    480    482     1   107.5800459 329.699200
    482    480    486     1   109.8000471 387.438400
    484    483    492     1   109.7800468 425.094400
    484    483    485     1   108.4600466 328.025600
    485    483    492     1   109.7800468 425.094400
    487    486    818     1   109.7800468 425.094400
    487    486    488     1   108.4600466 328.025600
    488    486    818     1   109.7800468 425.094400
    490    489    832     1   109.7800468 425.094400
    490    489    491     1   108.4600466 328.025600
    491    489    832     1   109.7800468 425.094400
    493    494    495     1   109.8800469 414.216000
    493    494    496     1   109.8800469 414.216000
    493    497    498     1   109.8800469 414.216000
    493    497    499     1   109.8800469 414.216000
    493    500    501     1   109.8800469 414.216000
    493    500    502     1   109.8800469 414.216000
    494    506    507     1   109.8000471 387.438400
    494    506    508     1   109.8000471 387.438400
    495    494    506     1   109.5600471 388.275200
    495    494    496     1   108.4600466 328.025600
    496    494    506     1   109.5600471 388.275200
    497    509    510     1   109.8000471 387.438400
    497    509    511     1   109.8000471 387.438400
    498    497    509     1   109.5600471 388.275200
    498    497    499     1   108.4600466 328.025600
    499    497    509     1   109.5600471 388.275200
    500    503    504     1   109.8000471 387.438400
    500    503    505     1   109.8000471 387.438400
    501    500    503     1   109.5600471 388.275200
    501    500    502     1   108.4600466 328.025600
    502    500    503     1   109.5600471 388.275200
    503    512    513     1   109.5600471 388.275200
    503    512    514     1   109.5600471 388.275200
    504    503    512     1   109.8000471 387.438400
    504    503    505     1   107.5800459 329.699200
    505    503    512     1   109.8000471 387.438400
    506    518    519     1   109.5600471 388.275200
    506    518    520     1   109.5600471 388.275200
    507    506    518     1   109.8000471 387.438400
    507    506    508     1   107.5800459 329.699200
    508    506    518     1   109.8000471 387.438400
    509    515    516     1   109.5600471 388.275200
    509    515    517     1   109.5600471 388.275200
    510    509    515     1   109.8000471 387.438400
    510    509    511     1   107.5800459 329.699200
    511    509    515     1   109.8000471 387.438400
    513    512    521     1   109.7800468 425.094400
    513    512    514     1   108.4600466 328.025600
    514    512    521     1   109.7800468 425.094400
    516    515    846     1   109.7800468 425.094400
    516    515    517     1   108.4600466 328.025600
    517    515    846     1   109.7800468 425.094400
    519    518    860     1   109.7800468 425.094400
    519    518    520     1   108.4600466 328.025600
    520    518    860     1   109.7800468 425.094400
    522    523    524     1   109.8800469 414.216000
    522    523    525     1   109.8800469 414.216000
    522    526    527     1   109.8800469 414.216000
    522    526    528     1   109.8800469 414.216000
    522    529    530     1   109.8800469 414.216000
    522    529    531     1   109.8800469 414.216000
    523    535    536     1   109.8000471 387.438400
    523    535    537     1   109.8000471 387.438400
    524    523    535     1   109.5600471 388.275200
    524    523    525     1   108.4600466 328.025600
    525    523    535     1   109.5600471 388.275200
    526    538    539     1   109.8000471 387.438400
    526    538    540     1   109.8000471 387.438400
    527    526    538     1   109.5600471 388.275200
    527    526    528     1   108.4600466 328.025600
    528    526    538     1   109.5600471 388.275200
    529    532    533     1   109.8000471 387.438400
    529    532    534     1   109.8000471 387.438400
    530    529    532     1   109.5600471 388.275200
    530    529    531     1   108.4600466 328.025600
    531    529    532     1   109.5600471 388.275200
    532    541    542     1   109.5600471 388.275200
    532    541    543     1   109.5600471 388.275200
    533    532    541     1   109.8000471 387.438400
    533    532    534     1   107.5800459 329.699200
    534    532    541     1   109.8000471 387.438400
    535    547    548     1   109.5600471 388.275200
    535    547    549     1   109.5600471 388.275200
    536    535    547     1   109.8000471 387.438400
    536    535    537     1   107.5800459 329.699200
    537    535    547     1   109.8000471 387.438400
    538    544    545     1   109.5600471 388.275200
    538    544    546     1   109.5600471 388.275200
    539    538    544     1   109.8000471 387.438400
    539    538    540     1   107.5800459 329.699200
    540    538    544     1   109.8000471 387.438400
    542    541    550     1   109.7800468 425.094400
    542    541    543     1   108.4600466 328.025600
    543    541    550     1   109.7800468 425.094400
    545    544    874     1   109.7800468 425.094400
    545    544    546     1   108.4600466 328.025600
    546    544    874     1   109.7800468 425.094400
    548    547    888     1   109.7800468 425.094400
    548    547    549     1   108.4600466 328.025600
    549    547    888     1   109.7800468 425.094400
    551    552    553     1   109.8800469 414.216000
    551    552    554     1   109.8800469 414.216000
    551    555    556     1   109.8800469 414.216000
    551    555    557     1   109.8800469 414.216000
    551    558    559     1   109.8800469 414.216000
    551    558    560     1   109.8800469 414.216000
    552    564    565     1   109.8000471 387.438400
    552    564    566     1   109.8000471 387.438400
    553    552    564     1   109.5600471 388.275200
    553    552    554     1   108.4600466 328.025600
    554    552    564     1   109.5600471 388.275200
    555    567    568     1   109.8000471 387.438400
    555    567    569     1   109.8000471 387.438400
    556    555    567     1   109.5600471 388.275200
    556    555    557     1   108.4600466 328.025600
    557    555    567     1   109.5600471 388.275200
    558    561    562     1   109.8000471 387.438400
    558    561    563     1   109.8000471 387.438400
    559    558    561     1   109.5600471 388.275200
    559    558    560     1   108.4600466 328.025600
    560    558    561     1   109.5600471 388.275200
    561    570    571     1   109.5600471 388.275200
    561    570    572     1   109.5600471 388.275200
    562    561    570     1   109.8000471 387.438400
    562    561    563     1   107.5800459 329.699200
    563    561    570     1   109.8000471 387.438400
    564    576    577     1   109.5600471 388.275200
    564    576    578     1   109.5600471 388.275200
    565    564    576     1   109.8000471 387.438400
    565    564    566     1   107.5800459 329.699200
    566    564    576     1   109.8000471 387.438400
    567    573    574     1   109.5600471 388.275200
    567    573    575     1   109.5600471 388.275200
    568    567    573     1   109.8000471 387.438400
    568    567    569     1   107.5800459 329.699200
    569    567    573     1   109.8000471 387.438400
    571    570    579     1   109.7800468 425.094400
    571    570    572     1   108.4600466 328.025600
    572    570    579     1   109.7800468 425.094400
    574    573    902     1   109.7800468 425.094400
    574    573    575     1   108.4600466 328.025600
    575    573    902     1   109.7800468 425.094400
    577    576    916     1   109.7800468 425.094400
    577    576    578     1   108.4600466 328.025600
    578    576    916     1   109.7800468 425.094400
    580    581    582     1   109.8800469 414.216000
    580    581    583     1   109.8800469 414.216000
    580    584    585     1   109.8800469 414.216000
    580    584    586     1   109.8800469 414.216000
    580    587    588     1   109.8800469 414.216000
    580    587    589     1   109.8800469 414.216000
    581    593    594     1   109.8000471 387.438400
    581    593    595     1   109.8000471 387.438400
    582    581    593     1   109.5600471 388.275200
    582    581    583     1   108.4600466 328.025600
    583    581    593     1   109.5600471 388.275200
    584    596    597     1   109.8000471 387.438400
    584    596    598     1   109.8000471 387.438400
    585    584    596     1   109.5600471 388.275200
    585    584    586     1   108.4600466 328.025600
    586    584    596     1   109.5600471 388.275200
    587    590    591     1   109.8000471 387.438400
    587    590    592     1   109.8000471 387.438400
    588    587    590     1   109.5600471 388.275200
    588    587    589     1   108.4600466 328.025600
    589    587    590     1   109.5600471 388.275200
    590    599    600     1   109.5600471 388.275200
    590    599    601     1   109.5600471 388.275200
    591    590    599     1   109.8000471 387.438400
    591    590    592     1   107.5800459 329.699200
    592    590    599     1   109.8000471 387.438400
    593    605    606     1   109.5600471 388.275200
    593    605    607     1   109.5600471 388.275200
    594    593    605     1   109.8000471 387.438400
    594    593    595     1   107.5800459 329.699200
    595    593    605     1   109.8000471 387.438400
    596    602    603     1   109.5600471 388.275200
    596    602    604     1   109.5600471 388.275200
    597    596    602     1   109.8000471 387.438400
    597    596    598     1   107.5800459 329.699200
    598    596    602     1   109.8000471 387.438400
    600    599    608     1   109.7800468 425.094400
    600    599    601     1   108.4600466 328.025600
    601    599    608     1   109.7800468 425.094400
    603    602    930     1   109.7800468 425.094400
    603    602    604     1   108.4600466 328.025600
    604    602    930     1   109.7800468 425.094400
    606    605    944     1   109.7800468 425.094400
    606    605    607     1   108.4600466 328.025600
    607    605    944     1   109.7800468 425.094400
    609    610    611     1   109.8800469 414.216000
    609    610    612     1   109.8800469 414.216000
    609    613    614     1   109.8800469 414.216000
    609    613    615     1   109.8800469 414.216000
    609    616    617     1   109.8800469 414.216000
    609    616    618     1   109.8800469 414.216000
    610    622    623     1   109.8000471 387.438400
    610    622    624     1   109.8000471 387.438400
    611    610    622     1   109.5600471 388.275200
    611    610    612     1   108.4600466 328.025600
    612    610    622     1   109.5600471 388.275200
    613    625    626     1   109.8000471 387.438400
    613    625    627     1   109.8000471 387.438400
    614    613    625     1   109.5600471 388.275200
    614    613    615     1   108.4600466 328.025600
    615    613    625     1   109.5600471 388.275200
    616    619    620     1   109.8000471 387.438400
    616    619    621     1   109.8000471 387.438400
    617    616    619     1   109.5600471 388.275200
    617    616    618     1   108.4600466 328.025600
    618    616    619     1   109.5600471 388.275200
    619    628    629     1   109.5600471 388.275200
    619    628    630     1   109.5600471 388.275200
    620    619    628     1   109.8000471 387.438400
    620    619    621     1   107.5800459 329.699200
    621    619    628     1   109.8000471 387.438400
    622    634    635     1   109.5600471 388.275200
    622    634    636     1   109.5600471 388.275200
    623    622    634     1   109.8000471 387.438400
    623    622    624     1   107.5800459 329.699200
    624    622    634     1   109.8000471 387.438400
    625    631    632     1   109.5600471 388.275200
    625    631    633     1   109.5600471 388.275200
    626    625    631     1   109.8000471 387.438400
    626    625    627     1   107.5800459 329.699200
    627    625    631     1   109.8000471 387.438400
    629    628    637     1   109.7800468 425.094400
    629    628    630     1   108.4600466 328.025600
    630    628    637     1   109.7800468 425.094400
    632    631    958     1   109.7800468 425.094400
    632    631    633     1   108.4600466 328.025600
    633    631    958     1   109.7800468 425.094400
    635    634    972     1   109.7800468 425.094400
    635    634    636     1   108.4600466 328.025600
    636    634    972     1   109.7800468 425.094400
    638    641    642     1   109.8000471 387.438400
    638    641    643     1   109.8000471 387.438400
    638    647    648     1   110.1100470 384.091200
    638    647    649     1   110.1100470 384.091200
    638    647    651     1   110.1100470 384.091200
    639    638    641     1   110.5600475 386.601600
    639    638    647     1   108.0100461 406.684800
    639    638    640     1   109.7500473 328.025600
    640    638    641     1   110.5600475 386.601600
    640    638    647     1   108.0100461 406.684800
    641    644    645     1   109.5600471 388.275200
    641    644    646     1   109.5600471 388.275200
    642    641    644     1   109.8000471 387.438400
    642    641    643     1   107.5800459 329.699200
    643    641    644     1   109.8000471 387.438400
    645    644    650     1   109.7800468 425.094400
    645    644    646     1   108.4600466 328.025600
    646    644    650     1   109.7800468 425.094400
    648    647    649     1   108.3000464 339.740800
    648    647    651     1   108.3000464 339.740800
    649    647    651     1   108.3000464 339.740800
    652    655    656     1   109.8000471 387.438400
    652    655    657     1   109.8000471 387.438400
    652    661    662     1   110.1100470 384.091200
    652    661    663     1   110.1100470 384.091200
    652    661    665     1   110.1100470 384.091200
    653    652    655     1   110.5600475 386.601600
    653    652    661     1   108.0100461 406.684800
    653    652    654     1   109.7500473 328.025600
    654    652    655     1   110.5600475 386.601600
    654    652    661     1   108.0100461 406.684800
    655    658    659     1   109.5600471 388.275200
    655    658    660     1   109.5600471 388.275200
    656    655    658     1   109.8000471 387.438400
    656    655    657     1   107.5800459 329.699200
    657    655    658     1   109.8000471 387.438400
    659    658    664     1   109.7800468 425.094400
    659    658    660     1   108.4600466 328.025600
    660    658    664     1   109.7800468 425.094400
    662    661    663     1   108.3000464 339.740800
    662    661    665     1   108.3000464 339.740800
    663    661    665     1   108.3000464 339.740800
    666    669    670     1   109.8000471 387.438400
    666    669    671     1   109.8000471 387.438400
    666    675    676     1   110.1100470 384.091200
    666    675    677     1   110.1100470 384.091200
    666    675    679     1   110.1100470 384.091200
    667    666    669     1   110.5600475 386.601600
    667    666    675     1   108.0100461 406.684800
    667    666    668     1   109.7500473 328.025600
    668    666    669     1   110.5600475 386.601600
    668    666    675     1   108.0100461 406.684800
    669    672    673     1   109.5600471 388.275200
    669    672    674     1   109.5600471 388.275200
    670    669    672     1   109.8000471 387.438400
    670    669    671     1   107.5800459 329.699200
    671    669    672     1   109.8000471 387.438400
    673    672    678     1   109.7800468 425.094400
    673    672    674     1   108.4600466 328.025600
    674    672    678     1   109.7800468 425.094400
    676    675    677     1   108.3000464 339.740800
    676    675    679     1   108.3000464 339.740800
    677    675    679     1   108.3000464 339.740800
    680    683    684     1   109.8000471 387.438400
    680    683    685     1   109.8000471 387.438400
    680    689    690     1   110.1100470 384.091200
    680    689    691     1   110.1100470 384.091200
    680    689    693     1   110.1100470 384.091200
    681    680    683     1   110.5600475 386.601600
    681    680    689     1   108.0100461 406.684800
    681    680    682     1   109.7500473 328.025600
    682    680    683     1   110.5600475 386.601600
    682    680    689     1   108.0100461 406.684800
    683    686    687     1   109.5600471 388.275200
    683    686    688     1   109.5600471 388.275200
    684    683    686     1   109.8000471 387.438400
    684    683    685     1   107.5800459 329.699200
    685    683    686     1   109.8000471 387.438400
    687    686    692     1   109.7800468 425.094400
    687    686    688     1   108.4600466 328.025600
    688    686    692     1   109.7800468 425.094400
    690    689    691     1   108.3000464 339.740800
    690    689    693     1   108.3000464 339.740800
    691    689    693     1   108.3000464 339.740800
    694    697    698     1   109.8000471 387.438400
    694    697    699     1   109.8000471 387.438400
    694    703    704     1   110.1100470 384.091200
    694    703    705     1   110.1100470 384.091200
    694    703    707     1   110.1100470 384.091200
    695    694    697     1   110.5600475 386.601600
    695    694    703     1   108.0100461 406.684800
    695    694    696     1   109.7500473 328.025600
    696    694    697     1   110.5600475 386.601600
    696    694    703     1   108.0100461 406.684800
    697    700    701     1   109.5600471 388.275200
    697    700    702     1   109.5600471 388.275200
    698    697    700     1   109.8000471 387.438400
    698    697    699     1   107.5800459 329.699200
    699    697    700     1   109.8000471 387.438400
    701    700    706     1   109.7800468 425.094400
    701    700    702     1   108.4600466 328.025600
    702    700    706     1   109.7800468 425.094400
    704    703    705     1   108.3000464 339.740800
    704    703    707     1   108.3000464 339.740800
    705    703    707     1   108.3000464 339.740800
    708    711    712     1   109.8000471 387.438400
    708    711    713     1   109.8000471 387.438400
    708    717    718     1   110.1100470 384.091200
    708    717    719     1   110.1100470 384.091200
    708    717    721     1   110.1100470 384.091200
    709    708    711     1   110.5600475 386.601600
    709    708    717     1   108.0100461 406.684800
    709    708    710     1   109.7500473 328.025600
    710    708    711     1   110.5600475 386.601600
    710    708    717     1   108.0100461 406.684800
    711    714    715     1   109.5600471 388.275200
    711    714    716     1   109.5600471 388.275200
    712    711    714     1   109.8000471 387.438400
    712    711    713     1   107.5800459 329.699200
    713    711    714     1   109.8000471 387.438400
    715    714    720     1   109.7800468 425.094400
    715    714    716     1   108.4600466 328.025600
    716    714    720     1   109.7800468 425.094400
    718    717    719     1   108.3000464 339.740800
    718    717    721     1   108.3000464 339.740800
    719    717    721     1   108.3000464 339.740800
    722    725    726     1   109.8000471 387.438400
    722    725    727     1   109.8000471 387.438400
    722    731    732     1   110.1100470 384.091200
    722    731    733     1   110.1100470 384.091200
    722    731    735     1   110.1100470 384.091200
    723    722    725     1   110.5600475 386.601600
    723    722    731     1   108.0100461 406.684800
    723    722    724     1   109.7500473 328.025600
    724    722    725     1   110.5600475 386.601600
    724    722    731     1   108.0100461 406.684800
    725    728    729     1   109.5600471 388.275200
    725    728    730     1   109.5600471 388.275200
    726    725    728     1   109.8000471 387.438400
    726    725    727     1   107.5800459 329.699200
    727    725    728     1   109.8000471 387.438400
    729    728    734     1   109.7800468 425.094400
    729    728    730     1   108.4600466 328.025600
    730    728    734     1   109.7800468 425.094400
    732    731    733     1   108.3000464 339.740800
    732    731    735     1   108.3000464 339.740800
    733    731    735     1   108.3000464 339.740800
    736    739    740     1   109.8000471 387.438400
    736    739    741     1   109.8000471 387.438400
    736    745    746     1   110.1100470 384.091200
    736    745    747     1   110.1100470 384.091200
    736    745    749     1   110.1100470 384.091200
    737    736    739     1   110.5600475 386.601600
    737    736    745     1   108.0100461 406.684800
    737    736    738     1   109.7500473 328.025600
    738    736    739     1   110.5600475 386.601600
    738    736    745     1   108.0100461 406.684800
    739    742    743     1   109.5600471 388.275200
    739    742    744     1   109.5600471 388.275200
    740    739    742     1   109.8000471 387.438400
    740    739    741     1   107.5800459 329.699200
    741    739    742     1   109.8000471 387.438400
    743    742    748     1   109.7800468 425.094400
    743    742    744     1   108.4600466 328.025600
    744    742    748     1   109.7800468 425.094400
    746    745    747     1   108.3000464 339.740800
    746    745    749     1   108.3000464 339.740800
    747    745    749     1   108.3000464 339.740800
    750    753    754     1   109.8000471 387.438400
    750    753    755     1   109.8000471 387.438400
    750    759    760     1   110.1100470 384.091200
    750    759    761     1   110.1100470 384.091200
    750    759    763     1   110.1100470 384.091200
    751    750    753     1   110.5600475 386.601600
    751    750    759     1   108.0100461 406.684800
    751    750    752     1   109.7500473 328.025600
    752    750    753     1   110.5600475 386.601600
    752    750    759     1   108.0100461 406.684800
    753    756    757     1   109.5600471 388.275200
    753    756    758     1   109.5600471 388.275200
    754    753    756     1   109.8000471 387.438400
    754    753    755     1   107.5800459 329.699200
    755    753    756     1   109.8000471 387.438400
    757    756    762     1   109.7800468 425.094400
    757    756    758     1   108.4600466 328.025600
    758    756    762     1   109.7800468 425.094400
    760    759    761     1   108.3000464 339.740800
    760    759    763     1   108.3000464 339.740800
    761    759    763     1   108.3000464 339.740800
    764    767    768     1   109.8000471 387.438400
    764    767    769     1   109.8000471 387.438400
    764    773    774     1   110.1100470 384.091200
    764    773    775     1   110.1100470 384.091200
    764    773    777     1   110.1100470 384.091200
    765    764    767     1   110.5600475 386.601600
    765    764    773     1   108.0100461 406.684800
    765    764    766     1   109.7500473 328.025600
    766    764    767     1   110.5600475 386.601600
    766    764    773     1   108.0100461 406.684800
    767    770    771     1   109.5600471 388.275200
    767    770    772     1   109.5600471 388.275200
    768    767    770     1   109.8000471 387.438400
    768    767    769     1   107.5800459 329.699200
    769    767    770     1   109.8000471 387.438400
    771    770    776     1   109.7800468 425.094400
    771    770    772     1   108.4600466 328.025600
    772    770    776     1   109.7800468 425.094400
    774    773    775     1   108.3000464 339.740800
    774    773    777     1   108.3000464 339.740800
    775    773    777     1   108.3000464 339.740800
    778    781    782     1   109.8000471 387.438400
    778    781    783     1   109.8000471 387.438400
    778    787    788     1   110.1100470 384.091200
    778    787    789     1   110.1100470 384.091200
    778    787    791     1   110.1100470 384.091200
    779    778    781     1   110.5600475 386.601600
    779    778    787     1   108.0100461 406.684800
    779    778    780     1   109.7500473 328.025600
    780    778    781     1   110.5600475 386.601600
    780    778    787     1   108.0100461 406.684800
    781    784    785     1   109.5600471 388.275200
    781    784    786     1   109.5600471 388.275200
    782    781    784     1   109.8000471 387.438400
    782    781    783     1   107.5800459 329.699200
    783    781    784     1   109.8000471 387.438400
    785    784    790     1   109.7800468 425.094400
    785    784    786     1   108.4600466 328.025600
    786    784    790     1   109.7800468 425.094400
    788    787    789     1   108.3000464 339.740800
    788    787    791     1   108.3000464 339.740800
    789    787    791     1   108.3000464 339.740800
    792    795    796     1   109.8000471 387.438400
    792    795    797     1   109.8000471 387.438400
    792    801    802     1   110.1100470 384.091200
    792    801    803     1   110.1100470 384.091200
    792    801    805     1   110.1100470 384.091200
    793    792    795     1   110.5600475 386.601600
    793    792    801     1   108.0100461 406.684800
    793    792    794     1   109.7500473 328.025600
    794    792    795     1   110.5600475 386.601600
    794    792    801     1   108.0100461 406.684800
    795    798    799     1   109.5600471 388.275200
    795    798    800     1   109.5600471 388.275200
    796    795    798     1   109.8000471 387.438400
    796    795    797     1   107.5800459 329.699200
    797    795    798     1   109.8000471 387.438400
    799    798    804     1   109.7800468 425.094400
    799    798    800     1   108.4600466 328.025600
    800    798    804     1   109.7800468 425.094400
    802    801    803     1   108.3000464 339.740800
    802    801    805     1   108.3000464 339.740800
    803    801    805     1   108.3000464 339.740800
    806    809    810     1   109.8000471 387.438400
    806    809    811     1   109.8000471 387.438400
    806    815    816     1   110.1100470 384.091200
    806    815    817     1   110.1100470 384.091200
    806    815    819     1   110.1100470 384.091200
    807    806    809     1   110.5600475 386.601600
    807    806    815     1   108.0100461 406.684800
    807    806    808     1   109.7500473 328.025600
    808    806    809     1   110.5600475 386.601600
    808    806    815     1   108.0100461 406.684800
    809    812    813     1   109.5600471 388.275200
    809    812    814     1   109.5600471 388.275200
    810    809    812     1   109.8000471 387.438400
    810    809    811     1   107.5800459 329.699200
    811    809    812     1   109.8000471 387.438400
    813    812    818     1   109.7800468 425.094400
    813    812    814     1   108.4600466 328.025600
    814    812    818     1   109.7800468 425.094400
    816    815    817     1   108.3000464 339.740800
    816    815    819     1   108.3000464 339.740800
    817    815    819     1   108.3000464 339.740800
    820    823    824     1   109.8000471 387.438400
    820    823    825     1   109.8000471 387.438400
    820    829    830     1   110.1100470 384.091200
    820    829    831     1   110.1100470 384.091200
    820    829    833     1   110.1100470 384.091200
    821    820    823     1   110.5600475 386.601600
    821    820    829     1   108.0100461 406.684800
    821    820    822     1   109.7500473 328.025600
    822    820    823     1   110.5600475 386.601600
    822    820    829     1   108.0100461 406.684800
    823    826    827     1   109.5600471 388.275200
    823    826    828     1   109.5600471 388.275200
    824    823    826     1   109.8000471 387.438400
    824    823    825     1   107.5800459 329.699200
    825    823    826     1   109.8000471 387.438400
    827    826    832     1   109.7800468 425.094400
    827    826    828     1   108.4600466 328.025600
    828    826    832     1   109.7800468 425.094400
    830    829    831     1   108.3000464 339.740800
    830    829    833     1   108.3000464 339.740800
    831    829    833     1   108.3000464 339.740800
    834    837    838     1   109.8000471 387.438400
    834    837    839     1   109.8000471 387.438400
    834    843    844     1   110.1100470 384.091200
    834    843    845     1   110.1100470 384.091200
    834    843    847     1   110.1100470 384.091200
    835    834    837     1   110.5600475 386.601600
    835    834    843     1   108.0100461 406.684800
    835    834    836     1   109.7500473 328.025600
    836    834    837     1   110.5600475 386.601600
    836    834    843     1   108.0100461 406.684800
    837    840    841     1   109.5600471 388.275200
    837    840    842     1   109.5600471 388.275200
    838    837    840     1   109.8000471 387.438400
    838    837    839     1   107.5800459 329.699200
    839    837    840     1   109.8000471 387.438400
    841    840    846     1   109.7800468 425.094400
    841    840    842     1   108.4600466 328.025600
    842    840    846     1   109.7800468 425.094400
    844    843    845     1   108.3000464 339.740800
    844    843    847     1   108.3000464 339.740800
    845    843    847     1   108.3000464 339.740800
    848    851    852     1   109.8000471 387.438400
    848    851    853     1   109.8000471 387.438400
    848    857    858     1   110.1100470 384.091200
    848    857    859     1   110.1100470 384.091200
    848    857    861     1   110.1100470 384.091200
    849    848    851     1   110.5600475 386.601600
    849    848    857     1   108.0100461 406.684800
    849    848    850     1   109.7500473 328.025600
    850    848    851     1   110.5600475 386.601600
    850    848    857     1   108.0100461 406.684800
    851    854    855     1   109.5600471 388.275200
    851    854    856     1   109.5600471 388.275200
    852    851    854     1   109.8000471 387.438400
    852    851    853     1   107.5800459 329.699200
    853    851    854     1   109.8000471 387.438400
    855    854    860     1   109.7800468 425.094400
    855    854    856     1   108.4600466 328.025600
    856    854    860     1   109.7800468 425.094400
    858    857    859     1   108.3000464 339.740800
    858    857    861     1   108.3000464 339.740800
    859    857    861     1   108.3000464 339.740800
    862    865    866     1   109.8000471 387.438400
    862    865    867     1   109.8000471 387.438400
    862    871    872     1   110.1100470 384.091200
    862    871    873     1   110.1100470 384.091200
    862    871    875     1   110.1100470 384.091200
    863    862    865     1   110.5600475 386.601600
    863    862    871     1   108.0100461 406.684800
    863    862    864     1   109.7500473 328.025600
    864    862    865     1   110.5600475 386.601600
    864    862    871     1   108.0100461 406.684800
    865    868    869     1   109.5600471 388.275200
    865    868    870     1   109.5600471 388.275200
    866    865    868     1   109.8000471 387.438400
    866    865    867     1   107.5800459 329.699200
    867    865    868     1   109.8000471 387.438400
    869    868    874     1   109.7800468 425.094400
    869    868    870     1   108.4600466 328.025600
    870    868    874     1   109.7800468 425.094400
    872    871    873     1   108.3000464 339.740800
    872    871    875     1   108.3000464 339.740800
    873    871    875     1   108.3000464 339.740800
    876    879    880     1   109.8000471 387.438400
    876    879    881     1   109.8000471 387.438400
    876    885    886     1   110.1100470 384.091200
    876    885    887     1   110.1100470 384.091200
    876    885    889     1   110.1100470 384.091200
    877    876    879     1   110.5600475 386.601600
    877    876    885     1   108.0100461 406.684800
    877    876    878     1   109.7500473 328.025600
    878    876    879     1   110.5600475 386.601600
    878    876    885     1   108.0100461 406.684800
    879    882    883     1   109.5600471 388.275200
    879    882    884     1   109.5600471 388.275200
    880    879    882     1   109.8000471 387.438400
    880    879    881     1   107.5800459 329.699200
    881    879    882     1   109.8000471 387.438400
    883    882    888     1   109.7800468 425.094400
    883    882    884     1   108.4600466 328.025600
    884    882    888     1   109.7800468 425.094400
    886    885    887     1   108.3000464 339.740800
    886    885    889     1   108.3000464 339.740800
    887    885    889     1   108.3000464 339.740800
    890    893    894     1   109.8000471 387.438400
    890    893    895     1   109.8000471 387.438400
    890    899    900     1   110.1100470 384.091200
    890    899    901     1   110.1100470 384.091200
    890    899    903     1   110.1100470 384.091200
    891    890    893     1   110.5600475 386.601600
    891    890    899     1   108.0100461 406.684800
    891    890    892     1   109.7500473 328.025600
    892    890    893     1   110.5600475 386.601600
    892    890    899     1   108.0100461 406.684800
    893    896    897     1   109.5600471 388.275200
    893    896    898     1   109.5600471 388.275200
    894    893    896     1   109.8000471 387.438400
    894    893    895     1   107.5800459 329.699200
    895    893    896     1   109.8000471 387.438400
    897    896    902     1   109.7800468 425.094400
    897    896    898     1   108.4600466 328.025600
    898    896    902     1   109.7800468 425.094400
    900    899    901     1   108.3000464 339.740800
    900    899    903     1   108.3000464 339.740800
    901    899    903     1   108.3000464 339.740800
    904    907    908     1   109.8000471 387.438400
    904    907    909     1   109.8000471 387.438400
    904    913    914     1   110.1100470 384.091200
    904    913    915     1   110.1100470 384.091200
    904    913    917     1   110.1100470 384.091200
    905    904    907     1   110.5600475 386.601600
    905    904    913     1   108.0100461 406.684800
    905    904    906     1   109.7500473 328.025600
    906    904    907     1   110.5600475 386.601600
    906    904    913     1   108.0100461 406.684800
    907    910    911     1   109.5600471 388.275200
    907    910    912     1   109.5600471 388.275200
    908    907    910     1   109.8000471 387.438400
    908    907    909     1   107.5800459 329.699200
    909    907    910     1   109.8000471 387.438400
    911    910    916     1   109.7800468 425.094400
    911    910    912     1   108.4600466 328.025600
    912    910    916     1   109.7800468 425.094400
    914    913    915     1   108.3000464 339.740800
    914    913    917     1   108.3000464 339.740800
    915    913    917     1   108.3000464 339.740800
    918    921    922     1   109.8000471 387.438400
    918    921    923     1   109.8000471 387.438400
    918    927    928     1   110.1100470 384.091200
    918    927    929     1   110.1100470 384.091200
    918    927    931     1   110.1100470 384.091200
    919    918    921     1   110.5600475 386.601600
    919    918    927     1   108.0100461 406.684800
    919    918    920     1   109.7500473 328.025600
    920    918    921     1   110.5600475 386.601600
    920    918    927     1   108.0100461 406.684800
    921    924    925     1   109.5600471 388.275200
    921    924    926     1   109.5600471 388.275200
    922    921    924     1   109.8000471 387.438400
    922    921    923     1   107.5800459 329.699200
    923    921    924     1   109.8000471 387.438400
    925    924    930     1   109.7800468 425.094400
    925    924    926     1   108.4600466 328.025600
    926    924    930     1   109.7800468 425.094400
    928    927    929     1   108.3000464 339.740800
    928    927    931     1   108.3000464 339.740800
    929    927    931     1   108.3000464 339.740800
    932    935    936     1   109.8000471 387.438400
    932    935    937     1   109.8000471 387.438400
    932    941    942     1   110.1100470 384.091200
    932    941    943     1   110.1100470 384.091200
    932    941    945     1   110.1100470 384.091200
    933    932    935     1   110.5600475 386.601600
    933    932    941     1   108.0100461 406.684800
    933    932    934     1   109.7500473 328.025600
    934    932    935     1   110.5600475 386.601600
    934    932    941     1   108.0100461 406.684800
    935    938    939     1   109.5600471 388.275200
    935    938    940     1   109.5600471 388.275200
    936    935    938     1   109.8000471 387.438400
    936    935    937     1   107.5800459 329.699200
    937    935    938     1   109.8000471 387.438400
    939    938    944     1   109.7800468 425.094400
    939    938    940     1   108.4600466 328.025600
    940    938    944     1   109.7800468 425.094400
    942    941    943     1   108.3000464 339.740800
    942    941    945     1   108.3000464 339.740800
    943    941    945     1   108.3000464 339.740800
    946    949    950     1   109.8000471 387.438400
    946    949    951     1   109.8000471 387.438400
    946    955    956     1   110.1100470 384.091200
    946    955    957     1   110.1100470 384.091200
    946    955    959     1   110.1100470 384.091200
    947    946    949     1   110.5600475 386.601600
    947    946    955     1   108.0100461 406.684800
    947    946    948     1   109.7500473 328.025600
    948    946    949     1   110.5600475 386.601600
    948    946    955     1   108.0100461 406.684800
    949    952    953     1   109.5600471 388.275200
    949    952    954     1   109.5600471 388.275200
    950    949    952     1   109.8000471 387.438400
    950    949    951     1   107.5800459 329.699200
    951    949    952     1   109.8000471 387.438400
    953    952    958     1   109.7800468 425.094400
    953    952    954     1   108.4600466 328.025600
    954    952    958     1   109.7800468 425.094400
    956    955    957     1   108.3000464 339.740800
    956    955    959     1   108.3000464 339.740800
    957    955    959     1   108.3000464 339.740800
    960    963    964     1   109.8000471 387.438400
    960    963    965     1   109.8000471 387.438400
    960    969    970     1   110.1100470 384.091200
    960    969    971     1   110.1100470 384.091200
    960    969    973     1   110.1100470 384.091200
    961    960    963     1   110.5600475 386.601600
    961    960    969     1   108.0100461 406.684800
    961    960    962     1   109.7500473 328.025600
    962    960    963     1   110.5600475 386.601600
    962    960    969     1   108.0100461 406.684800
    963    966    967     1   109.5600471 388.275200
    963    966    968     1   109.5600471 388.275200
    964    963    966     1   109.8000471 387.438400
    964    963    965     1   107.5800459 329.699200
    965    963    966     1   109.8000471 387.438400
    967    966    972     1   109.7800468 425.094400
    967    966    968     1   108.4600466 328.025600
    968    966    972     1   109.7800468 425.094400
    970    969    971     1   108.3000464 339.740800
    970    969    973     1   108.3000464 339.740800
    971    969    973     1   108.3000464 339.740800

[ dihedrals ]
;    ai     aj     ak     al funct         c0         c1         c2         c3         c4         c5
      1      2     14     26     1  0.0000000  0.6508444  3
      1      5     17     20     1  0.0000000  0.6508444  3
      1      8     11     23     1  0.0000000  0.6508444  3
      2      1      5     17     1  180.0000771  2.0083200  2
      2      1      5     17     1  0.0000000  1.2552000  3
      2      1      8     11     1  180.0000771  2.0083200  2
      2      1      8     11     1  0.0000000  1.2552000  3
      2     14     26    115     1  0.0000000  0.6508444  3
      5      1      2     14     1  180.0000771  2.0083200  2
      5      1      2     14     1  0.0000000  1.2552000  3
      5      1      8     11     1  180.0000771  2.0083200  2
      5      1      8     11     1  0.0000000  1.2552000  3
      5     17     20     57     1  0.0000000  0.6508444  3
      8      1      2     14     1  180.0000771  2.0083200  2
      8      1      2     14     1  0.0000000  1.2552000  3
      8      1      5     17     1  180.0000771  2.0083200  2
      8      1      5     17     1  0.0000000  1.2552000  3
      8     11     23     86     1  0.0000000  0.6508444  3
     11     23     86     77     1  180.0000771  0.4184000  2
     11     23     86     77     1  0.0000000  1.6024720  3
     14     26    115    106     1  180.0000771  0.4184000  2
     14     26    115    106     1  0.0000000  1.6024720  3
     17     20     57     48     1  180.0000771  0.4184000  2
     17     20     57     48     1  0.0000000  1.6024720  3
     20     57     48     39     1  180.0000771  0.4184000  2
     20     57     48     39     1  0.0000000  1.6024720  3
     23     86     77     68     1  180.0000771  0.4184000  2
     23     86     77     68     1  0.0000000  1.6024720  3
     26    115    106     97     1  180.0000771  0.4184000  2
     26    115    106     97     1  0.0000000  1.6024720  3
     29     30     42     54     1  0.0000000  0.6508444  3
     29     33     45     51     1  0.0000000  0.6508444  3
     29     36     39     48     1  0.0000000  0.6508444  3
     30     29     33     45     1  180.0000771  2.0083200  2
     30     29     33     45     1  0.0000000  1.2552000  3
     30     29     36     39     1  180.0000771  2.0083200  2
     30     29     36     39     1  0.0000000  1.2552000  3
     30     42     54    173     1  0.0000000  0.6508444  3
     33     29     30     42     1  180.0000771  2.0083200  2
     33     29     30     42     1  0.0000000  1.2552000  3
     33     29     36     39     1  180.0000771  2.0083200  2
     33     29     36     39     1  0.0000000  1.2552000  3
     33     45     51    144     1  0.0000000  0.6508444  3
     36     29     30     42     1  180.0000771  2.0083200  2
     36     29     30     42     1  0.0000000  1.2552000  3
     36     29     33     45     1  180.0000771  2.0083200  2
     36     29     33     45     1  0.0000000  1.2552000  3
     36     39     48     57     1  0.0000000  0.6508444  3
     42     54    173    164     1  180.0000771  0.4184000  2
     42     54    173    164     1  0.0000000  1.6024720  3
     45     51    144    135     1  180.0000771  0.4184000  2
     45     51    144    135     1  0.0000000  1.6024720  3
     51    144    135    126     1  180.0000771  0.4184000  2
     51    144    135    126     1  0.0000000  1.6024720  3
     54    173    164    155     1  180.0000771  0.4184000  2
     54    173    164    155     1  0.0000000  1.6024720  3
     58     59     71     83     1  0.0000000  0.6508444  3
     58     62     74     80     1  0.0000000  0.6508444  3
     58     65     68     77     1  0.0000000  0.6508444  3
     59     58     62     74     1  180.0000771  2.0083200  2
     59     58     62     74     1  0.0000000  1.2552000  3
     59     58     65     68     1  180.0000771  2.0083200  2
     59     58     65     68     1  0.0000000  1.2552000  3
     59     71     83    231     1  0.0000000  0.6508444  3
     62     58     59     71     1  180.0000771  2.0083200  2
     62     58     59     71     1  0.0000000  1.2552000  3
     62     58     65     68     1  180.0000771  2.0083200  2
     62     58     65     68     1  0.0000000  1.2552000  3
     62     74     80    202     1  0.0000000  0.6508444  3
     65     58     59     71     1  180.0000771  2.0083200  2
     65     58     59     71     1  0.0000000  1.2552000  3
     65     58     62     74     1  180.0000771  2.0083200  2
     65     58     62     74     1  0.0000000  1.2552000  3
     65     68     77     86     1  0.0000000  0.6508444  3
     71     83    231    222     1  180.0000771  0.4184000  2
     71     83    231    222     1  0.0000000  1.6024720  3
     74     80    202    193     1  180.0000771  0.4184000  2
     74     80    202    193     1  0.0000000  1.6024720  3
     80    202    193    184     1  180.0000771  0.4184000  2
     80    202    193    184     1  0.0000000  1.6024720  3
     83    231    222    213     1  180.0000771  0.4184000  2
     83    231    222    213     1  0.0000000  1.6024720  3
     87     88    100    112     1  0.0000000  0.6508444  3
     87     91    103    109     1  0.0000000  0.6508444  3
     87     94     97    106     1  0.0000000  0.6508444  3
     88     87     91    103     1  180.0000771  2.0083200  2
     88     87     91    103     1  0.0000000  1.2552000  3
     88     87     94     97     1  180.0000771  2.0083200  2
     88     87     94     97     1  0.0000000  1.2552000  3
     88    100    112    289     1  0.0000000  0.6508444  3
     91     87     88    100     1  180.0000771  2.0083200  2
     91     87     88    100     1  0.0000000  1.2552000  3
     91     87     94     97     1  180.0000771  2.0083200  2
     91     87     94     97     1  0.0000000  1.2552000  3
     91    103    109    260     1  0.0000000  0.6508444  3
     94     87     88    100     1  180.0000771  2.0083200  2
     94     87     88    100     1  0.0000000  1.2552000  3
     94     87     91    103     1  180.0000771  2.0083200  2
     94     87     91    103     1  0.0000000  1.2552000  3
     94     97    106    115     1  0.0000000  0.6508444  3
    100    112    289    280     1  180.0000771  0.4184000  2
    100    112    289    280     1  0.0000000  1.6024720  3
    103    109    260    251     1  180.0000771  0.4184000  2
    103    109    260    251     1  0.0000000  1.6024720  3
    109    260    251    242     1  180.0000771  0.4184000  2
    109    260    251    242     1  0.0000000  1.6024720  3
    112    289    280    271     1  180.0000771  0.4184000  2
    112    289    280    271     1  0.0000000  1.6024720  3
    116    117    129    141     1  0.0000000  0.6508444  3
    116    120    132    138     1  0.0000000  0.6508444  3
    116    123    126    135     1  0.0000000  0.6508444  3
    117    116    120    132     1  180.0000771  2.0083200  2
    117    116    120    132     1  0.0000000  1.2552000  3
    117    116    123    126     1  180.0000771  2.0083200  2
    117    116    123    126     1  0.0000000  1.2552000  3
    117    129    141    347     1  0.0000000  0.6508444  3
    120    116    117    129     1  180.0000771  2.0083200  2
    120    116    117    129     1  0.0000000  1.2552000  3
    120    116    123    126     1  180.0000771  2.0083200  2
    120    116    123    126     1  0.0000000  1.2552000  3
    120    132    138    318     1  0.0000000  0.6508444  3
    123    116    117    129     1  180.0000771  2.0083200  2
    123    116    117    129     1  0.0000000  1.2552000  3
    123    116    120    132     1  180.0000771  2.0083200  2
    123    116    120    132     1  0.0000000  1.2552000  3
    123    126    135    144     1  0.0000000  0.6508444  3
    129    141    347    338     1  180.0000771  0.4184000  2
    129    141    347    338     1  0.0000000  1.6024720  3
    132    138    318    309     1  180.0000771  0.4184000  2
    132    138    318    309     1  0.0000000  1.6024720  3
    138    318    309    300     1  180.0000771  0.4184000  2
    138    318    309    300     1  0.0000000  1.6024720  3
    141    347    338    329     1  180.0000771  0.4184000  2
    141    347    338    329     1  0.0000000  1.6024720  3
    145    146    158    170     1  0.0000000  0.6508444  3
    145    149    161    167     1  0.0000000  0.6508444  3
    145    152    155    164     1  0.0000000  0.6508444  3
    146    145    149    161     1  180.0000771  2.0083200  2
    146    145    149    161     1  0.0000000  1.2552000  3
    146    145    152    155     1  180.0000771  2.0083200  2
    146    145    152    155     1  0.0000000  1.2552000  3
    146    158    170    405     1  0.0000000  0.6508444  3
    149    145    146    158     1  180.0000771  2.0083200  2
    149    145    146    158     1  0.0000000  1.2552000  3
    149    145    152    155     1  180.0000771  2.0083200  2
    149    145    152    155     1  0.0000000  1.2552000  3
    149    161    167    376     1  0.0000000  0.6508444  3
    152    145    146    158     1  180.0000771  2.0083200  2
    152    145    146    158     1  0.0000000  1.2552000  3
    152    145    149    161     1  180.0000771  2.0083200  2
    152    145    149    161     1  0.0000000  1.2552000  3
    152    155    164    173     1  0.0000000  0.6508444  3
    158    170    405    396     1  180.0000771  0.4184000  2
    158    170    405    396     1  0.0000000  1.6024720  3
    161    167    376    367     1  180.0000771  0.4184000  2
    161    167    376    367     1  0.0000000  1.6024720  3
    167    376    367    358     1  180.0000771  0.4184000  2
    167    376    367    358     1  0.0000000  1.6024720  3
    170    405    396    387     1  180.0000771  0.4184000  2
    170    405    396    387     1  0.0000000  1.6024720  3
    174    175    187    199     1  0.0000000  0.6508444  3
    174    178    190    196     1  0.0000000  0.6508444  3
    174    181    184    193     1  0.0000000  0.6508444  3
    175    174    178    190     1  180.0000771  2.0083200  2
    175    174    178    190     1  0.0000000  1.2552000  3
    175    174    181    184     1  180.0000771  2.0083200  2
    175    174    181    184     1  0.0000000  1.2552000  3
    175    187    199    463     1  0.0000000  0.6508444  3
    178    174    175    187     1  180.0000771  2.0083200  2
    178    174    175    187     1  0.0000000  1.2552000  3
    178    174    181    184     1  180.0000771  2.0083200  2
    178    174    181    184     1  0.0000000  1.2552000  3
    178    190    196    434     1  0.0000000  0.6508444  3
    181    174    175    187     1  180.0000771  2.0083200  2
    181    174    175    187     1  0.0000000  1.2552000  3
    181    174    178    190     1  180.0000771  2.0083200  2
    181    174    178    190     1  0.0000000  1.2552000  3
    181    184    193    202     1  0.0000000  0.6508444  3
    187    199    463    454     1  180.0000771  0.4184000  2
    187    199    463    454     1  0.0000000  1.6024720  3
    190    196    434    425     1  180.0000771  0.4184000  2
    190    196    434    425     1  0.0000000  1.6024720  3
    196    434    425    416     1  180.0000771  0.4184000  2
    196    434    425    416     1  0.0000000  1.6024720  3
    199    463    454    445     1  180.0000771  0.4184000  2
    199    463    454    445     1  0.0000000  1.6024720  3
    203    204    216    228     1  0.0000000  0.6508444  3
    203    207    219    225     1  0.0000000  0.6508444  3
    203    210    213    222     1  0.0000000  0.6508444  3
    204    203    207    219     1  180.0000771  2.0083200  2
    204    203    207    219     1  0.0000000  1.2552000  3
    204    203    210    213     1  180.0000771  2.0083200  2
    204    203    210    213     1  0.0000000  1.2552000  3
    204    216    228    521     1  0.0000000  0.6508444  3
    207    203    204    216     1  180.0000771  2.0083200  2
    207    203    204    216     1  0.0000000  1.2552000  3
    207    203    210    213     1  180.0000771  2.0083200  2
    207    203    210    213     1  0.0000000  1.2552000  3
    207    219    225    492     1  0.0000000  0.6508444  3
    210    203    204    216     1  180.0000771  2.0083200  2
    210    203    204    216     1  0.0000000  1.2552000  3
    210    203    207    219     1  180.0000771  2.0083200  2
    210    203    207    219     1  0.0000000  1.2552000  3
    210    213    222    231     1  0.0000000  0.6508444  3
    216    228    521    512     1  180.0000771  0.4184000  2
    216    228    521    512     1  0.0000000  1.6024720  3
    219    225    492    483     1  180.0000771  0.4184000  2
    219    225    492    483     1  0.0000000  1.6024720  3
    225    492    483    474     1  180.0000771  0.4184000  2
    225    492    483    474     1  0.0000000  1.6024720  3
    228    521    512    503     1  180.0000771  0.4184000  2
    228    521    512    503     1  0.0000000  1.6024720  3
    232    233    245    257     1  0.0000000  0.6508444  3
    232    236    248    254     1  0.0000000  0.6508444  3
    232    239    242    251     1  0.0000000  0.6508444  3
    233    232    236    248     1  180.0000771  2.0083200  2
    233    232    236    248     1  0.0000000  1.2552000  3
    233    232    239    242     1  180.0000771  2.0083200  2
    233    232    239    242     1  0.0000000  1.2552000  3
    233    245    257    579     1  0.0000000  0.6508444  3
    236    232    233    245     1  180.0000771  2.0083200  2
    236    232    233    245     1  0.0000000  1.2552000  3
    236    232    239    242     1  180.0000771  2.0083200  2
    236    232    239    242     1  0.0000000  1.2552000  3
    236    248    254    550     1  0.0000000  0.6508444  3
    239    232    233    245     1  180.0000771  2.0083200  2
    239    232    233    245     1  0.0000000  1.2552000  3
    239    232    236    248     1  180.0000771  2.0083200  2
    239    232    236    248     1  0.0000000  1.2552000  3
    239    242    251    260     1  0.0000000  0.6508444  3
    245    257    579    570     1  180.0000771  0.4184000  2
    245    257    579    570     1  0.0000000  1.6024720  3
    248    254    550    541     1  180.0000771  0.4184000  2
    248    254    550    541     1  0.0000000  1.6024720  3
    254    550    541    532     1  180.0000771  0.4184000  2
    254    550    541    532     1  0.0000000  1.6024720  3
    257    579    570    561     1  180.0000771  0.4184000  2
    257    579    570    561     1  0.0000000  1.6024720  3
    261    262    274    286     1  0.0000000  0.6508444  3
    261    265    277    283     1  0.0000000  0.6508444  3
    261    268    271    280     1  0.0000000  0.6508444  3
    262    261    265    277     1  180.0000771  2.0083200  2
    262    261    265    277     1  0.0000000  1.2552000  3
    262    261    268    271     1  180.0000771  2.0083200  2
    262    261    268    271     1  0.0000000  1.2552000  3
    262    274    286    637     1  0.0000000  0.6508444  3
    265    261    262    274     1  180.0000771  2.0083200  2
    265    261    262    274     1  0.0000000  1.2552000  3
    265    261    268    271     1  180.0000771  2.0083200  2
    265    261    268    271     1  0.0000000  1.2552000  3
    265    277    283    608     1  0.0000000  0.6508444  3
    268    261    262    274     1  180.0000771  2.0083200  2
    268    261    262    274     1  0.0000000  1.2552000  3
    268    261    265    277     1  180.0000771  2.0083200  2
    268    261    265    277     1  0.0000000  1.2552000  3
    268    271    280    289     1  0.0000000  0.6508444  3
    274    286    637    628     1  180.0000771  0.4184000  2
    274    286    637    628     1  0.0000000  1.6024720  3
    277    283    608    599     1  180.0000771  0.4184000  2
    277    283    608    599     1  0.0000000  1.6024720  3
    283    608    599    590     1  180.0000771  0.4184000  2
    283    608    599    590     1  0.0000000  1.6024720  3
    286    637    628    619     1  180.0000771  0.4184000  2
    286    637    628    619     1  0.0000000  1.6024720  3
    290    291    303    315     1  0.0000000  0.6508444  3
    290    294    306    312     1  0.0000000  0.6508444  3
    290    297    300    309     1  0.0000000  0.6508444  3
    291    290    294    306     1  180.0000771  2.0083200  2
    291    290    294    306     1  0.0000000  1.2552000  3
    291    290    297    300     1  180.0000771  2.0083200  2
    291    290    297    300     1  0.0000000  1.2552000  3
    291    303    315    664     1  0.0000000  0.6508444  3
    294    290    291    303     1  180.0000771  2.0083200  2
    294    290    291    303     1  0.0000000  1.2552000  3
    294    290    297    300     1  180.0000771  2.0083200  2
    294    290    297    300     1  0.0000000  1.2552000  3
    294    306    312    650     1  0.0000000  0.6508444  3
    297    290    291    303     1  180.0000771  2.0083200  2
    297    290    291    303     1  0.0000000  1.2552000  3
    297    290    294    306     1  180.0000771  2.0083200  2
    297    290    294    306     1  0.0000000  1.2552000  3
    297    300    309    318     1  0.0000000  0.6508444  3
    303    315    664    658     1  180.0000771  0.4184000  2
    303    315    664    658     1  0.0000000  1.6024720  3
    306    312    650    644     1  180.0000771  0.4184000  2
    306    312    650    644     1  0.0000000  1.6024720  3
    312    650    644    641     1  180.0000771  0.4184000  2
    312    650    644    641     1  0.0000000  1.6024720  3
    315    664    658    655     1  180.0000771  0.4184000  2
    315    664    658    655     1  0.0000000  1.6024720  3
    319    320    332    344     1  0.0000000  0.6508444  3
    319    323    335    341     1  0.0000000  0.6508444  3
    319    326    329    338     1  0.0000000  0.6508444  3
    320    319    323    335     1  180.0000771  2.0083200  2
    320    319    323    335     1  0.0000000  1.2552000  3
    320    319    326    329     1  180.0000771  2.0083200  2
    320    319    326    329     1  0.0000000  1.2552000  3
    320    332    344    692     1  0.0000000  0.6508444  3
    323    319    320    332     1  180.0000771  2.0083200  2
    323    319    320    332     1  0.0000000  1.2552000  3
    323    319    326    329     1  180.0000771  2.0083200  2
    323    319    326    329     1  0.0000000  1.2552000  3
    323    335    341    678     1  0.0000000  0.6508444  3
    326    319    320    332     1  180.0000771  2.0083200  2
    326    319    320    332     1  0.0000000  1.2552000  3
    326    319    323    335     1  180.0000771  2.0083200  2
    326    319    323    335     1  0.0000000  1.2552000  3
    326    329    338    347     1  0.0000000  0.6508444  3
    332    344    692    686     1  180.0000771  0.4184000  2
    332    344    692    686     1  0.0000000  1.6024720  3
    335    341    678    672     1  180.0000771  0.4184000  2
    335    341    678    672     1  0.0000000  1.6024720  3
    341    678    672    669     1  180.0000771  0.4184000  2
    341    678    672    669     1  0.0000000  1.6024720  3
    344    692    686    683     1  180.0000771  0.4184000  2
    344    692    686    683     1  0.0000000  1.6024720  3
    348    349    361    373     1  0.0000000  0.6508444  3
    348    352    364    370     1  0.0000000  0.6508444  3
    348    355    358    367     1  0.0000000  0.6508444  3
    349    348    352    364     1  180.0000771  2.0083200  2
    349    348    352    364     1  0.0000000  1.2552000  3
    349    348    355    358     1  180.0000771  2.0083200  2
    349    348    355    358     1  0.0000000  1.2552000  3
    349    361    373    720     1  0.0000000  0.6508444  3
    352    348    349    361     1  180.0000771  2.0083200  2
    352    348    349    361     1  0.0000000  1.2552000  3
    352    348    355    358     1  180.0000771  2.0083200  2
    352    348    355    358     1  0.0000000  1.2552000  3
    352    364    370    706     1  0.0000000  0.6508444  3
    355    348    349    361     1  180.0000771  2.0083200  2
    355    348    349    361     1  0.0000000  1.2552000  3
    355    348    352    364     1  180.0000771  2.0083200  2
    355    348    352    364     1  0.0000000  1.2552000  3
    355    358    367    376     1  0.0000000  0.6508444  3
    361    373    720    714     1  180.0000771  0.4184000  2
    361    373    720    714     1  0.0000000  1.6024720  3
    364    370    706    700     1  180.0000771  0.4184000  2
    364    370    706    700     1  0.0000000  1.6024720  3
    370    706    700    697     1  180.0000771  0.4184000  2
    370    706    700    697     1  0.0000000  1.6024720  3
    373    720    714    711     1  180.0000771  0.4184000  2
    373    720    714    711     1  0.0000000  1.6024720  3
    377    378    390    402     1  0.0000000  0.6508444  3
    377    381    393    399     1  0.0000000  0.6508444  3
    377    384    387    396     1  0.0000000  0.6508444  3
    378    377    381    393     1  180.0000771  2.0083200  2
    378    377    381    393     1  0.0000000  1.2552000  3
    378    377    384    387     1  180.0000771  2.0083200  2
    378    377    384    387     1  0.0000000  1.2552000  3
    378    390    402    748     1  0.0000000  0.6508444  3
    381    377    378    390     1  180.0000771  2.0083200  2
    381    377    378    390     1  0.0000000  1.2552000  3
    381    377    384    387     1  180.0000771  2.0083200  2
    381    377    384    387     1  0.0000000  1.2552000  3
    381    393    399    734     1  0.0000000  0.6508444  3
    384    377    378    390     1  180.0000771  2.0083200  2
    384    377    378    390     1  0.0000000  1.2552000  3
    384    377    381    393     1  180.0000771  2.0083200  2
    384    377    381    393     1  0.0000000  1.2552000  3
    384    387    396    405     1  0.0000000  0.6508444  3
    390    402    748    742     1  180.0000771  0.4184000  2
    390    402    748    742     1  0.0000000  1.6024720  3
    393    399    734    728     1  180.0000771  0.4184000  2
    393    399    734    728     1  0.0000000  1.6024720  3
    399    734    728    725     1  180.0000771  0.4184000  2
    399    734    728    725     1  0.0000000  1.6024720  3
    402    748    742    739     1  180.0000771  0.4184000  2
    402    748    742    739     1  0.0000000  1.6024720  3
    406    407    419    431     1  0.0000000  0.6508444  3
    406    410    422    428     1  0.0000000  0.6508444  3
    406    413    416    425     1  0.0000000  0.6508444  3
    407    406    410    422     1  180.0000771  2.0083200  2
    407    406    410    422     1  0.0000000  1.2552000  3
    407    406    413    416     1  180.0000771  2.0083200  2
    407    406    413    416     1  0.0000000  1.2552000  3
    407    419    431    776     1  0.0000000  0.6508444  3
    410    406    407    419     1  180.0000771  2.0083200  2
    410    406    407    419     1  0.0000000  1.2552000  3
    410    406    413    416     1  180.0000771  2.0083200  2
    410    406    413    416     1  0.0000000  1.2552000  3
    410    422    428    762     1  0.0000000  0.6508444  3
    413    406    407    419     1  180.0000771  2.0083200  2
    413    406    407    419     1  0.0000000  1.2552000  3
    413    406    410    422     1  180.0000771  2.0083200  2
    413    406    410    422     1  0.0000000  1.2552000  3
    413    416    425    434     1  0.0000000  0.6508444  3
    419    431    776    770     1  180.0000771  0.4184000  2
    419    431    776    770     1  0.0000000  1.6024720  3
    422    428    762    756     1  180.0000771  0.4184000  2
    422    428    762    756     1  0.0000000  1.6024720  3
    428    762    756    753     1  180.0000771  0.4184000  2
    428    762    756    753     1  0.0000000  1.6024720  3
    431    776    770    767     1  180.0000771  0.4184000  2
    431    776    770    767     1  0.0000000  1.6024720  3
    435    436    448    460     1  0.0000000  0.6508444  3
    435    439    451    457     1  0.0000000  0.6508444  3
    435    442    445    454     1  0.0000000  0.6508444  3
    436    435    439    451     1  180.0000771  2.0083200  2
    436    435    439    451     1  0.0000000  1.2552000  3
    436    435    442    445     1  180.0000771  2.0083200  2
    436    435    442    445     1  0.0000000  1.2552000  3
    436    448    460    804     1  0.0000000  0.6508444  3
    439    435    436    448     1  180.0000771  2.0083200  2
    439    435    436    448     1  0.0000000  1.2552000  3
    439    435    442    445     1  180.0000771  2.0083200  2
    439    435    442    445     1  0.0000000  1.2552000  3
    439    451    457    790     1  0.0000000  0.6508444  3
    442    435    436    448     1  180.0000771  2.0083200  2
    442    435    436    448     1  0.0000000  1.2552000  3
    442    435    439    451     1  180.0000771  2.0083200  2
    442    435    439    451     1  0.0000000  1.2552000  3
    442    445    454    463     1  0.0000000  0.6508444  3
    448    460    804    798     1  180.0000771  0.4184000  2
    448    460    804    798     1  0.0000000  1.6024720  3
    451    457    790    784     1  180.0000771  0.4184000  2
    451    457    790    784     1  0.0000000  1.6024720  3
    457    790    784    781     1  180.0000771  0.4184000  2
    457    790    784    781     1  0.0000000  1.6024720  3
    460    804    798    795     1  180.0000771  0.4184000  2
    460    804    798    795     1  0.0000000  1.6024720  3
    464    465    477    489     1  0.0000000  0.6508444  3
    464    468    480    486     1  0.0000000  0.6508444  3
    464    471    474    483     1  0.0000000  0.6508444  3
    465    464    468    480     1  180.0000771  2.0083200  2
    465    464    468    480     1  0.0000000  1.2552000  3
    465    464    471    474     1  180.0000771  2.0083200  2
    465    464    471    474     1  0.0000000  1.2552000  3
    465    477    489    832     1  0.0000000  0.6508444  3
    468    464    465    477     1  180.0000771  2.0083200  2
    468    464    465    477     1  0.0000000  1.2552000  3
    468    464    471    474     1  180.0000771  2.0083200  2
    468    464    471    474     1  0.0000000  1.2552000  3
    468    480    486    818     1  0.0000000  0.6508444  3
    471    464    465    477     1  180.0000771  2.0083200  2
    471    464    465    477     1  0.0000000  1.2552000  3
    471    464    468    480     1  180.0000771  2.0083200  2
    471    464    468    480     1  0.0000000  1.2552000  3
    471    474    483    492     1  0.0000000  0.6508444  3
    477    489    832    826     1  180.0000771  0.4184000  2
    477    489    832    826     1  0.0000000  1.6024720  3
    480    486    818    812     1  180.0000771  0.4184000  2
    480    486    818    812     1  0.0000000  1.6024720  3
    486    818    812    809     1  180.0000771  0.4184000  2
    486    818    812    809     1  0.0000000  1.6024720  3
    489    832    826    823     1  180.0000771  0.4184000  2
    489    832    826    823     1  0.0000000  1.6024720  3
    493    494    506    518     1  0.0000000  0.6508444  3
    493    497    509    515     1  0.0000000  0.6508444  3
    493    500    503    512     1  0.0000000  0.6508444  3
    494    493    497    509     1  180.0000771  2.0083200  2
    494    493    497    509     1  0.0000000  1.2552000  3
    494    493    500    503     1  180.0000771  2.0083200  2
    494    493    500    503     1  0.0000000  1.2552000  3
    494    506    518    860     1  0.0000000  0.6508444  3
    497    493    494    506     1  180.0000771  2.0083200  2
    497    493    494    506     1  0.0000000  1.2552000  3
    497    493    500    503     1  180.0000771  2.0083200  2
    497    493    500    503     1  0.0000000  1.2552000  3
    497    509    515    846     1  0.0000000  0.6508444  3
    500    493    494    506     1  180.0000771  2.0083200  2
    500    493    494    506     1  0.0000000  1.2552000  3
    500    493    497    509     1  180.0000771  2.0083200  2
    500    493    497    509     1  0.0000000  1.2552000  3
    500    503    512    521     1  0.0000000  0.6508444  3
    506    518    860    854     1  180.0000771  0.4184000  2
    506    518    860    854     1  0.0000000  1.6024720  3
    509    515    846    840     1  180.0000771  0.4184000  2
    509    515    846    840     1  0.0000000  1.6024720  3
    515    846    840    837     1  180.0000771  0.4184000  2
    515    846    840    837     1  0.0000000  1.6024720  3
    518    860    854    851     1  180.0000771  0.4184000  2
    518    860    854    851     1  0.0000000  1.6024720  3
    522    523    535    547     1  0.0000000  0.6508444  3
    522    526    538    544     1  0.0000000  0.6508444  3
    522    529    532    541     1  0.0000000  0.6508444  3
    523    522    526    538     1  180.0000771  2.0083200  2
    523    522    526    538     1  0.0000000  1.2552000  3
    523    522    529    532     1  180.0000771  2.0083200  2
    523    522    529    532     1  0.0000000  1.2552000  3
    523    535    547    888     1  0.0000000  0.6508444  3
    526    522    523    535     1  180.0000771  2.0083200  2
    526    522    523    535     1  0.0000000  1.2552000  3
    526    522    529    532     1  180.0000771  2.0083200  2
    526    522    529    532     1  0.0000000  1.2552000  3
    526    538    544    874     1  0.0000000  0.6508444  3
    529    522    523    535     1  180.0000771  2.0083200  2
    529    522    523    535     1  0.0000000  1.2552000  3
    529    522    526    538     1  180.0000771  2.0083200  2
    529    522    526    538     1  0.0000000  1.2552000  3
    529    532    541    550     1  0.0000000  0.6508444  3
    535    547    888    882     1  180.0000771  0.4184000  2
    535    547    888    882     1  0.0000000  1.6024720  3
    538    544    874    868     1  180.0000771  0.4184000  2
    538    544    874    868     1  0.0000000  1.6024720  3
    544    874    868    865     1  180.0000771  0.4184000  2
    544    874    868    865     1  0.0000000  1.6024720  3
    547    888    882    879     1  180.0000771  0.4184000  2
    547    888    882    879     1  0.0000000  1.6024720  3
    551    552    564    576     1  0.0000000  0.6508444  3
    551    555    567    573     1  0.0000000  0.6508444  3
    551    558    561    570     1  0.0000000  0.6508444  3
    552    551    555    567     1  180.0000771  2.0083200  2
    552    551    555    567     1  0.0000000  1.2552000  3
    552    551    558    561     1  180.0000771  2.0083200  2
    552    551    558    561     1  0.0000000  1.2552000  3
    552    564    576    916     1  0.0000000  0.6508444  3
    555    551    552    564     1  180.0000771  2.0083200  2
    555    551    552    564     1  0.0000000  1.2552000  3
    555    551    558    561     1  180.0000771  2.0083200  2
    555    551    558    561     1  0.0000000  1.2552000  3
    555    567    573    902     1  0.0000000  0.6508444  3
    558    551    552    564     1  180.0000771  2.0083200  2
    558    551    552    564     1  0.0000000  1.2552000  3
    558    551    555    567     1  180.0000771  2.0083200  2
    558    551    555    567     1  0.0000000  1.2552000  3
    558    561    570    579     1  0.0000000  0.6508444  3
    564    576    916    910     1  180.0000771  0.4184000  2
    564    576    916    910     1  0.0000000  1.6024720  3
    567    573    902    896     1  180.0000771  0.4184000  2
    567    573    902    896     1  0.0000000  1.6024720  3
    573    902    896    893     1  180.0000771  0.4184000  2
    573    902    896    893     1  0.0000000  1.6024720  3
    576    916    910    907     1  180.0000771  0.4184000  2
    576    916    910    907     1  0.0000000  1.6024720  3
    580    581    593    605     1  0.0000000  0.6508444  3
    580    584    596    602     1  0.0000000  0.6508444  3
    580    587    590    599     1  0.0000000  0.6508444  3
    581    580    584    596     1  180.0000771  2.0083200  2
    581    580    584    596     1  0.0000000  1.2552000  3
    581    580    587    590     1  180.0000771  2.0083200  2
    581    580    587    590     1  0.0000000  1.2552000  3
    581    593    605    944     1  0.0000000  0.6508444  3
    584    580    581    593     1  180.0000771  2.0083200  2
    584    580    581    593     1  0.0000000  1.2552000  3
    584    580    587    590     1  180.0000771  2.0083200  2
    584    580    587    590     1  0.0000000  1.2552000  3
    584    596    602    930     1  0.0000000  0.6508444  3
    587    580    581    593     1  180.0000771  2.0083200  2
    587    580    581    593     1  0.0000000  1.2552000  3
    587    580    584    596     1  180.0000771  2.0083200  2
    587    580    584    596     1  0.0000000  1.2552000  3
    587    590    599    608     1  0.0000000  0.6508444  3
    593    605    944    938     1  180.0000771  0.4184000  2
    593    605    944    938     1  0.0000000  1.6024720  3
    596    602    930    924     1  180.0000771  0.4184000  2
    596    602    930    924     1  0.0000000  1.6024720  3
    602    930    924    921     1  180.0000771  0.4184000  2
    602    930    924    921     1  0.0000000  1.6024720  3
    605    944    938    935     1  180.0000771  0.4184000  2
    605    944    938    935     1  0.0000000  1.6024720  3
    609    610    622    634     1  0.0000000  0.6508444  3
    609    613    625    631     1  0.0000000  0.6508444  3
    609    616    619    628     1  0.0000000  0.6508444  3
    610    609    613    625     1  180.0000771  2.0083200  2
    610    609    613    625     1  0.0000000  1.2552000  3
    610    609    616    619     1  180.0000771  2.0083200  2
    610    609    616    619     1  0.0000000  1.2552000  3
    610    622    634    972     1  0.0000000  0.6508444  3
    613    609    610    622     1  180.0000771  2.0083200  2
    613    609    610    622     1  0.0000000  1.2552000  3
    613    609    616    619     1  180.0000771  2.0083200  2
    613    609    616    619     1  0.0000000  1.2552000  3
    613    625    631    958     1  0.0000000  0.6508444  3
    616    609    610    622     1  180.0000771  2.0083200  2
    616    609    610    622     1  0.0000000  1.2552000  3
    616    609    613    625     1  180.0000771  2.0083200  2
    616    609    613    625     1  0.0000000  1.2552000  3
    616    619    628    637     1  0.0000000  0.6508444  3
    622    634    972    966     1  180.0000771  0.4184000  2
    622    634    972    966     1  0.0000000  1.6024720  3
    625    631    958    952     1  180.0000771  0.4184000  2
    625    631    958    952     1  0.0000000  1.6024720  3
    631    958    952    949     1  180.0000771  0.4184000  2
    631    958    952    949     1  0.0000000  1.6024720  3
    634    972    966    963     1  180.0000771  0.4184000  2
    634    972    966    963     1  0.0000000  1.6024720  3
    638    641    644    650     1  0.0000000  0.6508444  3
    644    641    638    647     1  0.0000000  0.6508444  3
    652    655    658    664     1  0.0000000  0.6508444  3
    658    655    652    661     1  0.0000000  0.6508444  3
    666    669    672    678     1  0.0000000  0.6508444  3
    672    669    666    675     1  0.0000000  0.6508444  3
    680    683    686    692     1  0.0000000  0.6508444  3
    686    683    680    689     1  0.0000000  0.6508444  3
    694    697    700    706     1  0.0000000  0.6508444  3
    700    697    694    703     1  0.0000000  0.6508444  3
    708    711    714    720     1  0.0000000  0.6508444  3
    714    711    708    717     1  0.0000000  0.6508444  3
    722    725    728    734     1  0.0000000  0.6508444  3
    728    725    722    731     1  0.0000000  0.6508444  3
    736    739    742    748     1  0.0000000  0.6508444  3
    742    739    736    745     1  0.0000000  0.6508444  3
    750    753    756    762     1  0.0000000  0.6508444  3
    756    753    750    759     1  0.0000000  0.6508444  3
    764    767    770    776     1  0.0000000  0.6508444  3
    770    767    764    773     1  0.0000000  0.6508444  3
    778    781    784    790     1  0.0000000  0.6508444  3
    784    781    778    787     1  0.0000000  0.6508444  3
    792    795    798    804     1  0.0000000  0.6508444  3
    798    795    792    801     1  0.0000000  0.6508444  3
    806    809    812    818     1  0.0000000  0.6508444  3
    812    809    806    815     1  0.0000000  0.6508444  3
    820    823    826    832     1  0.0000000  0.6508444  3
    826    823    820    829     1  0.0000000  0.6508444  3
    834    837    840    846     1  0.0000000  0.6508444  3
    840    837    834    843     1  0.0000000  0.6508444  3
    848    851    854    860     1  0.0000000  0.6508444  3
    854    851    848    857     1  0.0000000  0.6508444  3
    862    865    868    874     1  0.0000000  0.6508444  3
    868    865    862    871     1  0.0000000  0.6508444  3
    876    879    882    888     1  0.0000000  0.6508444  3
    882    879    876    885     1  0.0000000  0.6508444  3
    890    893    896    902     1  0.0000000  0.6508444  3
    896    893    890    899     1  0.0000000  0.6508444  3
    904    907    910    916     1  0.0000000  0.6508444  3
    910    907    904    913     1  0.0000000  0.6508444  3
    918    921    924    930     1  0.0000000  0.6508444  3
    924    921    918    927     1  0.0000000  0.6508444  3
    932    935    938    944     1  0.0000000  0.6508444  3
    938    935    932    941     1  0.0000000  0.6508444  3
    946    949    952    958     1  0.0000000  0.6508444  3
    952    949    946    955     1  0.0000000  0.6508444  3
    960    963    966    972     1  0.0000000  0.6508444  3
    966    963    960    969     1  0.0000000  0.6508444  3
      1      2     14     15     1  0.0000000  0.6508444  3
      1      2     14     16     1  0.0000000  0.6508444  3
      1      5     17     18     1  0.0000000  0.6508444  3
      1      5     17     19     1  0.0000000  0.6508444  3
      1      8     11     12     1  0.0000000  0.6508444  3
      1      8     11     13     1  0.0000000  0.6508444  3
      2      1      5      6     1  0.0000000  1.2552000  3
      2      1      5      7     1  0.0000000  1.2552000  3
      2      1      8      9     1  0.0000000  1.2552000  3
      2      1      8     10     1  0.0000000  1.2552000  3
      2     14     26     27     1  0.0000000  0.6508444  3
      2     14     26     28     1  0.0000000  0.6508444  3
      5      1      2      3     1  0.0000000  1.2552000  3
      8      1      2      3     1  0.0000000  1.2552000  3
      3      2     14     26     1  0.0000000  0.6508444  3
      3      2     14     15     1  0.0000000  0.6508444  3
      3      2     14     16     1  0.0000000  0.6508444  3
      5      1      2      4     1  0.0000000  1.2552000  3
      8      1      2      4     1  0.0000000  1.2552000  3
      4      2     14     26     1  0.0000000  0.6508444  3
      4      2     14     15     1  0.0000000  0.6508444  3
      4      2     14     16     1  0.0000000  0.6508444  3
      5      1      8      9     1  0.0000000  1.2552000  3
      5      1      8     10     1  0.0000000  1.2552000  3
      5     17     20     21     1  0.0000000  0.6508444  3
      5     17     20     22     1  0.0000000  0.6508444  3
      8      1      5      6     1  0.0000000  1.2552000  3
      6      5     17     20     1  0.0000000  0.6508444  3
      6      5     17     18     1  0.0000000  0.6508444  3
      6      5     17     19     1  0.0000000  0.6508444  3
      8      1      5      7     1  0.0000000  1.2552000  3
      7      5     17     20     1  0.0000000  0.6508444  3
      7      5     17     18     1  0.0000000  0.6508444  3
      7      5     17     19     1  0.0000000  0.6508444  3
      8     11     23     24     1  0.0000000  0.6508444  3
      8     11     23     25     1  0.0000000  0.6508444  3
      9      8     11     23     1  0.0000000  0.6508444  3
      9      8     11     12     1  0.0000000  0.6508444  3
      9      8     11     13     1  0.0000000  0.6508444  3
     10      8     11     23     1  0.0000000  0.6508444  3
     10      8     11     12     1  0.0000000  0.6508444  3
     10      8     11     13     1  0.0000000  0.6508444  3
     12     11     23     86     1  0.0000000  1.0460000  1
     12     11     23     86     1  0.0000000  0.0000000  3
     12     11     23     24     1  0.0000000  0.6508444  3
     12     11     23     25     1  0.0000000  0.6508444  3
     13     11     23     86     1  0.0000000  1.0460000  1
     13     11     23     86     1  0.0000000  0.0000000  3
     13     11     23     24     1  0.0000000  0.6508444  3
     13     11     23     25     1  0.0000000  0.6508444  3
     15     14     26    115     1  0.0000000  1.0460000  1
     15     14     26    115     1  0.0000000  0.0000000  3
     15     14     26     27     1  0.0000000  0.6508444  3
     15     14     26     28     1  0.0000000  0.6508444  3
     16     14     26    115     1  0.0000000  1.0460000  1
     16     14     26    115     1  0.0000000  0.0000000  3
     16     14     26     27     1  0.0000000  0.6508444  3
     16     14     26     28     1  0.0000000  0.6508444  3
     18     17     20     57     1  0.0000000  1.0460000  1
     18     17     20     57     1  0.0000000  0.0000000  3
     18     17     20     21     1  0.0000000  0.6508444  3
     18     17     20     22     1  0.0000000  0.6508444  3
     19     17     20     57     1  0.0000000  1.0460000  1
     19     17     20     57     1  0.0000000  0.0000000  3
     19     17     20     21     1  0.0000000  0.6508444  3
     19     17     20     22     1  0.0000000  0.6508444  3
     20     57     48     49     1  0.0000000  1.6038667  3
     20     57     48     50     1  0.0000000  1.6038667  3
     21     20     57     48     1  0.0000000  1.6038667  3
     22     20     57     48     1  0.0000000  1.6038667  3
     23     86     77     78     1  0.0000000  1.6038667  3
     23     86     77     79     1  0.0000000  1.6038667  3
     24     23     86     77     1  0.0000000  1.6038667  3
     25     23     86     77     1  0.0000000  1.6038667  3
     26    115    106    107     1  0.0000000  1.6038667  3
     26    115    106    108     1  0.0000000  1.6038667  3
     27     26    115    106     1  0.0000000  1.6038667  3
     28     26    115    106     1  0.0000000  1.6038667  3
     29     30     42     43     1  0.0000000  0.6508444  3
     29     30     42     44     1  0.0000000  0.6508444  3
     29     33     45     46     1  0.0000000  0.6508444  3
     29     33     45     47     1  0.0000000  0.6508444  3
     29     36     39     40     1  0.0000000  0.6508444  3
     29     36     39     41     1  0.0000000  0.6508444  3
     30     29     33     34     1  0.0000000  1.2552000  3
     30     29     33     35     1  0.0000000  1.2552000  3
     30     29     36     37     1  0.0000000  1.2552000  3
     30     29     36     38     1  0.0000000  1.2552000  3
     30     42     54     55     1  0.0000000  0.6508444  3
     30     42     54     56     1  0.0000000  0.6508444  3
     31     30     29     33     1  0.0000000  1.2552000  3
     31     30     29     36     1  0.0000000  1.2552000  3
     31     30     42     54     1  0.0000000  0.6508444  3
     31     30     42     43     1  0.0000000  0.6508444  3
     31     30     42     44     1  0.0000000  0.6508444  3
     32     30     29     33     1  0.0000000  1.2552000  3
     32     30     29     36     1  0.0000000  1.2552000  3
     32     30     42     54     1  0.0000000  0.6508444  3
     32     30     42     43     1  0.0000000  0.6508444  3
     32     30     42     44     1  0.0000000  0.6508444  3
     33     29     36     37     1  0.0000000  1.2552000  3
     33     29     36     38     1  0.0000000  1.2552000  3
     33     45     51     52     1  0.0000000  0.6508444  3
     33     45     51     53     1  0.0000000  0.6508444  3
     34     33     29     36     1  0.0000000  1.2552000  3
     34     33     45     51     1  0.0000000  0.6508444  3
     34     33     45     46     1  0.0000000  0.6508444  3
     34     33     45     47     1  0.0000000  0.6508444  3
     35     33     29     36     1  0.0000000  1.2552000  3
     35     33     45     51     1  0.0000000  0.6508444  3
     35     33     45     46     1  0.0000000  0.6508444  3
     35     33     45     47     1  0.0000000  0.6508444  3
     36     39     48     49     1  0.0000000  0.6508444  3
     36     39     48     50     1  0.0000000  0.6508444  3
     37     36     39     48     1  0.0000000  0.6508444  3
     37     36     39     40     1  0.0000000  0.6508444  3
     37     36     39     41     1  0.0000000  0.6508444  3
     38     36     39     48     1  0.0000000  0.6508444  3
     38     36     39     40     1  0.0000000  0.6508444  3
     38     36     39     41     1  0.0000000  0.6508444  3
     40     39     48     57     1  0.0000000  1.0460000  1
     40     39     48     57     1  0.0000000  0.0000000  3
     40     39     48     49     1  0.0000000  0.6508444  3
     40     39     48     50     1  0.0000000  0.6508444  3
     41     39     48     57     1  0.0000000  1.0460000  1
     41     39     48     57     1  0.0000000  0.0000000  3
     41     39     48     49     1  0.0000000  0.6508444  3
     41     39     48     50     1  0.0000000  0.6508444  3
     43     42     54    173     1  0.0000000  1.0460000  1
     43     42     54    173     1  0.0000000  0.0000000  3
     43     42     54     55     1  0.0000000  0.6508444  3
     43     42     54     56     1  0.0000000  0.6508444  3
     44     42     54    173     1  0.0000000  1.0460000  1
     44     42     54    173     1  0.0000000  0.0000000  3
     44     42     54     55     1  0.0000000  0.6508444  3
     44     42     54     56     1  0.0000000  0.6508444  3
     46     45     51    144     1  0.0000000  1.0460000  1
     46     45     51    144     1  0.0000000  0.0000000  3
     46     45     51     52     1  0.0000000  0.6508444  3
     46     45     51     53     1  0.0000000  0.6508444  3
     47     45     51    144     1  0.0000000  1.0460000  1
     47     45     51    144     1  0.0000000  0.0000000  3
     47     45     51     52     1  0.0000000  0.6508444  3
     47     45     51     53     1  0.0000000  0.6508444  3
     51    144    135    136     1  0.0000000  1.6038667  3
     51    144    135    137     1  0.0000000  1.6038667  3
     52     51    144    135     1  0.0000000  1.6038667  3
     53     51    144    135     1  0.0000000  1.6038667  3
     54    173    164    165     1  0.0000000  1.6038667  3
     54    173    164    166     1  0.0000000  1.6038667  3
     55     54    173    164     1  0.0000000  1.6038667  3
     56     54    173    164     1  0.0000000  1.6038667  3
     58     59     71     72     1  0.0000000  0.6508444  3
     58     59     71     73     1  0.0000000  0.6508444  3
     58     62     74     75     1  0.0000000  0.6508444  3
     58     62     74     76     1  0.0000000  0.6508444  3
     58     65     68     69     1  0.0000000  0.6508444  3
     58     65     68     70     1  0.0000000  0.6508444  3
     59     58     62     63     1  0.0000000  1.2552000  3
     59     58     62     64     1  0.0000000  1.2552000  3
     59     58     65     66     1  0.0000000  1.2552000  3
     59     58     65     67     1  0.0000000  1.2552000  3
     59     71     83     84     1  0.0000000  0.6508444  3
     59     71     83     85     1  0.0000000  0.6508444  3
     60     59     58     62     1  0.0000000  1.2552000  3
     60     59     58     65     1  0.0000000  1.2552000  3
     60     59     71     83     1  0.0000000  0.6508444  3
     60     59     71     72     1  0.0000000  0.6508444  3
     60     59     71     73     1  0.0000000  0.6508444  3
     61     59     58     62     1  0.0000000  1.2552000  3
     61     59     58     65     1  0.0000000  1.2552000  3
     61     59     71     83     1  0.0000000  0.6508444  3
     61     59     71     72     1  0.0000000  0.6508444  3
     61     59     71     73     1  0.0000000  0.6508444  3
     62     58     65     66     1  0.0000000  1.2552000  3
     62     58     65     67     1  0.0000000  1.2552000  3
     62     74     80     81     1  0.0000000  0.6508444  3
     62     74     80     82     1  0.0000000  0.6508444  3
     63     62     58     65     1  0.0000000  1.2552000  3
     63     62     74     80     1  0.0000000  0.6508444  3
     63     62     74     75     1  0.0000000  0.6508444  3
     63     62     74     76     1  0.0000000  0.6508444  3
     64     62     58     65     1  0.0000000  1.2552000  3
     64     62     74     80     1  0.0000000  0.6508444  3
     64     62     74     75     1  0.0000000  0.6508444  3
     64     62     74     76     1  0.0000000  0.6508444  3
     65     68     77     78     1  0.0000000  0.6508444  3
     65     68     77     79     1  0.0000000  0.6508444  3
     66     65     68     77     1  0.0000000  0.6508444  3
     66     65     68     69     1  0.0000000  0.6508444  3
     66     65     68     70     1  0.0000000  0.6508444  3
     67     65     68     77     1  0.0000000  0.6508444  3
     67     65     68     69     1  0.0000000  0.6508444  3
     67     65     68     70     1  0.0000000  0.6508444  3
     69     68     77     86     1  0.0000000  1.0460000  1
     69     68     77     86     1  0.0000000  0.0000000  3
     69     68     77     78     1  0.0000000  0.6508444  3
     69     68     77     79     1  0.0000000  0.6508444  3
     70     68     77     86     1  0.0000000  1.0460000  1
     70     68     77     86     1  0.0000000  0.0000000  3
     70     68     77     78     1  0.0000000  0.6508444  3
     70     68     77     79     1  0.0000000  0.6508444  3
     72     71     83    231     1  0.0000000  1.0460000  1
     72     71     83    231     1  0.0000000  0.0000000  3
     72     71     83     84     1  0.0000000  0.6508444  3
     72     71     83     85     1  0.0000000  0.6508444  3
     73     71     83    231     1  0.0000000  1.0460000  1
     73     71     83    231     1  0.0000000  0.0000000  3
     73     71     83     84     1  0.0000000  0.6508444  3
     73     71     83     85     1  0.0000000  0.6508444  3
     75     74     80    202     1  0.0000000  1.0460000  1
     75     74     80    202     1  0.0000000  0.0000000  3
     75     74     80     81     1  0.0000000  0.6508444  3
     75     74     80     82     1  0.0000000  0.6508444  3
     76     74     80    202     1  0.0000000  1.0460000  1
     76     74     80    202     1  0.0000000  0.0000000  3
     76     74     80     81     1  0.0000000  0.6508444  3
     76     74     80     82     1  0.0000000  0.6508444  3
     80    202    193    194     1  0.0000000  1.6038667  3
     80    202    193    195     1  0.0000000  1.6038667  3
     81     80    202    193     1  0.0000000  1.6038667  3
     82     80    202    193     1  0.0000000  1.6038667  3
     83    231    222    223     1  0.0000000  1.6038667  3
     83    231    222    224     1  0.0000000  1.6038667  3
     84     83    231    222     1  0.0000000  1.6038667  3
     85     83    231    222     1  0.0000000  1.6038667  3
     87     88    100    101     1  0.0000000  0.6508444  3
     87     88    100    102     1  0.0000000  0.6508444  3
     87     91    103    104     1  0.0000000  0.6508444  3
     87     91    103    105     1  0.0000000  0.6508444  3
     87     94     97     98     1  0.0000000  0.6508444  3
     87     94     97     99     1  0.0000000  0.6508444  3
     88     87     91     92     1  0.0000000  1.2552000  3
     88     87     91     93     1  0.0000000  1.2552000  3
     88     87     94     95     1  0.0000000  1.2552000  3
     88     87     94     96     1  0.0000000  1.2552000  3
     88    100    112    113     1  0.0000000  0.6508444  3
     88    100    112    114     1  0.0000000  0.6508444  3
     89     88     87     91     1  0.0000000  1.2552000  3
     89     88     87     94     1  0.0000000  1.2552000  3
     89     88    100    112     1  0.0000000  0.6508444  3
     89     88    100    101     1  0.0000000  0.6508444  3
     89     88    100    102     1  0.0000000  0.6508444  3
     90     88     87     91     1  0.0000000  1.2552000  3
     90     88     87     94     1  0.0000000  1.2552000  3
     90     88    100    112     1  0.0000000  0.6508444  3
     90     88    100    101     1  0.0000000  0.6508444  3
     90     88    100    102     1  0.0000000  0.6508444  3
     91     87     94     95     1  0.0000000  1.2552000  3
     91     87     94     96     1  0.0000000  1.2552000  3
     91    103    109    110     1  0.0000000  0.6508444  3
     91    103    109    111     1  0.0000000  0.6508444  3
     92     91     87     94     1  0.0000000  1.2552000  3
     92     91    103    109     1  0.0000000  0.6508444  3
     92     91    103    104     1  0.0000000  0.6508444  3
     92     91    103    105     1  0.0000000  0.6508444  3
     93     91     87     94     1  0.0000000  1.2552000  3
     93     91    103    109     1  0.0000000  0.6508444  3
     93     91    103    104     1  0.0000000  0.6508444  3
     93     91    103    105     1  0.0000000  0.6508444  3
     94     97    106    107     1  0.0000000  0.6508444  3
     94     97    106    108     1  0.0000000  0.6508444  3
     95     94     97    106     1  0.0000000  0.6508444  3
     95     94     97     98     1  0.0000000  0.6508444  3
     95     94     97     99     1  0.0000000  0.6508444  3
     96     94     97    106     1  0.0000000  0.6508444  3
     96     94     97     98     1  0.0000000  0.6508444  3
     96     94     97     99     1  0.0000000  0.6508444  3
     98     97    106    115     1  0.0000000  1.0460000  1
     98     97    106    115     1  0.0000000  0.0000000  3
     98     97    106    107     1  0.0000000  0.6508444  3
     98     97    106    108     1  0.0000000  0.6508444  3
     99     97    106    115     1  0.0000000  1.0460000  1
     99     97    106    115     1  0.0000000  0.0000000  3
     99     97    106    107     1  0.0000000  0.6508444  3
     99     97    106    108     1  0.0000000  0.6508444  3
    101    100    112    289     1  0.0000000  1.0460000  1
    101    100    112    289     1  0.0000000  0.0000000  3
    101    100    112    113     1  0.0000000  0.6508444  3
    101    100    112    114     1  0.0000000  0.6508444  3
    102    100    112    289     1  0.0000000  1.0460000  1
    102    100    112    289     1  0.0000000  0.0000000  3
    102    100    112    113     1  0.0000000  0.6508444  3
    102    100    112    114     1  0.0000000  0.6508444  3
    104    103    109    260     1  0.0000000  1.0460000  1
    104    103    109    260     1  0.0000000  0.0000000  3
    104    103    109    110     1  0.0000000  0.6508444  3
    104    103    109    111     1  0.0000000  0.6508444  3
    105    103    109    260     1  0.0000000  1.0460000  1
    105    103    109    260     1  0.0000000  0.0000000  3
    105    103    109    110     1  0.0000000  0.6508444  3
    105    103    109    111     1  0.0000000  0.6508444  3
    109    260    251    252     1  0.0000000  1.6038667  3
    109    260    251    253     1  0.0000000  1.6038667  3
    110    109    260    251     1  0.0000000  1.6038667  3
    111    109    260    251     1  0.0000000  1.6038667  3
    112    289    280    281     1  0.0000000  1.6038667  3
    112    289    280    282     1  0.0000000  1.6038667  3
    113    112    289    280     1  0.0000000  1.6038667  3
    114    112    289    280     1  0.0000000  1.6038667  3
    116    117    129    130     1  0.0000000  0.6508444  3
    116    117    129    131     1  0.0000000  0.6508444  3
    116    120    132    133     1  0.0000000  0.6508444  3
    116    120    132    134     1  0.0000000  0.6508444  3
    116    123    126    127     1  0.0000000  0.6508444  3
    116    123    126    128     1  0.0000000  0.6508444  3
    117    116    120    121     1  0.0000000  1.2552000  3
    117    116    120    122     1  0.0000000  1.2552000  3
    117    116    123    124     1  0.0000000  1.2552000  3
    117    116    123    125     1  0.0000000  1.2552000  3
    117    129    141    142     1  0.0000000  0.6508444  3
    117    129    141    143     1  0.0000000  0.6508444  3
    118    117    116    120     1  0.0000000  1.2552000  3
    118    117    116    123     1  0.0000000  1.2552000  3
    118    117    129    141     1  0.0000000  0.6508444  3
    118    117    129    130     1  0.0000000  0.6508444  3
    118    117    129    131     1  0.0000000  0.6508444  3
    119    117    116    120     1  0.0000000  1.2552000  3
    119    117    116    123     1  0.0000000  1.2552000  3
    119    117    129    141     1  0.0000000  0.6508444  3
    119    117    129    130     1  0.0000000  0.6508444  3
    119    117    129    131     1  0.0000000  0.6508444  3
    120    116    123    124     1  0.0000000  1.2552000  3
    120    116    123    125     1  0.0000000  1.2552000  3
    120    132    138    139     1  0.0000000  0.6508444  3
    120    132    138    140     1  0.0000000  0.6508444  3
    121    120    116    123     1  0.0000000  1.2552000  3
    121    120    132    138     1  0.0000000  0.6508444  3
    121    120    132    133     1  0.0000000  0.6508444  3
    121    120    132    134     1  0.0000000  0.6508444  3
    122    120    116    123     1  0.0000000  1.2552000  3
    122    120    132    138     1  0.0000000  0.6508444  3
    122    120    132    133     1  0.0000000  0.6508444  3
    122    120    132    134     1  0.0000000  0.6508444  3
    123    126    135    136     1  0.0000000  0.6508444  3
    123    126    135    137     1  0.0000000  0.6508444  3
    124    123    126    135     1  0.0000000  0.6508444  3
    124    123    126    127     1  0.0000000  0.6508444  3
    124    123    126    128     1  0.0000000  0.6508444  3
    125    123    126    135     1  0.0000000  0.6508444  3
    125    123    126    127     1  0.0000000  0.6508444  3
    125    123    126    128     1  0.0000000  0.6508444  3
    127    126    135    144     1  0.0000000  1.0460000  1
    127    126    135    144     1  0.0000000  0.0000000  3
    127    126    135    136     1  0.0000000  0.6508444  3
    127    126    135    137     1  0.0000000  0.6508444  3
    128    126    135    144     1  0.0000000  1.0460000  1
    128    126    135    144     1  0.0000000  0.0000000  3
    128    126    135    136     1  0.0000000  0.6508444  3
    128    126    135    137     1  0.0000000  0.6508444  3
    130    129    141    347     1  0.0000000  1.0460000  1
    130    129    141    347     1  0.0000000  0.0000000  3
    130    129    141    142     1  0.0000000  0.6508444  3
    130    129    141    143     1  0.0000000  0.6508444  3
    131    129    141    347     1  0.0000000  1.0460000  1
    131    129    141    347     1  0.0000000  0.0000000  3
    131    129    141    142     1  0.0000000  0.6508444  3
    131    129    141    143     1  0.0000000  0.6508444  3
    133    132    138    318     1  0.0000000  1.0460000  1
    133    132    138    318     1  0.0000000  0.0000000  3
    133    132    138    139     1  0.0000000  0.6508444  3
    133    132    138    140     1  0.0000000  0.6508444  3
    134    132    138    318     1  0.0000000  1.0460000  1
    134    132    138    318     1  0.0000000  0.0000000  3
    134    132    138    139     1  0.0000000  0.6508444  3
    134    132    138    140     1  0.0000000  0.6508444  3
    138    318    309    310     1  0.0000000  1.6038667  3
    138    318    309    311     1  0.0000000  1.6038667  3
    139    138    318    309     1  0.0000000  1.6038667  3
    140    138    318    309     1  0.0000000  1.6038667  3
    141    347    338    339     1  0.0000000  1.6038667  3
    141    347    338    340     1  0.0000000  1.6038667  3
    142    141    347    338     1  0.0000000  1.6038667  3
    143    141    347    338     1  0.0000000  1.6038667  3
    145    146    158    159     1  0.0000000  0.6508444  3
    145    146    158    160     1  0.0000000  0.6508444  3
    145    149    161    162     1  0.0000000  0.6508444  3
    145    149    161    163     1  0.0000000  0.6508444  3
    145    152    155    156     1  0.0000000  0.6508444  3
    145    152    155    157     1  0.0000000  0.6508444  3
    146    145    149    150     1  0.0000000  1.2552000  3
    146    145    149    151     1  0.0000000  1.2552000  3
    146    145    152    153     1  0.0000000  1.2552000  3
    146    145    152    154     1  0.0000000  1.2552000  3
    146    158    170    171     1  0.0000000  0.6508444  3
    146    158    170    172     1  0.0000000  0.6508444  3
    147    146    145    149     1  0.0000000  1.2552000  3
    147    146    145    152     1  0.0000000  1.2552000  3
    147    146    158    170     1  0.0000000  0.6508444  3
    147    146    158    159     1  0.0000000  0.6508444  3
    147    146    158    160     1  0.0000000  0.6508444  3
    148    146    145    149     1  0.0000000  1.2552000  3
    148    146    145    152     1  0.0000000  1.2552000  3
    148    146    158    170     1  0.0000000  0.6508444  3
    148    146    158    159     1  0.0000000  0.6508444  3
    148    146    158    160     1  0.0000000  0.6508444  3
    149    145    152    153     1  0.0000000  1.2552000  3
    149    145    152    154     1  0.0000000  1.2552000  3
    149    161    167    168     1  0.0000000  0.6508444  3
    149    161    167    169     1  0.0000000  0.6508444  3
    150    149    145    152     1  0.0000000  1.2552000  3
    150    149    161    167     1  0.0000000  0.6508444  3
    150    149    161    162     1  0.0000000  0.6508444  3
    150    149    161    163     1  0.0000000  0.6508444  3
    151    149    145    152     1  0.0000000  1.2552000  3
    151    149    161    167     1  0.0000000  0.6508444  3
    151    149    161    162     1  0.0000000  0.6508444  3
    151    149    161    163     1  0.0000000  0.6508444  3
    152    155    164    165     1  0.0000000  0.6508444  3
    152    155    164    166     1  0.0000000  0.6508444  3
    153    152    155    164     1  0.0000000  0.6508444  3
    153    152    155    156     1  0.0000000  0.6508444  3
    153    152    155    157     1  0.0000000  0.6508444  3
    154    152    155    164     1  0.0000000  0.6508444  3
    154    152    155    156     1  0.0000000  0.6508444  3
    154    152    155    157     1  0.0000000  0.6508444  3
    156    155    164    173     1  0.0000000  1.0460000  1
    156    155    164    173     1  0.0000000  0.0000000  3
    156    155    164    165     1  0.0000000  0.6508444  3
    156    155    164    166     1  0.0000000  0.6508444  3
    157    155    164    173     1  0.0000000  1.0460000  1
    157    155    164    173     1  0.0000000  0.0000000  3
    157    155    164    165     1  0.0000000  0.6508444  3
    157    155    164    166     1  0.0000000  0.6508444  3
    159    158    170    405     1  0.0000000  1.0460000  1
    159    158    170    405     1  0.0000000  0.0000000  3
    159    158    170    171     1  0.0000000  0.6508444  3
    159    158    170    172     1  0.0000000  0.6508444  3
    160    158    170    405     1  0.0000000  1.0460000  1
    160    158    170    405     1  0.0000000  0.0000000  3
    160    158    170    171     1  0.0000000  0.6508444  3
    160    158    170    172     1  0.0000000  0.6508444  3
    162    161    167    376     1  0.0000000  1.0460000  1
    162    161    167    376     1  0.0000000  0.0000000  3
    162    161    167    168     1  0.0000000  0.6508444  3
    162    161    167    169     1  0.0000000  0.6508444  3
    163    161    167    376     1  0.0000000  1.0460000  1
    163    161    167    376     1  0.0000000  0.0000000  3
    163    161    167    168     1  0.0000000  0.6508444  3
    163    161    167    169     1  0.0000000  0.6508444  3
    167    376    367    368     1  0.0000000  1.6038667  3
    167    376    367    369     1  0.0000000  1.6038667  3
    168    167    376    367     1  0.0000000  1.6038667  3
    169    167    376    367     1  0.0000000  1.6038667  3
    170    405    396    397     1  0.0000000  1.6038667  3
    170    405    396    398     1  0.0000000  1.6038667  3
    171    170    405    396     1  0.0000000  1.6038667  3
    172    170    405    396     1  0.0000000  1.6038667  3
    174    175    187    188     1  0.0000000  0.6508444  3
    174    175    187    189     1  0.0000000  0.6508444  3
    174    178    190    191     1  0.0000000  0.6508444  3
    174    178    190    192     1  0.0000000  0.6508444  3
    174    181    184    185     1  0.0000000  0.6508444  3
    174    181    184    186     1  0.0000000  0.6508444  3
    175    174    178    179     1  0.0000000  1.2552000  3
    175    174    178    180     1  0.0000000  1.2552000  3
    175    174    181    182     1  0.0000000  1.2552000  3
    175    174    181    183     1  0.0000000  1.2552000  3
    175    187    199    200     1  0.0000000  0.6508444  3
    175    187    199    201     1  0.0000000  0.6508444  3
    176    175    174    178     1  0.0000000  1.2552000  3
    176    175    174    181     1  0.0000000  1.2552000  3
    176    175    187    199     1  0.0000000  0.6508444  3
    176    175    187    188     1  0.0000000  0.6508444  3
    176    175    187    189     1  0.0000000  0.6508444  3
    177    175    174    178     1  0.0000000  1.2552000  3
    177    175    174    181     1  0.0000000  1.2552000  3
    177    175    187    199     1  0.0000000  0.6508444  3
    177    175    187    188     1  0.0000000  0.6508444  3
    177    175    187    189     1  0.0000000  0.6508444  3
    178    174    181    182     1  0.0000000  1.2552000  3
    178    174    181    183     1  0.0000000  1.2552000  3
    178    190    196    197     1  0.0000000  0.6508444  3
    178    190    196    198     1  0.0000000  0.6508444  3
    179    178    174    181     1  0.0000000  1.2552000  3
    179    178    190    196     1  0.0000000  0.6508444  3
    179    178    190    191     1  0.0000000  0.6508444  3
    179    178    190    192     1  0.0000000  0.6508444  3
    180    178    174    181     1  0.0000000  1.2552000  3
    180    178    190    196     1  0.0000000  0.6508444  3
    180    178    190    191     1  0.0000000  0.6508444  3
    180    178    190    192     1  0.0000000  0.6508444  3
    181    184    193    194     1  0.0000000  0.6508444  3
    181    184    193    195     1  0.0000000  0.6508444  3
    182    181    184    193     1  0.0000000  0.6508444  3
    182    181    184    185     1  0.0000000  0.6508444  3
    182    181    184    186     1  0.0000000  0.6508444  3
    183    181    184    193     1  0.0000000  0.6508444  3
    183    181    184    185     1  0.0000000  0.6508444  3
    183    181    184    186     1  0.0000000  0.6508444  3
    185    184    193    202     1  0.0000000  1.0460000  1
    185    184    193    202     1  0.0000000  0.0000000  3
    185    184    193    194     1  0.0000000  0.6508444  3
    185    184    193    195     1  0.0000000  0.6508444  3
    186    184    193    202     1  0.0000000  1.0460000  1
    186    184    193    202     1  0.0000000  0.0000000  3
    186    184    193    194     1  0.0000000  0.6508444  3
    186    184    193    195     1  0.0000000  0.6508444  3
    188    187    199    463     1  0.0000000  1.0460000  1
    188    187    199    463     1  0.0000000  0.0000000  3
    188    187    199    200     1  0.0000000  0.6508444  3
    188    187    199    201     1  0.0000000  0.6508444  3
    189    187    199    463     1  0.0000000  1.0460000  1
    189    187    199    463     1  0.0000000  0.0000000  3
    189    187    199    200     1  0.0000000  0.6508444  3
    189    187    199    201     1  0.0000000  0.6508444  3
    191    190    196    434     1  0.0000000  1.0460000  1
    191    190    196    434     1  0.0000000  0.0000000  3
    191    190    196    197     1  0.0000000  0.6508444  3
    191    190    196    198     1  0.0000000  0.6508444  3
    192    190    196    434     1  0.0000000  1.0460000  1
    192    190    196    434     1  0.0000000  0.0000000  3
    192    190    196    197     1  0.0000000  0.6508444  3
    192    190    196    198     1  0.0000000  0.6508444  3
    196    434    425    426     1  0.0000000  1.6038667  3
    196    434    425    427     1  0.0000000  1.6038667  3
    197    196    434    425     1  0.0000000  1.6038667  3
    198    196    434    425     1  0.0000000  1.6038667  3
    199    463    454    455     1  0.0000000  1.6038667  3
    199    463    454    456     1  0.0000000  1.6038667  3
    200    199    463    454     1  0.0000000  1.6038667  3
    201    199    463    454     1  0.0000000  1.6038667  3
    203    204    216    217     1  0.0000000  0.6508444  3
    203    204    216    218     1  0.0000000  0.6508444  3
    203    207    219    220     1  0.0000000  0.6508444  3
    203    207    219    221     1  0.0000000  0.6508444  3
    203    210    213    214     1  0.0000000  0.6508444  3
    203    210    213    215     1  0.0000000  0.6508444  3
    204    203    207    208     1  0.0000000  1.2552000  3
    204    203    207    209     1  0.0000000  1.2552000  3
    204    203    210    211     1  0.0000000  1.2552000  3
    204    203    210    212     1  0.0000000  1.2552000  3
    204    216    228    229     1  0.0000000  0.6508444  3
    204    216    228    230     1  0.0000000  0.6508444  3
    205    204    203    207     1  0.0000000  1.2552000  3
    205    204    203    210     1  0.0000000  1.2552000  3
    205    204    216    228     1  0.0000000  0.6508444  3
    205    204    216    217     1  0.0000000  0.6508444  3
    205    204    216    218     1  0.0000000  0.6508444  3
    206    204    203    207     1  0.0000000  1.2552000  3
    206    204    203    210     1  0.0000000  1.2552000  3
    206    204    216    228     1  0.0000000  0.6508444  3
    206    204    216    217     1  0.0000000  0.6508444  3
    206    204    216    218     1  0.0000000  0.6508444  3
    207    203    210    211     1  0.0000000  1.2552000  3
    207    203    210    212     1  0.0000000  1.2552000  3
    207    219    225    226     1  0.0000000  0.6508444  3
    207    219    225    227     1  0.0000000  0.6508444  3
    208    207    203    210     1  0.0000000  1.2552000  3
    208    207    219    225     1  0.0000000  0.6508444  3
    208    207    219    220     1  0.0000000  0.6508444  3
    208    207    219    221     1  0.0000000  0.6508444  3
    209    207    203    210     1  0.0000000  1.2552000  3
    209    207    219    225     1  0.0000000  0.6508444  3
    209    207    219    220     1  0.0000000  0.6508444  3
    209    207    219    221     1  0.0000000  0.6508444  3
    210    213    222    223     1  0.0000000  0.6508444  3
    210    213    222    224     1  0.0000000  0.6508444  3
    211    210    213    222     1  0.0000000  0.6508444  3
    211    210    213    214     1  0.0000000  0.6508444  3
    211    210    213    215     1  0.0000000  0.6508444  3
    212    210    213    222     1  0.0000000  0.6508444  3
    212    210    213    214     1  0.0000000  0.6508444  3
    212    210    213    215     1  0.0000000  0.6508444  3
    214    213    222    231     1  0.0000000  1.0460000  1
    214    213    222    231     1  0.0000000  0.0000000  3
    214    213    222    223     1  0.0000000  0.6508444  3
    214    213    222    224     1  0.0000000  0.6508444  3
    215    213    222    231     1  0.0000000  1.0460000  1
    215    213    222    231     1  0.0000000  0.0000000  3
    215    213    222    223     1  0.0000000  0.6508444  3
    215    213    222    224     1  0.0000000  0.6508444  3
    217    216    228    521     1  0.0000000  1.0460000  1
    217    216    228    521     1  0.0000000  0.0000000  3
    217    216    228    229     1  0.0000000  0.6508444  3
    217    216    228    230     1  0.0000000  0.6508444  3
    218    216    228    521     1  0.0000000  1.0460000  1
    218    216    228    521     1  0.0000000  0.0000000  3
    218    216    228    229     1  0.0000000  0.6508444  3
    218    216    228    230     1  0.0000000  0.6508444  3
    220    219    225    492     1  0.0000000  1.0460000  1
    220    219    225    492     1  0.0000000  0.0000000  3
    220    219    225    226     1  0.0000000  0.6508444  3
    220    219    225    227     1  0.0000000  0.6508444  3
    221    219    225    492     1  0.0000000  1.0460000  1
    221    219    225    492     1  0.0000000  0.0000000  3
    221    219    225    226     1  0.0000000  0.6508444  3
    221    219    225    227     1  0.0000000  0.6508444  3
    225    492    483    484     1  0.0000000  1.6038667  3
    225    492    483    485     1  0.0000000  1.6038667  3
    226    225    492    483     1  0.0000000  1.6038667  3
    227    225    492    483     1  0.0000000  1.6038667  3
    228    521    512    513     1  0.0000000  1.6038667  3
    228    521    512    514     1  0.0000000  1.6038667  3
    229    228    521    512     1  0.0000000  1.6038667  3
    230    228    521    512     1  0.0000000  1.6038667  3
    232    233    245    246     1  0.0000000  0.6508444  3
    232    233    245    247     1  0.0000000  0.6508444  3
    232    236    248    249     1  0.0000000  0.6508444  3
    232    236    248    250     1  0.0000000  0.6508444  3
    232    239    242    243     1  0.0000000  0.6508444  3
    232    239    242    244     1  0.0000000  0.6508444  3
    233    232    236    237     1  0.0000000  1.2552000  3
    233    232    236    238     1  0.0000000  1.2552000  3
    233    232    239    240     1  0.0000000  1.2552000  3
    233    232    239    241     1  0.0000000  1.2552000  3
    233    245    257    258     1  0.0000000  0.6508444  3
    233    245    257    259     1  0.0000000  0.6508444  3
    234    233    232    236     1  0.0000000  1.2552000  3
    234    233    232    239     1  0.0000000  1.2552000  3
    234    233    245    257     1  0.0000000  0.6508444  3
    234    233    245    246     1  0.0000000  0.6508444  3
    234    233    245    247     1  0.0000000  0.6508444  3
    235    233    232    236     1  0.0000000  1.2552000  3
    235    233    232    239     1  0.0000000  1.2552000  3
    235    233    245    257     1  0.0000000  0.6508444  3
    235    233    245    246     1  0.0000000  0.6508444  3
    235    233    245    247     1  0.0000000  0.6508444  3
    236    232    239    240     1  0.0000000  1.2552000  3
    236    232    239    241     1  0.0000000  1.2552000  3
    236    248    254    255     1  0.0000000  0.6508444  3
    236    248    254    256     1  0.0000000  0.6508444  3
    237    236    232    239     1  0.0000000  1.2552000  3
    237    236    248    254     1  0.0000000  0.6508444  3
    237    236    248    249     1  0.0000000  0.6508444  3
    237    236    248    250     1  0.0000000  0.6508444  3
    238    236    232    239     1  0.0000000  1.2552000  3
    238    236    248    254     1  0.0000000  0.6508444  3
    238    236    248    249     1  0.0000000  0.6508444  3
    238    236    248    250     1  0.0000000  0.6508444  3
    239    242    251    252     1  0.0000000  0.6508444  3
    239    242    251    253     1  0.0000000  0.6508444  3
    240    239    242    251     1  0.0000000  0.6508444  3
    240    239    242    243     1  0.0000000  0.6508444  3
    240    239    242    244     1  0.0000000  0.6508444  3
    241    239    242    251     1  0.0000000  0.6508444  3
    241    239    242    243     1  0.0000000  0.6508444  3
    241    239    242    244     1  0.0000000  0.6508444  3
    243    242    251    260     1  0.0000000  1.0460000  1
    243    242    251    260     1  0.0000000  0.0000000  3
    243    242    251    252     1  0.0000000  0.6508444  3
    243    242    251    253     1  0.0000000  0.6508444  3
    244    242    251    260     1  0.0000000  1.0460000  1
    244    242    251    260     1  0.0000000  0.0000000  3
    244    242    251    252     1  0.0000000  0.6508444  3
    244    242    251    253     1  0.0000000  0.6508444  3
    246    245    257    579     1  0.0000000  1.0460000  1
    246    245    257    579     1  0.0000000  0.0000000  3
    246    245    257    258     1  0.0000000  0.6508444  3
    246    245    257    259     1  0.0000000  0.6508444  3
    247    245    257    579     1  0.0000000  1.0460000  1
    247    245    257    579     1  0.0000000  0.0000000  3
    247    245    257    258     1  0.0000000  0.6508444  3
    247    245    257    259     1  0.0000000  0.6508444  3
    249    248    254    550     1  0.0000000  1.0460000  1
    249    248    254    550     1  0.0000000  0.0000000  3
    249    248    254    255     1  0.0000000  0.6508444  3
    249    248    254    256     1  0.0000000  0.6508444  3
    250    248    254    550     1  0.0000000  1.0460000  1
    250    248    254    550     1  0.0000000  0.0000000  3
    250    248    254    255     1  0.0000000  0.6508444  3
    250    248    254    256     1  0.0000000  0.6508444  3
    254    550    541    542     1  0.0000000  1.6038667  3
    254    550    541    543     1  0.0000000  1.6038667  3
    255    254    550    541     1  0.0000000  1.6038667  3
    256    254    550    541     1  0.0000000  1.6038667  3
    257    579    570    571     1  0.0000000  1.6038667  3
    257    579    570    572     1  0.0000000  1.6038667  3
    258    257    579    570     1  0.0000000  1.6038667  3
    259    257    579    570     1  0.0000000  1.6038667  3
    261    262    274    275     1  0.0000000  0.6508444  3
    261    262    274    276     1  0.0000000  0.6508444  3
    261    265    277    278     1  0.0000000  0.6508444  3
    261    265    277    279     1  0.0000000  0.6508444  3
    261    268    271    272     1  0.0000000  0.6508444  3
    261    268    271    273     1  0.0000000  0.6508444  3
    262    261    265    266     1  0.0000000  1.2552000  3
    262    261    265    267     1  0.0000000  1.2552000  3
    262    261    268    269     1  0.0000000  1.2552000  3
    262    261    268    270     1  0.0000000  1.2552000  3
    262    274    286    287     1  0.0000000  0.6508444  3
    262    274    286    288     1  0.0000000  0.6508444  3
    263    262    261    265     1  0.0000000  1.2552000  3
    263    262    261    268     1  0.0000000  1.2552000  3
    263    262    274    286     1  0.0000000  0.6508444  3
    263    262    274    275     1  0.0000000  0.6508444  3
    263    262    274    276     1  0.0000000  0.6508444  3
    264    262    261    265     1  0.0000000  1.2552000  3
    264    262    261    268     1  0.0000000  1.2552000  3
    264    262    274    286     1  0.0000000  0.6508444  3
    264    262    274    275     1  0.0000000  0.6508444  3
    264    262    274    276     1  0.0000000  0.6508444  3
    265    261    268    269     1  0.0000000  1.2552000  3
    265    261    268    270     1  0.0000000  1.2552000  3
    265    277    283    284     1  0.0000000  0.6508444  3
    265    277    283    285     1  0.0000000  0.6508444  3
    266    265    261    268     1  0.0000000  1.2552000  3
    266    265    277    283     1  0.0000000  0.6508444  3
    266    265    277    278     1  0.0000000  0.6508444  3
    266    265    277    279     1  0.0000000  0.6508444  3
    267    265    261    268     1  0.0000000  1.2552000  3
    267    265    277    283     1  0.0000000  0.6508444  3
    267    265    277    278     1  0.0000000  0.6508444  3
    267    265    277    279     1  0.0000000  0.6508444  3
    268    271    280    281     1  0.0000000  0.6508444  3
    268    271    280    282     1  0.0000000  0.6508444  3
    269    268    271    280     1  0.0000000  0.6508444  3
    269    268    271    272     1  0.0000000  0.6508444  3
    269    268    271    273     1  0.0000000  0.6508444  3
    270    268    271    280     1  0.0000000  0.6508444  3
    270    268    271    272     1  0.0000000  0.6508444  3
    270    268    271    273     1  0.0000000  0.6508444  3
    272    271    280    289     1  0.0000000  1.0460000  1
    272    271    280    289     1  0.0000000  0.0000000  3
    272    271    280    281     1  0.0000000  0.6508444  3
    272    271    280    282     1  0.0000000  0.6508444  3
    273    271    280    289     1  0.0000000  1.0460000  1
    273    271    280    289     1  0.0000000  0.0000000  3
    273    271    280    281     1  0.0000000  0.6508444  3
    273    271    280    282     1  0.0000000  0.6508444  3
    275    274    286    637     1  0.0000000  1.0460000  1
    275    274    286    637     1  0.0000000  0.0000000  3
    275    274    286    287     1  0.0000000  0.6508444  3
    275    274    286    288     1  0.0000000  0.6508444  3
    276    274    286    637     1  0.0000000  1.0460000  1
    276    274    286    637     1  0.0000000  0.0000000  3
    276    274    286    287     1  0.0000000  0.6508444  3
    276    274    286    288     1  0.0000000  0.6508444  3
    278    277    283    608     1  0.0000000  1.0460000  1
    278    277    283    608     1  0.0000000  0.0000000  3
    278    277    283    284     1  0.0000000  0.6508444  3
    278    277    283    285     1  0.0000000  0.6508444  3
    279    277    283    608     1  0.0000000  1.0460000  1
    279    277    283    608     1  0.0000000  0.0000000  3
    279    277    283    284     1  0.0000000  0.6508444  3
    279    277    283    285     1  0.0000000  0.6508444  3
    283    608    599    600     1  0.0000000  1.6038667  3
    283    608    599    601     1  0.0000000  1.6038667  3
    284    283    608    599     1  0.0000000  1.6038667  3
    285    283    608    599     1  0.0000000  1.6038667  3
    286    637    628    629     1  0.0000000  1.6038667  3
    286    637    628    630     1  0.0000000  1.6038667  3
    287    286    637    628     1  0.0000000  1.6038667  3
    288    286    637    628     1  0.0000000  1.6038667  3
    290    291    303    304     1  0.0000000  0.6508444  3
    290    291    303    305     1  0.0000000  0.6508444  3
    290    294    306    307     1  0.0000000  0.6508444  3
    290    294    306    308     1  0.0000000  0.6508444  3
    290    297    300    301     1  0.0000000  0.6508444  3
    290    297    300    302     1  0.0000000  0.6508444  3
    291    290    294    295     1  0.0000000  1.2552000  3
    291    290    294    296     1  0.0000000  1.2552000  3
    291    290    297    298     1  0.0000000  1.2552000  3
    291    290    297    299     1  0.0000000  1.2552000  3
    291    303    315    316     1  0.0000000  0.6508444  3
    291    303    315    317     1  0.0000000  0.6508444  3
    292    291    290    294     1  0.0000000  1.2552000  3
    292    291    290    297     1  0.0000000  1.2552000  3
    292    291    303    315     1  0.0000000  0.6508444  3
    292    291    303    304     1  0.0000000  0.6508444  3
    292    291    303    305     1  0.0000000  0.6508444  3
    293    291    290    294     1  0.0000000  1.2552000  3
    293    291    290    297     1  0.0000000  1.2552000  3
    293    291    303    315     1  0.0000000  0.6508444  3
    293    291    303    304     1  0.0000000  0.6508444  3
    293    291    303    305     1  0.0000000  0.6508444  3
    294    290    297    298     1  0.0000000  1.2552000  3
    294    290    297    299     1  0.0000000  1.2552000  3
    294    306    312    313     1  0.0000000  0.6508444  3
    294    306    312    314     1  0.0000000  0.6508444  3
    295    294    290    297     1  0.0000000  1.2552000  3
    295    294    306    312     1  0.0000000  0.6508444  3
    295    294    306    307     1  0.0000000  0.6508444  3
    295    294    306    308     1  0.0000000  0.6508444  3
    296    294    290    297     1  0.0000000  1.2552000  3
    296    294    306    312     1  0.0000000  0.6508444  3
    296    294    306    307     1  0.0000000  0.6508444  3
    296    294    306    308     1  0.0000000  0.6508444  3
    297    300    309    310     1  0.0000000  0.6508444  3
    297    300    309    311     1  0.0000000  0.6508444  3
    298    297    300    309     1  0.0000000  0.6508444  3
    298    297    300    301     1  0.0000000  0.6508444  3
    298    297    300    302     1  0.0000000  0.6508444  3
    299    297    300    309     1  0.0000000  0.6508444  3
    299    297    300    301     1  0.0000000  0.6508444  3
    299    297    300    302     1  0.0000000  0.6508444  3
    301    300    309    318     1  0.0000000  1.0460000  1
    301    300    309    318     1  0.0000000  0.0000000  3
    301    300    309    310     1  0.0000000  0.6508444  3
    301    300    309    311     1  0.0000000  0.6508444  3
    302    300    309    318     1  0.0000000  1.0460000  1
    302    300    309    318     1  0.0000000  0.0000000  3
    302    300    309    310     1  0.0000000  0.6508444  3
    302    300    309    311     1  0.0000000  0.6508444  3
    304    303    315    664     1  0.0000000  1.0460000  1
    304    303    315    664     1  0.0000000  0.0000000  3
    304    303    315    316     1  0.0000000  0.6508444  3
    304    303    315    317     1  0.0000000  0.6508444  3
    305    303    315    664     1  0.0000000  1.0460000  1
    305    303    315    664     1  0.0000000  0.0000000  3
    305    303    315    316     1  0.0000000  0.6508444  3
    305    303    315    317     1  0.0000000  0.6508444  3
    307    306    312    650     1  0.0000000  1.0460000  1
    307    306    312    650     1  0.0000000  0.0000000  3
    307    306    312    313     1  0.0000000  0.6508444  3
    307    306    312    314     1  0.0000000  0.6508444  3
    308    306    312    650     1  0.0000000  1.0460000  1
    308    306    312    650     1  0.0000000  0.0000000  3
    308    306    312    313     1  0.0000000  0.6508444  3
    308    306    312    314     1  0.0000000  0.6508444  3
    312    650    644    645     1  0.0000000  1.6038667  3
    312    650    644    646     1  0.0000000  1.6038667  3
    313    312    650    644     1  0.0000000  1.6038667  3
    314    312    650    644     1  0.0000000  1.6038667  3
    315    664    658    659     1  0.0000000  1.6038667  3
    315    664    658    660     1  0.0000000  1.6038667  3
    316    315    664    658     1  0.0000000  1.6038667  3
    317    315    664    658     1  0.0000000  1.6038667  3
    319    320    332    333     1  0.0000000  0.6508444  3
    319    320    332    334     1  0.0000000  0.6508444  3
    319    323    335    336     1  0.0000000  0.6508444  3
    319    323    335    337     1  0.0000000  0.6508444  3
    319    326    329    330     1  0.0000000  0.6508444  3
    319    326    329    331     1  0.0000000  0.6508444  3
    320    319    323    324     1  0.0000000  1.2552000  3
    320    319    323    325     1  0.0000000  1.2552000  3
    320    319    326    327     1  0.0000000  1.2552000  3
    320    319    326    328     1  0.0000000  1.2552000  3
    320    332    344    345     1  0.0000000  0.6508444  3
    320    332    344    346     1  0.0000000  0.6508444  3
    321    320    319    323     1  0.0000000  1.2552000  3
    321    320    319    326     1  0.0000000  1.2552000  3
    321    320    332    344     1  0.0000000  0.6508444  3
    321    320    332    333     1  0.0000000  0.6508444  3
    321    320    332    334     1  0.0000000  0.6508444  3
    322    320    319    323     1  0.0000000  1.2552000  3
    322    320    319    326     1  0.0000000  1.2552000  3
    322    320    332    344     1  0.0000000  0.6508444  3
    322    320    332    333     1  0.0000000  0.6508444  3
    322    320    332    334     1  0.0000000  0.6508444  3
    323    319    326    327     1  0.0000000  1.2552000  3
    323    319    326    328     1  0.0000000  1.2552000  3
    323    335    341    342     1  0.0000000  0.6508444  3
    323    335    341    343     1  0.0000000  0.6508444  3
    324    323    319    326     1  0.0000000  1.2552000  3
    324    323    335    341     1  0.0000000  0.6508444  3
    324    323    335    336     1  0.0000000  0.6508444  3
    324    323    335    337     1  0.0000000  0.6508444  3
    325    323    319    326     1  0.0000000  1.2552000  3
    325    323    335    341     1  0.0000000  0.6508444  3
    325    323    335    336     1  0.0000000  0.6508444  3
    325    323    335    337     1  0.0000000  0.6508444  3
    326    329    338    339     1  0.0000000  0.6508444  3
    326    329    338    340     1  0.0000000  0.6508444  3
    327    326    329    338     1  0.0000000  0.6508444  3
    327    326    329    330     1  0.0000000  0.6508444  3
    327    326    329    331     1  0.0000000  0.6508444  3
    328    326    329    338     1  0.0000000  0.6508444  3
    328    326    329    330     1  0.0000000  0.6508444  3
    328    326    329    331     1  0.0000000  0.6508444  3
    330    329    338    347     1  0.0000000  1.0460000  1
    330    329    338    347     1  0.0000000  0.0000000  3
    330    329    338    339     1  0.0000000  0.6508444  3
    330    329    338    340     1  0.0000000  0.6508444  3
    331    329    338    347     1  0.0000000  1.0460000  1
    331    329    338    347     1  0.0000000  0.0000000  3
    331    329    338    339     1  0.0000000  0.6508444  3
    331    329    338    340     1  0.0000000  0.6508444  3
    333    332    344    692     1  0.0000000  1.0460000  1
    333    332    344    692     1  0.0000000  0.0000000  3
    333    332    344    345     1  0.0000000  0.6508444  3
    333    332    344    346     1  0.0000000  0.6508444  3
    334    332    344    692     1  0.0000000  1.0460000  1
    334    332    344    692     1  0.0000000  0.0000000  3
    334    332    344    345     1  0.0000000  0.6508444  3
    334    332    344    346     1  0.0000000  0.6508444  3
    336    335    341    678     1  0.0000000  1.0460000  1
    336    335    341    678     1  0.0000000  0.0000000  3
    336    335    341    342     1  0.0000000  0.6508444  3
    336    335    341    343     1  0.0000000  0.6508444  3
    337    335    341    678     1  0.0000000  1.0460000  1
    337    335    341    678     1  0.0000000  0.0000000  3
    337    335    341    342     1  0.0000000  0.6508444  3
    337    335    341    343     1  0.0000000  0.6508444  3
    341    678    672    673     1  0.0000000  1.6038667  3
    341    678    672    674     1  0.0000000  1.6038667  3
    342    341    678    672     1  0.0000000  1.6038667  3
    343    341    678    672     1  0.0000000  1.6038667  3
    344    692    686    687     1  0.0000000  1.6038667  3
    344    692    686    688     1  0.0000000  1.6038667  3
    345    344    692    686     1  0.0000000  1.6038667  3
    346    344    692    686     1  0.0000000  1.6038667  3
    348    349    361    362     1  0.0000000  0.6508444  3
    348    349    361    363     1  0.0000000  0.6508444  3
    348    352    364    365     1  0.0000000  0.6508444  3
    348    352    364    366     1  0.0000000  0.6508444  3
    348    355    358    359     1  0.0000000  0.6508444  3
    348    355    358    360     1  0.0000000  0.6508444  3
    349    348    352    353     1  0.0000000  1.2552000  3
    349    348    352    354     1  0.0000000  1.2552000  3
    349    348    355    356     1  0.0000000  1.2552000  3
    349    348    355    357     1  0.0000000  1.2552000  3
    349    361    373    374     1  0.0000000  0.6508444  3
    349    361    373    375     1  0.0000000  0.6508444  3
    350    349    348    352     1  0.0000000  1.2552000  3
    350    349    348    355     1  0.0000000  1.2552000  3
    350    349    361    373     1  0.0000000  0.6508444  3
    350    349    361    362     1  0.0000000  0.6508444  3
    350    349    361    363     1  0.0000000  0.6508444  3
    351    349    348    352     1  0.0000000  1.2552000  3
    351    349    348    355     1  0.0000000  1.2552000  3
    351    349    361    373     1  0.0000000  0.6508444  3
    351    349    361    362     1  0.0000000  0.6508444  3
    351    349    361    363     1  0.0000000  0.6508444  3
    352    348    355    356     1  0.0000000  1.2552000  3
    352    348    355    357     1  0.0000000  1.2552000  3
    352    364    370    371     1  0.0000000  0.6508444  3
    352    364    370    372     1  0.0000000  0.6508444  3
    353    352    348    355     1  0.0000000  1.2552000  3
    353    352    364    370     1  0.0000000  0.6508444  3
    353    352    364    365     1  0.0000000  0.6508444  3
    353    352    364    366     1  0.0000000  0.6508444  3
    354    352    348    355     1  0.0000000  1.2552000  3
    354    352    364    370     1  0.0000000  0.6508444  3
    354    352    364    365     1  0.0000000  0.6508444  3
    354    352    364    366     1  0.0000000  0.6508444  3
    355    358    367    368     1  0.0000000  0.6508444  3
    355    358    367    369     1  0.0000000  0.6508444  3
    356    355    358    367     1  0.0000000  0.6508444  3
    356    355    358    359     1  0.0000000  0.6508444  3
    356    355    358    360     1  0.0000000  0.6508444  3
    357    355    358    367     1  0.0000000  0.6508444  3
    357    355    358    359     1  0.0000000  0.6508444  3
    357    355    358    360     1  0.0000000  0.6508444  3
    359    358    367    376     1  0.0000000  1.0460000  1
    359    358    367    376     1  0.0000000  0.0000000  3
    359    358    367    368     1  0.0000000  0.6508444  3
    359    358    367    369     1  0.0000000  0.6508444  3
    360    358    367    376     1  0.0000000  1.0460000  1
    360    358    367    376     1  0.0000000  0.0000000  3
    360    358    367    368     1  0.0000000  0.6508444  3
    360    358    367    369     1  0.0000000  0.6508444  3
    362    361    373    720     1  0.0000000  1.0460000  1
    362    361    373    720     1  0.0000000  0.0000000  3
    362    361    373    374     1  0.0000000  0.6508444  3
    362    361    373    375     1  0.0000000  0.6508444  3
    363    361    373    720     1  0.0000000  1.0460000  1
    363    361    373    720     1  0.0000000  0.0000000  3
    363    361    373    374     1  0.0000000  0.6508444  3
    363    361    373    375     1  0.0000000  0.6508444  3
    365    364    370    706     1  0.0000000  1.0460000  1
    365    364    370    706     1  0.0000000  0.0000000  3
    365    364    370    371     1  0.0000000  0.6508444  3
    365    364    370    372     1  0.0000000  0.6508444  3
    366    364    370    706     1  0.0000000  1.0460000  1
    366    364    370    706     1  0.0000000  0.0000000  3
    366    364    370    371     1  0.0000000  0.6508444  3
    366    364    370    372     1  0.0000000  0.6508444  3
    370    706    700    701     1  0.0000000  1.6038667  3
    370    706    700    702     1  0.0000000  1.6038667  3
    371    370    706    700     1  0.0000000  1.6038667  3
    372    370    706    700     1  0.0000000  1.6038667  3
    373    720    714    715     1  0.0000000  1.6038667  3
    373    720    714    716     1  0.0000000  1.6038667  3
    374    373    720    714     1  0.0000000  1.6038667  3
    375    373    720    714     1  0.0000000  1.6038667  3
    377    378    390    391     1  0.0000000  0.6508444  3
    377    378    390    392     1  0.0000000  0.6508444  3
    377    381    393    394     1  0.0000000  0.6508444  3
    377    381    393    395     1  0.0000000  0.6508444  3
    377    384    387    388     1  0.0000000  0.6508444  3
    377    384    387    389     1  0.0000000  0.6508444  3
    378    377    381    382     1  0.0000000  1.2552000  3
    378    377    381    383     1  0.0000000  1.2552000  3
    378    377    384    385     1  0.0000000  1.2552000  3
    378    377    384    386     1  0.0000000  1.2552000  3
    378    390    402    403     1  0.0000000  0.6508444  3
    378    390    402    404     1  0.0000000  0.6508444  3
    379    378    377    381     1  0.0000000  1.2552000  3
    379    378    377    384     1  0.0000000  1.2552000  3
    379    378    390    402     1  0.0000000  0.6508444  3
    379    378    390    391     1  0.0000000  0.6508444  3
    379    378    390    392     1  0.0000000  0.6508444  3
    380    378    377    381     1  0.0000000  1.2552000  3
    380    378    377    384     1  0.0000000  1.2552000  3
    380    378    390    402     1  0.0000000  0.6508444  3
    380    378    390    391     1  0.0000000  0.6508444  3
    380    378    390    392     1  0.0000000  0.6508444  3
    381    377    384    385     1  0.0000000  1.2552000  3
    381    377    384    386     1  0.0000000  1.2552000  3
    381    393    399    400     1  0.0000000  0.6508444  3
    381    393    399    401     1  0.0000000  0.6508444  3
    382    381    377    384     1  0.0000000  1.2552000  3
    382    381    393    399     1  0.0000000  0.6508444  3
    382    381    393    394     1  0.0000000  0.6508444  3
    382    381    393    395     1  0.0000000  0.6508444  3
    383    381    377    384     1  0.0000000  1.2552000  3
    383    381    393    399     1  0.0000000  0.6508444  3
    383    381    393    394     1  0.0000000  0.6508444  3
    383    381    393    395     1  0.0000000  0.6508444  3
    384    387    396    397     1  0.0000000  0.6508444  3
    384    387    396    398     1  0.0000000  0.6508444  3
    385    384    387    396     1  0.0000000  0.6508444  3
    385    384    387    388     1  0.0000000  0.6508444  3
    385    384    387    389     1  0.0000000  0.6508444  3
    386    384    387    396     1  0.0000000  0.6508444  3
    386    384    387    388     1  0.0000000  0.6508444  3
    386    384    387    389     1  0.0000000  0.6508444  3
    388    387    396    405     1  0.0000000  1.0460000  1
    388    387    396    405     1  0.0000000  0.0000000  3
    388    387    396    397     1  0.0000000  0.6508444  3
    388    387    396    398     1  0.0000000  0.6508444  3
    389    387    396    405     1  0.0000000  1.0460000  1
    389    387    396    405     1  0.0000000  0.0000000  3
    389    387    396    397     1  0.0000000  0.6508444  3
    389    387    396    398     1  0.0000000  0.6508444  3
    391    390    402    748     1  0.0000000  1.0460000  1
    391    390    402    748     1  0.0000000  0.0000000  3
    391    390    402    403     1  0.0000000  0.6508444  3
    391    390    402    404     1  0.0000000  0.6508444  3
    392    390    402    748     1  0.0000000  1.0460000  1
    392    390    402    748     1  0.0000000  0.0000000  3
    392    390    402    403     1  0.0000000  0.6508444  3
    392    390    402    404     1  0.0000000  0.6508444  3
    394    393    399    734     1  0.0000000  1.0460000  1
    394    393    399    734     1  0.0000000  0.0000000  3
    394    393    399    400     1  0.0000000  0.6508444  3
    394    393    399    401     1  0.0000000  0.6508444  3
    395    393    399    734     1  0.0000000  1.0460000  1
    395    393    399    734     1  0.0000000  0.0000000  3
    395    393    399    400     1  0.0000000  0.6508444  3
    395    393    399    401     1  0.0000000  0.6508444  3
    399    734    728    729     1  0.0000000  1.6038667  3
    399    734    728    730     1  0.0000000  1.6038667  3
    400    399    734    728     1  0.0000000  1.6038667  3
    401    399    734    728     1  0.0000000  1.6038667  3
    402    748    742    743     1  0.0000000  1.6038667  3
    402    748    742    744     1  0.0000000  1.6038667  3
    403    402    748    742     1  0.0000000  1.6038667  3
    404    402    748    742     1  0.0000000  1.6038667  3
    406    407    419    420     1  0.0000000  0.6508444  3
    406    407    419    421     1  0.0000000  0.6508444  3
    406    410    422    423     1  0.0000000  0.6508444  3
    406    410    422    424     1  0.0000000  0.6508444  3
    406    413    416    417     1  0.0000000  0.6508444  3
    406    413    416    418     1  0.0000000  0.6508444  3
    407    406    410    411     1  0.0000000  1.2552000  3
    407    406    410    412     1  0.0000000  1.2552000  3
    407    406    413    414     1  0.0000000  1.2552000  3
    407    406    413    415     1  0.0000000  1.2552000  3
    407    419    431    432     1  0.0000000  0.6508444  3
    407    419    431    433     1  0.0000000  0.6508444  3
    408    407    406    410     1  0.0000000  1.2552000  3
    408    407    406    413     1  0.0000000  1.2552000  3
    408    407    419    431     1  0.0000000  0.6508444  3
    408    407    419    420     1  0.0000000  0.6508444  3
    408    407    419    421     1  0.0000000  0.6508444  3
    409    407    406    410     1  0.0000000  1.2552000  3
    409    407    406    413     1  0.0000000  1.2552000  3
    409    407    419    431     1  0.0000000  0.6508444  3
    409    407    419    420     1  0.0000000  0.6508444  3
    409    407    419    421     1  0.0000000  0.6508444  3
    410    406    413    414     1  0.0000000  1.2552000  3
    410    406    413    415     1  0.0000000  1.2552000  3
    410    422    428    429     1  0.0000000  0.6508444  3
    410    422    428    430     1  0.0000000  0.6508444  3
    411    410    406    413     1  0.0000000  1.2552000  3
    411    410    422    428     1  0.0000000  0.6508444  3
    411    410    422    423     1  0.0000000  0.6508444  3
    411    410    422    424     1  0.0000000  0.6508444  3
    412    410    406    413     1  0.0000000  1.2552000  3
    412    410    422    428     1  0.0000000  0.6508444  3
    412    410    422    423     1  0.0000000  0.6508444  3
    412    410    422    424     1  0.0000000  0.6508444  3
    413    416    425    426     1  0.0000000  0.6508444  3
    413    416    425    427     1  0.0000000  0.6508444  3
    414    413    416    425     1  0.0000000  0.6508444  3
    414    413    416    417     1  0.0000000  0.6508444  3
    414    413    416    418     1  0.0000000  0.6508444  3
    415    413    416    425     1  0.0000000  0.6508444  3
    415    413    416    417     1  0.0000000  0.6508444  3
    415    413    416    418     1  0.0000000  0.6508444  3
    417    416    425    434     1  0.0000000  1.0460000  1
    417    416    425    434     1  0.0000000  0.0000000  3
    417    416    425    426     1  0.0000000  0.6508444  3
    417    416    425    427     1  0.0000000  0.6508444  3
    418    416    425    434     1  0.0000000  1.0460000  1
    418    416    425    434     1  0.0000000  0.0000000  3
    418    416    425    426     1  0.0000000  0.6508444  3
    418    416    425    427     1  0.0000000  0.6508444  3
    420    419    431    776     1  0.0000000  1.0460000  1
    420    419    431    776     1  0.0000000  0.0000000  3
    420    419    431    432     1  0.0000000  0.6508444  3
    420    419    431    433     1  0.0000000  0.6508444  3
    421    419    431    776     1  0.0000000  1.0460000  1
    421    419    431    776     1  0.0000000  0.0000000  3
    421    419    431    432     1  0.0000000  0.6508444  3
    421    419    431    433     1  0.0000000  0.6508444  3
    423    422    428    762     1  0.0000000  1.0460000  1
    423    422    428    762     1  0.0000000  0.0000000  3
    423    422    428    429     1  0.0000000  0.6508444  3
    423    422    428    430     1  0.0000000  0.6508444  3
    424    422    428    762     1  0.0000000  1.0460000  1
    424    422    428    762     1  0.0000000  0.0000000  3
    424    422    428    429     1  0.0000000  0.6508444  3
    424    422    428    430     1  0.0000000  0.6508444  3
    428    762    756    757     1  0.0000000  1.6038667  3
    428    762    756    758     1  0.0000000  1.6038667  3
    429    428    762    756     1  0.0000000  1.6038667  3
    430    428    762    756     1  0.0000000  1.6038667  3
    431    776    770    771     1  0.0000000  1.6038667  3
    431    776    770    772     1  0.0000000  1.6038667  3
    432    431    776    770     1  0.0000000  1.6038667  3
    433    431    776    770     1  0.0000000  1.6038667  3
    435    436    448    449     1  0.0000000  0.6508444  3
    435    436    448    450     1  0.0000000  0.6508444  3
    435    439    451    452     1  0.0000000  0.6508444  3
    435    439    451    453     1  0.0000000  0.6508444  3
    435    442    445    446     1  0.0000000  0.6508444  3
    435    442    445    447     1  0.0000000  0.6508444  3
    436    435    439    440     1  0.0000000  1.2552000  3
    436    435    439    441     1  0.0000000  1.2552000  3
    436    435    442    443     1  0.0000000  1.2552000  3
    436    435    442    444     1  0.0000000  1.2552000  3
    436    448    460    461     1  0.0000000  0.6508444  3
    436    448    460    462     1  0.0000000  0.6508444  3
    437    436    435    439     1  0.0000000  1.2552000  3
    437    436    435    442     1  0.0000000  1.2552000  3
    437    436    448    460     1  0.0000000  0.6508444  3
    437    436    448    449     1  0.0000000  0.6508444  3
    437    436    448    450     1  0.0000000  0.6508444  3
    438    436    435    439     1  0.0000000  1.2552000  3
    438    436    435    442     1  0.0000000  1.2552000  3
    438    436    448    460     1  0.0000000  0.6508444  3
    438    436    448    449     1  0.0000000  0.6508444  3
    438    436    448    450     1  0.0000000  0.6508444  3
    439    435    442    443     1  0.0000000  1.2552000  3
    439    435    442    444     1  0.0000000  1.2552000  3
    439    451    457    458     1  0.0000000  0.6508444  3
    439    451    457    459     1  0.0000000  0.6508444  3
    440    439    435    442     1  0.0000000  1.2552000  3
    440    439    451    457     1  0.0000000  0.6508444  3
    440    439    451    452     1  0.0000000  0.6508444  3
    440    439    451    453     1  0.0000000  0.6508444  3
    441    439    435    442     1  0.0000000  1.2552000  3
    441    439    451    457     1  0.0000000  0.6508444  3
    441    439    451    452     1  0.0000000  0.6508444  3
    441    439    451    453     1  0.0000000  0.6508444  3
    442    445    454    455     1  0.0000000  0.6508444  3
    442    445    454    456     1  0.0000000  0.6508444  3
    443    442    445    454     1  0.0000000  0.6508444  3
    443    442    445    446     1  0.0000000  0.6508444  3
    443    442    445    447     1  0.0000000  0.6508444  3
    444    442    445    454     1  0.0000000  0.6508444  3
    444    442    445    446     1  0.0000000  0.6508444  3
    444    442    445    447     1  0.0000000  0.6508444  3
    446    445    454    463     1  0.0000000  1.0460000  1
    446    445    454    463     1  0.0000000  0.0000000  3
    446    445    454    455     1  0.0000000  0.6508444  3
    446    445    454    456     1  0.0000000  0.6508444  3
    447    445    454    463     1  0.0000000  1.0460000  1
    447    445    454    463     1  0.0000000  0.0000000  3
    447    445    454    455     1  0.0000000  0.6508444  3
    447    445    454    456     1  0.0000000  0.6508444  3
    449    448    460    804     1  0.0000000  1.0460000  1
    449    448    460    804     1  0.0000000  0.0000000  3
    449    448    460    461     1  0.0000000  0.6508444  3
    449    448    460    462     1  0.0000000  0.6508444  3
    450    448    460    804     1  0.0000000  1.0460000  1
    450    448    460    804     1  0.0000000  0.0000000  3
    450    448    460    461     1  0.0000000  0.6508444  3
    450    448    460    462     1  0.0000000  0.6508444  3
    452    451    457    790     1  0.0000000  1.0460000  1
    452    451    457    790     1  0.0000000  0.0000000  3
    452    451    457    458     1  0.0000000  0.6508444  3
    452    451    457    459     1  0.0000000  0.6508444  3
    453    451    457    790     1  0.0000000  1.0460000  1
    453    451    457    790     1  0.0000000  0.0000000  3
    453    451    457    458     1  0.0000000  0.6508444  3
    453    451    457    459     1  0.0000000  0.6508444  3
    457    790    784    785     1  0.0000000  1.6038667  3
    457    790    784    786     1  0.0000000  1.6038667  3
    458    457    790    784     1  0.0000000  1.6038667  3
    459    457    790    784     1  0.0000000  1.6038667  3
    460    804    798    799     1  0.0000000  1.6038667  3
    460    804    798    800     1  0.0000000  1.6038667  3
    461    460    804    798     1  0.0000000  1.6038667  3
    462    460    804    798     1  0.0000000  1.6038667  3
    464    465    477    478     1  0.0000000  0.6508444  3
    464    465    477    479     1  0.0000000  0.6508444  3
    464    468    480    481     1  0.0000000  0.6508444  3
    464    468    480    482     1  0.0000000  0.6508444  3
    464    471    474    475     1  0.0000000  0.6508444  3
    464    471    474    476     1  0.0000000  0.6508444  3
    465    464    468    469     1  0.0000000  1.2552000  3
    465    464    468    470     1  0.0000000  1.2552000  3
    465    464    471    472     1  0.0000000  1.2552000  3
    465    464    471    473     1  0.0000000  1.2552000  3
    465    477    489    490     1  0.0000000  0.6508444  3
    465    477    489    491     1  0.0000000  0.6508444  3
    466    465    464    468     1  0.0000000  1.2552000  3
    466    465    464    471     1  0.0000000  1.2552000  3
    466    465    477    489     1  0.0000000  0.6508444  3
    466    465    477    478     1  0.0000000  0.6508444  3
    466    465    477    479     1  0.0000000  0.6508444  3
    467    465    464    468     1  0.0000000  1.2552000  3
    467    465    464    471     1  0.0000000  1.2552000  3
    467    465    477    489     1  0.0000000  0.6508444  3
    467    465    477    478     1  0.0000000  0.6508444  3
    467    465    477    479     1  0.0000000  0.6508444  3
    468    464    471    472     1  0.0000000  1.2552000  3
    468    464    471    473     1  0.0000000  1.2552000  3
    468    480    486    487     1  0.0000000  0.6508444  3
    468    480    486    488     1  0.0000000  0.6508444  3
    469    468    464    471     1  0.0000000  1.2552000  3
    469    468    480    486     1  0.0000000  0.6508444  3
    469    468    480    481     1  0.0000000  0.6508444  3
    469    468    480    482     1  0.0000000  0.6508444  3
    470    468    464    471     1  0.0000000  1.2552000  3
    470    468    480    486     1  0.0000000  0.6508444  3
    470    468    480    481     1  0.0000000  0.6508444  3
    470    468    480    482     1  0.0000000  0.6508444  3
    471    474    483    484     1  0.0000000  0.6508444  3
    471    474    483    485     1  0.0000000  0.6508444  3
    472    471    474    483     1  0.0000000  0.6508444  3
    472    471    474    475     1  0.0000000  0.6508444  3
    472    471    474    476     1  0.0000000  0.6508444  3
    473    471    474    483     1  0.0000000  0.6508444  3
    473    471    474    475     1  0.0000000  0.6508444  3
    473    471    474    476     1  0.0000000  0.6508444  3
    475    474    483    492     1  0.0000000  1.0460000  1
    475    474    483    492     1  0.0000000  0.0000000  3
    475    474    483    484     1  0.0000000  0.6508444  3
    475    474    483    485     1  0.0000000  0.6508444  3
    476    474    483    492     1  0.0000000  1.0460000  1
    476    474    483    492     1  0.0000000  0.0000000  3
    476    474    483    484     1  0.0000000  0.6508444  3
    476    474    483    485     1  0.0000000  0.6508444  3
    478    477    489    832     1  0.0000000  1.0460000  1
    478    477    489    832     1  0.0000000  0.0000000  3
    478    477    489    490     1  0.0000000  0.6508444  3
    478    477    489    491     1  0.0000000  0.6508444  3
    479    477    489    832     1  0.0000000  1.0460000  1
    479    477    489    832     1  0.0000000  0.0000000  3
    479    477    489    490     1  0.0000000  0.6508444  3
    479    477    489    491     1  0.0000000  0.6508444  3
    481    480    486    818     1  0.0000000  1.0460000  1
    481    480    486    818     1  0.0000000  0.0000000  3
    481    480    486    487     1  0.0000000  0.6508444  3
    481    480    486    488     1  0.0000000  0.6508444  3
    482    480    486    818     1  0.0000000  1.0460000  1
    482    480    486    818     1  0.0000000  0.0000000  3
    482    480    486    487     1  0.0000000  0.6508444  3
    482    480    486    488     1  0.0000000  0.6508444  3
    486    818    812    813     1  0.0000000  1.6038667  3
    486    818    812    814     1  0.0000000  1.6038667  3
    487    486    818    812     1  0.0000000  1.6038667  3
    488    486    818    812     1  0.0000000  1.6038667  3
    489    832    826    827     1  0.0000000  1.6038667  3
    489    832    826    828     1  0.0000000  1.6038667  3
    490    489    832    826     1  0.0000000  1.6038667  3
    491    489    832    826     1  0.0000000  1.6038667  3
    493    494    506    507     1  0.0000000  0.6508444  3
    493    494    506    508     1  0.0000000  0.6508444  3
    493    497    509    510     1  0.0000000  0.6508444  3
    493    497    509    511     1  0.0000000  0.6508444  3
    493    500    503    504     1  0.0000000  0.6508444  3
    493    500    503    505     1  0.0000000  0.6508444  3
    494    493    497    498     1  0.0000000  1.2552000  3
    494    493    497    499     1  0.0000000  1.2552000  3
    494    493    500    501     1  0.0000000  1.2552000  3
    494    493    500    502     1  0.0000000  1.2552000  3
    494    506    518    519     1  0.0000000  0.6508444  3
    494    506    518    520     1  0.0000000  0.6508444  3
    495    494    493    497     1  0.0000000  1.2552000  3
    495    494    493    500     1  0.0000000  1.2552000  3
    495    494    506    518     1  0.0000000  0.6508444  3
    495    494    506    507     1  0.0000000  0.6508444  3
    495    494    506    508     1  0.0000000  0.6508444  3
    496    494    493    497     1  0.0000000  1.2552000  3
    496    494    493    500     1  0.0000000  1.2552000  3
    496    494    506    518     1  0.0000000  0.6508444  3
    496    494    506    507     1  0.0000000  0.6508444  3
    496    494    506    508     1  0.0000000  0.6508444  3
    497    493    500    501     1  0.0000000  1.2552000  3
    497    493    500    502     1  0.0000000  1.2552000  3
    497    509    515    516     1  0.0000000  0.6508444  3
    497    509    515    517     1  0.0000000  0.6508444  3
    498    497    493    500     1  0.0000000  1.2552000  3
    498    497    509    515     1  0.0000000  0.6508444  3
    498    497    509    510     1  0.0000000  0.6508444  3
    498    497    509    511     1  0.0000000  0.6508444  3
    499    497    493    500     1  0.0000000  1.2552000  3
    499    497    509    515     1  0.0000000  0.6508444  3
    499    497    509    510     1  0.0000000  0.6508444  3
    499    497    509    511     1  0.0000000  0.6508444  3
    500    503    512    513     1  0.0000000  0.6508444  3
    500    503    512    514     1  0.0000000  0.6508444  3
    501    500    503    512     1  0.0000000  0.6508444  3
    501    500    503    504     1  0.0000000  0.6508444  3
    501    500    503    505     1  0.0000000  0.6508444  3
    502    500    503    512     1  0.0000000  0.6508444  3
    502    500    503    504     1  0.0000000  0.6508444  3
    502    500    503    505     1  0.0000000  0.6508444  3
    504    503    512    521     1  0.0000000  1.0460000  1
    504    503    512    521     1  0.0000000  0.0000000  3
    504    503    512    513     1  0.0000000  0.6508444  3
    504    503    512    514     1  0.0000000  0.6508444  3
    505    503    512    521     1  0.0000000  1.0460000  1
    505    503    512    521     1  0.0000000  0.0000000  3
    505    503    512    513     1  0.0000000  0.6508444  3
    505    503    512    514     1  0.0000000  0.6508444  3
    507    506    518    860     1  0.0000000  1.0460000  1
    507    506    518    860     1  0.0000000  0.0000000  3
    507    506    518    519     1  0.0000000  0.6508444  3
    507    506    518    520     1  0.0000000  0.6508444  3
    508    506    518    860     1  0.0000000  1.0460000  1
    508    506    518    860     1  0.0000000  0.0000000  3
    508    506    518    519     1  0.0000000  0.6508444  3
    508    506    518    520     1  0.0000000  0.6508444  3
    510    509    515    846     1  0.0000000  1.0460000  1
    510    509    515    846     1  0.0000000  0.0000000  3
    510    509    515    516     1  0.0000000  0.6508444  3
    510    509    515    517     1  0.0000000  0.6508444  3
    511    509    515    846     1  0.0000000  1.0460000  1
    511    509    515    846     1  0.0000000  0.0000000  3
    511    509    515    516     1  0.0000000  0.6508444  3
    511    509    515    517     1  0.0000000  0.6508444  3
    515    846    840    841     1  0.0000000  1.6038667  3
    515    846    840    842     1  0.0000000  1.6038667  3
    516    515    846    840     1  0.0000000  1.6038667  3
    517    515    846    840     1  0.0000000  1.6038667  3
    518    860    854    855     1  0.0000000  1.6038667  3
    518    860    854    856     1  0.0000000  1.6038667  3
    519    518    860    854     1  0.0000000  1.6038667  3
    520    518    860    854     1  0.0000000  1.6038667  3
    522    523    535    536     1  0.0000000  0.6508444  3
    522    523    535    537     1  0.0000000  0.6508444  3
    522    526    538    539     1  0.0000000  0.6508444  3
    522    526    538    540     1  0.0000000  0.6508444  3
    522    529    532    533     1  0.0000000  0.6508444  3
    522    529    532    534     1  0.0000000  0.6508444  3
    523    522    526    527     1  0.0000000  1.2552000  3
    523    522    526    528     1  0.0000000  1.2552000  3
    523    522    529    530     1  0.0000000  1.2552000  3
    523    522    529    531     1  0.0000000  1.2552000  3
    523    535    547    548     1  0.0000000  0.6508444  3
    523    535    547    549     1  0.0000000  0.6508444  3
    524    523    522    526     1  0.0000000  1.2552000  3
    524    523    522    529     1  0.0000000  1.2552000  3
    524    523    535    547     1  0.0000000  0.6508444  3
    524    523    535    536     1  0.0000000  0.6508444  3
    524    523    535    537     1  0.0000000  0.6508444  3
    525    523    522    526     1  0.0000000  1.2552000  3
    525    523    522    529     1  0.0000000  1.2552000  3
    525    523    535    547     1  0.0000000  0.6508444  3
    525    523    535    536     1  0.0000000  0.6508444  3
    525    523    535    537     1  0.0000000  0.6508444  3
    526    522    529    530     1  0.0000000  1.2552000  3
    526    522    529    531     1  0.0000000  1.2552000  3
    526    538    544    545     1  0.0000000  0.6508444  3
    526    538    544    546     1  0.0000000  0.6508444  3
    527    526    522    529     1  0.0000000  1.2552000  3
    527    526    538    544     1  0.0000000  0.6508444  3
    527    526    538    539     1  0.0000000  0.6508444  3
    527    526    538    540     1  0.0000000  0.6508444  3
    528    526    522    529     1  0.0000000  1.2552000  3
    528    526    538    544     1  0.0000000  0.6508444  3
    528    526    538    539     1  0.0000000  0.6508444  3
    528    526    538    540     1  0.0000000  0.6508444  3
    529    532    541    542     1  0.0000000  0.6508444  3
    529    532    541    543     1  0.0000000  0.6508444  3
    530    529    532    541     1  0.0000000  0.6508444  3
    530    529    532    533     1  0.0000000  0.6508444  3
    530    529    532    534     1  0.0000000  0.6508444  3
    531    529    532    541     1  0.0000000  0.6508444  3
    531    529    532    533     1  0.0000000  0.6508444  3
    531    529    532    534     1  0.0000000  0.6508444  3
    533    532    541    550     1  0.0000000  1.0460000  1
    533    532    541    550     1  0.0000000  0.0000000  3
    533    532    541    542     1  0.0000000  0.6508444  3
    533    532    541    543     1  0.0000000  0.6508444  3
    534    532    541    550     1  0.0000000  1.0460000  1
    534    532    541    550     1  0.0000000  0.0000000  3
    534    532    541    542     1  0.0000000  0.6508444  3
    534    532    541    543     1  0.0000000  0.6508444  3
    536    535    547    888     1  0.0000000  1.0460000  1
    536    535    547    888     1  0.0000000  0.0000000  3
    536    535    547    548     1  0.0000000  0.6508444  3
    536    535    547    549     1  0.0000000  0.6508444  3
    537    535    547    888     1  0.0000000  1.0460000  1
    537    535    547    888     1  0.0000000  0.0000000  3
    537    535    547    548     1  0.0000000  0.6508444  3
    537    535    547    549     1  0.0000000  0.6508444  3
    539    538    544    874     1  0.0000000  1.0460000  1
    539    538    544    874     1  0.0000000  0.0000000  3
    539    538    544    545     1  0.0000000  0.6508444  3
    539    538    544    546     1  0.0000000  0.6508444  3
    540    538    544    874     1  0.0000000  1.0460000  1
    540    538    544    874     1  0.0000000  0.0000000  3
    540    538    544    545     1  0.0000000  0.6508444  3
    540    538    544    546     1  0.0000000  0.6508444  3
    544    874    868    869     1  0.0000000  1.6038667  3
    544    874    868    870     1  0.0000000  1.6038667  3
    545    544    874    868     1  0.0000000  1.6038667  3
    546    544    874    868     1  0.0000000  1.6038667  3
    547    888    882    883     1  0.0000000  1.6038667  3
    547    888    882    884     1  0.0000000  1.6038667  3
    548    547    888    882     1  0.0000000  1.6038667  3
    549    547    888    882     1  0.0000000  1.6038667  3
    551    552    564    565     1  0.0000000  0.6508444  3
    551    552    564    566     1  0.0000000  0.6508444  3
    551    555    567    568     1  0.0000000  0.6508444  3
    551    555    567    569     1  0.0000000  0.6508444  3
    551    558    561    562     1  0.0000000  0.6508444  3
    551    558    561    563     1  0.0000000  0.6508444  3
    552    551    555    556     1  0.0000000  1.2552000  3
    552    551    555    557     1  0.0000000  1.2552000  3
    552    551    558    559     1  0.0000000  1.2552000  3
    552    551    558    560     1  0.0000000  1.2552000  3
    552    564    576    577     1  0.0000000  0.6508444  3
    552    564    576    578     1  0.0000000  0.6508444  3
    553    552    551    555     1  0.0000000  1.2552000  3
    553    552    551    558     1  0.0000000  1.2552000  3
    553    552    564    576     1  0.0000000  0.6508444  3
    553    552    564    565     1  0.0000000  0.6508444  3
    553    552    564    566     1  0.0000000  0.6508444  3
    554    552    551    555     1  0.0000000  1.2552000  3
    554    552    551    558     1  0.0000000  1.2552000  3
    554    552    564    576     1  0.0000000  0.6508444  3
    554    552    564    565     1  0.0000000  0.6508444  3
    554    552    564    566     1  0.0000000  0.6508444  3
    555    551    558    559     1  0.0000000  1.2552000  3
    555    551    558    560     1  0.0000000  1.2552000  3
    555    567    573    574     1  0.0000000  0.6508444  3
    555    567    573    575     1  0.0000000  0.6508444  3
    556    555    551    558     1  0.0000000  1.2552000  3
    556    555    567    573     1  0.0000000  0.6508444  3
    556    555    567    568     1  0.0000000  0.6508444  3
    556    555    567    569     1  0.0000000  0.6508444  3
    557    555    551    558     1  0.0000000  1.2552000  3
    557    555    567    573     1  0.0000000  0.6508444  3
    557    555    567    568     1  0.0000000  0.6508444  3
    557    555    567    569     1  0.0000000  0.6508444  3
    558    561    570    571     1  0.0000000  0.6508444  3
    558    561    570    572     1  0.0000000  0.6508444  3
    559    558    561    570     1  0.0000000  0.6508444  3
    559    558    561    562     1  0.0000000  0.6508444  3
    559    558    561    563     1  0.0000000  0.6508444  3
    560    558    561    570     1  0.0000000  0.6508444  3
    560    558    561    562     1  0.0000000  0.6508444  3
    560    558    561    563     1  0.0000000  0.6508444  3
    562    561    570    579     1  0.0000000  1.0460000  1
    562    561    570    579     1  0.0000000  0.0000000  3
    562    561    570    571     1  0.0000000  0.6508444  3
    562    561    570    572     1  0.0000000  0.6508444  3
    563    561    570    579     1  0.0000000  1.0460000  1
    563    561    570    579     1  0.0000000  0.0000000  3
    563    561    570    571     1  0.0000000  0.6508444  3
    563    561    570    572     1  0.0000000  0.6508444  3
    565    564    576    916     1  0.0000000  1.0460000  1
    565    564    576    916     1  0.0000000  0.0000000  3
    565    564    576    577     1  0.0000000  0.6508444  3
    565    564    576    578     1  0.0000000  0.6508444  3
    566    564    576    916     1  0.0000000  1.0460000  1
    566    564    576    916     1  0.0000000  0.0000000  3
    566    564    576    577     1  0.0000000  0.6508444  3
    566    564    576    578     1  0.0000000  0.6508444  3
    568    567    573    902     1  0.0000000  1.0460000  1
    568    567    573    902     1  0.0000000  0.0000000  3
    568    567    573    574     1  0.0000000  0.6508444  3
    568    567    573    575     1  0.0000000  0.6508444  3
    569    567    573    902     1  0.0000000  1.0460000  1
    569    567    573    902     1  0.0000000  0.0000000  3
    569    567    573    574     1  0.0000000  0.6508444  3
    569    567    573    575     1  0.0000000  0.6508444  3
    573    902    896    897     1  0.0000000  1.6038667  3
    573    902    896    898     1  0.0000000  1.6038667  3
    574    573    902    896     1  0.0000000  1.6038667  3
    575    573    902    896     1  0.0000000  1.6038667  3
    576    916    910    911     1  0.0000000  1.6038667  3
    576    916    910    912     1  0.0000000  1.6038667  3
    577    576    916    910     1  0.0000000  1.6038667  3
    578    576    916    910     1  0.0000000  1.6038667  3
    580    581    593    594     1  0.0000000  0.6508444  3
    580    581    593    595     1  0.0000000  0.6508444  3
    580    584    596    597     1  0.0000000  0.6508444  3
    580    584    596    598     1  0.0000000  0.6508444  3
    580    587    590    591     1  0.0000000  0.6508444  3
    580    587    590    592     1  0.0000000  0.6508444  3
    581    580    584    585     1  0.0000000  1.2552000  3
    581    580    584    586     1  0.0000000  1.2552000  3
    581    580    587    588     1  0.0000000  1.2552000  3
    581    580    587    589     1  0.0000000  1.2552000  3
    581    593    605    606     1  0.0000000  0.6508444  3
    581    593    605    607     1  0.0000000  0.6508444  3
    582    581    580    584     1  0.0000000  1.2552000  3
    582    581    580    587     1  0.0000000  1.2552000  3
    582    581    593    605     1  0.0000000  0.6508444  3
    582    581    593    594     1  0.0000000  0.6508444  3
    582    581    593    595     1  0.0000000  0.6508444  3
    583    581    580    584     1  0.0000000  1.2552000  3
    583    581    580    587     1  0.0000000  1.2552000  3
    583    581    593    605     1  0.0000000  0.6508444  3
    583    581    593    594     1  0.0000000  0.6508444  3
    583    581    593    595     1  0.0000000  0.6508444  3
    584    580    587    588     1  0.0000000  1.2552000  3
    584    580    587    589     1  0.0000000  1.2552000  3
    584    596    602    603     1  0.0000000  0.6508444  3
    584    596    602    604     1  0.0000000  0.6508444  3
    585    584    580    587     1  0.0000000  1.2552000  3
    585    584    596    602     1  0.0000000  0.6508444  3
    585    584    596    597     1  0.0000000  0.6508444  3
    585    584    596    598     1  0.0000000  0.6508444  3
    586    584    580    587     1  0.0000000  1.2552000  3
    586    584    596    602     1  0.0000000  0.6508444  3
    586    584    596    597     1  0.0000000  0.6508444  3
    586    584    596    598     1  0.0000000  0.6508444  3
    587    590    599    600     1  0.0000000  0.6508444  3
    587    590    599    601     1  0.0000000  0.6508444  3
    588    587    590    599     1  0.0000000  0.6508444  3
    588    587    590    591     1  0.0000000  0.6508444  3
    588    587    590    592     1  0.0000000  0.6508444  3
    589    587    590    599     1  0.0000000  0.6508444  3
    589    587    590    591     1  0.0000000  0.6508444  3
    589    587    590    592     1  0.0000000  0.6508444  3
    591    590    599    608     1  0.0000000  1.0460000  1
    591    590    599    608     1  0.0000000  0.0000000  3
    591    590    599    600     1  0.0000000  0.6508444  3
    591    590    599    601     1  0.0000000  0.6508444  3
    592    590    599    608     1  0.0000000  1.0460000  1
    592    590    599    608     1  0.0000000  0.0000000  3
    592    590    599    600     1  0.0000000  0.6508444  3
    592    590    599    601     1  0.0000000  0.6508444  3
    594    593    605    944     1  0.0000000  1.0460000  1
    594    593    605    944     1  0.0000000  0.0000000  3
    594    593    605    606     1  0.0000000  0.6508444  3
    594    593    605    607     1  0.0000000  0.6508444  3
    595    593    605    944     1  0.0000000  1.0460000  1
    595    593    605    944     1  0.0000000  0.0000000  3
    595    593    605    606     1  0.0000000  0.6508444  3
    595    593    605    607     1  0.0000000  0.6508444  3
    597    596    602    930     1  0.0000000  1.0460000  1
    597    596    602    930     1  0.0000000  0.0000000  3
    597    596    602    603     1  0.0000000  0.6508444  3
    597    596    602    604     1  0.0000000  0.6508444  3
    598    596    602    930     1  0.0000000  1.0460000  1
    598    596    602    930     1  0.0000000  0.0000000  3
    598    596    602    603     1  0.0000000  0.6508444  3
    598    596    602    604     1  0.0000000  0.6508444  3
    602    930    924    925     1  0.0000000  1.6038667  3
    602    930    924    926     1  0.0000000  1.6038667  3
    603    602    930    924     1  0.0000000  1.6038667  3
    604    602    930    924     1  0.0000000  1.6038667  3
    605    944    938    939     1  0.0000000  1.6038667  3
    605    944    938    940     1  0.0000000  1.6038667  3
    606    605    944    938     1  0.0000000  1.6038667  3
    607    605    944    938     1  0.0000000  1.6038667  3
    609    610    622    623     1  0.0000000  0.6508444  3
    609    610    622    624     1  0.0000000  0.6508444  3
    609    613    625    626     1  0.0000000  0.6508444  3
    609    613    625    627     1  0.0000000  0.6508444  3
    609    616    619    620     1  0.0000000  0.6508444  3
    609    616    619    621     1  0.0000000  0.6508444  3
    610    609    613    614     1  0.0000000  1.2552000  3
    610    609    613    615     1  0.0000000  1.2552000  3
    610    609    616    617     1  0.0000000  1.2552000  3
    610    609    616    618     1  0.0000000  1.2552000  3
    610    622    634    635     1  0.0000000  0.6508444  3
    610    622    634    636     1  0.0000000  0.6508444  3
    611    610    609    613     1  0.0000000  1.2552000  3
    611    610    609    616     1  0.0000000  1.2552000  3
    611    610    622    634     1  0.0000000  0.6508444  3
    611    610    622    623     1  0.0000000  0.6508444  3
    611    610    622    624     1  0.0000000  0.6508444  3
    612    610    609    613     1  0.0000000  1.2552000  3
    612    610    609    616     1  0.0000000  1.2552000  3
    612    610    622    634     1  0.0000000  0.6508444  3
    612    610    622    623     1  0.0000000  0.6508444  3
    612    610    622    624     1  0.0000000  0.6508444  3
    613    609    616    617     1  0.0000000  1.2552000  3
    613    609    616    618     1  0.0000000  1.2552000  3
    613    625    631    632     1  0.0000000  0.6508444  3
    613    625    631    633     1  0.0000000  0.6508444  3
    614    613    609    616     1  0.0000000  1.2552000  3
    614    613    625    631     1  0.0000000  0.6508444  3
    614    613    625    626     1  0.0000000  0.6508444  3
    614    613    625    627     1  0.0000000  0.6508444  3
    615    613    609    616     1  0.0000000  1.2552000  3
    615    613    625    631     1  0.0000000  0.6508444  3
    615    613    625    626     1  0.0000000  0.6508444  3
    615    613    625    627     1  0.0000000  0.6508444  3
    616    619    628    629     1  0.0000000  0.6508444  3
    616    619    628    630     1  0.0000000  0.6508444  3
    617    616    619    628     1  0.0000000  0.6508444  3
    617    616    619    620     1  0.0000000  0.6508444  3
    617    616    619    621     1  0.0000000  0.6508444  3
    618    616    619    628     1  0.0000000  0.6508444  3
    618    616    619    620     1  0.0000000  0.6508444  3
    618    616    619    621     1  0.0000000  0.6508444  3
    620    619    628    637     1  0.0000000  1.0460000  1
    620    619    628    637     1  0.0000000  0.0000000  3
    620    619    628    629     1  0.0000000  0.6508444  3
    620    619    628    630     1  0.0000000  0.6508444  3
    621    619    628    637     1  0.0000000  1.0460000  1
    621    619    628    637     1  0.0000000  0.0000000  3
    621    619    628    629     1  0.0000000  0.6508444  3
    621    619    628    630     1  0.0000000  0.6508444  3
    623    622    634    972     1  0.0000000  1.0460000  1
    623    622    634    972     1  0.0000000  0.0000000  3
    623    622    634    635     1  0.0000000  0.6508444  3
    623    622    634    636     1  0.0000000  0.6508444  3
    624    622    634    972     1  0.0000000  1.0460000  1
    624    622    634    972     1  0.0000000  0.0000000  3
    624    622    634    635     1  0.0000000  0.6508444  3
    624    622    634    636     1  0.0000000  0.6508444  3
    626    625    631    958     1  0.0000000  1.0460000  1
    626    625    631    958     1  0.0000000  0.0000000  3
    626    625    631    632     1  0.0000000  0.6508444  3
    626    625    631    633     1  0.0000000  0.6508444  3
    627    625    631    958     1  0.0000000  1.0460000  1
    627    625    631    958     1  0.0000000  0.0000000  3
    627    625    631    632     1  0.0000000  0.6508444  3
    627    625    631    633     1  0.0000000  0.6508444  3
    631    958    952    953     1  0.0000000  1.6038667  3
    631    958    952    954     1  0.0000000  1.6038667  3
    632    631    958    952     1  0.0000000  1.6038667  3
    633    631    958    952     1  0.0000000  1.6038667  3
    634    972    966    967     1  0.0000000  1.6038667  3
    634    972    966    968     1  0.0000000  1.6038667  3
    635    634    972    966     1  0.0000000  1.6038667  3
    636    634    972    966     1  0.0000000  1.6038667  3
    638    641    644    645     1  0.0000000  0.6508444  3
    638    641    644    646     1  0.0000000  0.6508444  3
    639    638    641    644     1  0.0000000  0.6508444  3
    639    638    641    642     1  0.0000000  0.6508444  3
    639    638    641    643     1  0.0000000  0.6508444  3
    639    638    647    648     1  0.0000000  0.6508444  3
    639    638    647    649     1  0.0000000  0.6508444  3
    639    638    647    651     1  0.0000000  0.6508444  3
    640    638    641    644     1  0.0000000  0.6508444  3
    640    638    641    642     1  0.0000000  0.6508444  3
    640    638    641    643     1  0.0000000  0.6508444  3
    640    638    647    648     1  0.0000000  0.6508444  3
    640    638    647    649     1  0.0000000  0.6508444  3
    640    638    647    651     1  0.0000000  0.6508444  3
    641    638    647    648     1  0.0000000  0.6508444  3
    641    638    647    649     1  0.0000000  0.6508444  3
    641    638    647    651     1  0.0000000  0.6508444  3
    642    641    638    647     1  0.0000000  0.6508444  3
    642    641    644    650     1  0.0000000  1.0460000  1
    642    641    644    650     1  0.0000000  0.0000000  3
    642    641    644    645     1  0.0000000  0.6508444  3
    642    641    644    646     1  0.0000000  0.6508444  3
    643    641    638    647     1  0.0000000  0.6508444  3
    643    641    644    650     1  0.0000000  1.0460000  1
    643    641    644    650     1  0.0000000  0.0000000  3
    643    641    644    645     1  0.0000000  0.6508444  3
    643    641    644    646     1  0.0000000  0.6508444  3
    652    655    658    659     1  0.0000000  0.6508444  3
    652    655    658    660     1  0.0000000  0.6508444  3
    653    652    655    658     1  0.0000000  0.6508444  3
    653    652    655    656     1  0.0000000  0.6508444  3
    653    652    655    657     1  0.0000000  0.6508444  3
    653    652    661    662     1  0.0000000  0.6508444  3
    653    652    661    663     1  0.0000000  0.6508444  3
    653    652    661    665     1  0.0000000  0.6508444  3
    654    652    655    658     1  0.0000000  0.6508444  3
    654    652    655    656     1  0.0000000  0.6508444  3
    654    652    655    657     1  0.0000000  0.6508444  3
    654    652    661    662     1  0.0000000  0.6508444  3
    654    652    661    663     1  0.0000000  0.6508444  3
    654    652    661    665     1  0.0000000  0.6508444  3
    655    652    661    662     1  0.0000000  0.6508444  3
    655    652    661    663     1  0.0000000  0.6508444  3
    655    652    661    665     1  0.0000000  0.6508444  3
    656    655    658    664     1  0.0000000  1.0460000  1
    656    655    658    664     1  0.0000000  0.0000000  3
    656    655    658    659     1  0.0000000  0.6508444  3
    656    655    658    660     1  0.0000000  0.6508444  3
    656    655    652    661     1  0.0000000  0.6508444  3
    657    655    658    664     1  0.0000000  1.0460000  1
    657    655    658    664     1  0.0000000  0.0000000  3
    657    655    658    659     1  0.0000000  0.6508444  3
    657    655    658    660     1  0.0000000  0.6508444  3
    657    655    652    661     1  0.0000000  0.6508444  3
    666    669    672    673     1  0.0000000  0.6508444  3
    666    669    672    674     1  0.0000000  0.6508444  3
    667    666    669    672     1  0.0000000  0.6508444  3
    667    666    669    670     1  0.0000000  0.6508444  3
    667    666    669    671     1  0.0000000  0.6508444  3
    667    666    675    676     1  0.0000000  0.6508444  3
    667    666    675    677     1  0.0000000  0.6508444  3
    667    666    675    679     1  0.0000000  0.6508444  3
    668    666    669    672     1  0.0000000  0.6508444  3
    668    666    669    670     1  0.0000000  0.6508444  3
    668    666    669    671     1  0.0000000  0.6508444  3
    668    666    675    676     1  0.0000000  0.6508444  3
    668    666    675    677     1  0.0000000  0.6508444  3
    668    666    675    679     1  0.0000000  0.6508444  3
    669    666    675    676     1  0.0000000  0.6508444  3
    669    666    675    677     1  0.0000000  0.6508444  3
    669    666    675    679     1  0.0000000  0.6508444  3
    670    669    666    675     1  0.0000000  0.6508444  3
    670    669    672    678     1  0.0000000  1.0460000  1
    670    669    672    678     1  0.0000000  0.0000000  3
    670    669    672    673     1  0.0000000  0.6508444  3
    670    669    672    674     1  0.0000000  0.6508444  3
    671    669    666    675     1  0.0000000  0.6508444  3
    671    669    672    678     1  0.0000000  1.0460000  1
    671    669    672    678     1  0.0000000  0.0000000  3
    671    669    672    673     1  0.0000000  0.6508444  3
    671    669    672    674     1  0.0000000  0.6508444  3
    680    683    686    687     1  0.0000000  0.6508444  3
    680    683    686    688     1  0.0000000  0.6508444  3
    681    680    683    686     1  0.0000000  0.6508444  3
    681    680    683    684     1  0.0000000  0.6508444  3
    681    680    683    685     1  0.0000000  0.6508444  3
    681    680    689    690     1  0.0000000  0.6508444  3
    681    680    689    691     1  0.0000000  0.6508444  3
    681    680    689    693     1  0.0000000  0.6508444  3
    682    680    683    686     1  0.0000000  0.6508444  3
    682    680    683    684     1  0.0000000  0.6508444  3
    682    680    683    685     1  0.0000000  0.6508444  3
    682    680    689    690     1  0.0000000  0.6508444  3
    682    680    689    691     1  0.0000000  0.6508444  3
    682    680    689    693     1  0.0000000  0.6508444  3
    683    680    689    690     1  0.0000000  0.6508444  3
    683    680    689    691     1  0.0000000  0.6508444  3
    683    680    689    693     1  0.0000000  0.6508444  3
    684    683    686    692     1  0.0000000  1.0460000  1
    684    683    686    692     1  0.0000000  0.0000000  3
    684    683    686    687     1  0.0000000  0.6508444  3
    684    683    686    688     1  0.0000000  0.6508444  3
    684    683    680    689     1  0.0000000  0.6508444  3
    685    683    686    692     1  0.0000000  1.0460000  1
    685    683    686    692     1  0.0000000  0.0000000  3
    685    683    686    687     1  0.0000000  0.6508444  3
    685    683    686    688     1  0.0000000  0.6508444  3
    685    683    680    689     1  0.0000000  0.6508444  3
    694    697    700    701     1  0.0000000  0.6508444  3
    694    697    700    702     1  0.0000000  0.6508444  3
    695    694    697    700     1  0.0000000  0.6508444  3
    695    694    697    698     1  0.0000000  0.6508444  3
    695    694    697    699     1  0.0000000  0.6508444  3
    695    694    703    704     1  0.0000000  0.6508444  3
    695    694    703    705     1  0.0000000  0.6508444  3
    695    694    703    707     1  0.0000000  0.6508444  3
    696    694    697    700     1  0.0000000  0.6508444  3
    696    694    697    698     1  0.0000000  0.6508444  3
    696    694    697    699     1  0.0000000  0.6508444  3
    696    694    703    704     1  0.0000000  0.6508444  3
    696    694    703    705     1  0.0000000  0.6508444  3
    696    694    703    707     1  0.0000000  0.6508444  3
    697    694    703    704     1  0.0000000  0.6508444  3
    697    694    703    705     1  0.0000000  0.6508444  3
    697    694    703    707     1  0.0000000  0.6508444  3
    698    697    694    703     1  0.0000000  0.6508444  3
    698    697    700    706     1  0.0000000  1.0460000  1
    698    697    700    706     1  0.0000000  0.0000000  3
    698    697    700    701     1  0.0000000  0.6508444  3
    698    697    700    702     1  0.0000000  0.6508444  3
    699    697    694    703     1  0.0000000  0.6508444  3
    699    697    700    706     1  0.0000000  1.0460000  1
    699    697    700    706     1  0.0000000  0.0000000  3
    699    697    700    701     1  0.0000000  0.6508444  3
    699    697    700    702     1  0.0000000  0.6508444  3
    708    711    714    715     1  0.0000000  0.6508444  3
    708    711    714    716     1  0.0000000  0.6508444  3
    709    708    711    714     1  0.0000000  0.6508444  3
    709    708    711    712     1  0.0000000  0.6508444  3
    709    708    711    713     1  0.0000000  0.6508444  3
    709    708    717    718     1  0.0000000  0.6508444  3
    709    708    717    719     1  0.0000000  0.6508444  3
    709    708    717    721     1  0.0000000  0.6508444  3
    710    708    711    714     1  0.0000000  0.6508444  3
    710    708    711    712     1  0.0000000  0.6508444  3
    710    708    711    713     1  0.0000000  0.6508444  3
    710    708    717    718     1  0.0000000  0.6508444  3
    710    708    717    719     1  0.0000000  0.6508444  3
    710    708    717    721     1  0.0000000  0.6508444  3
    711    708    717    718     1  0.0000000  0.6508444  3
    711    708    717    719     1  0.0000000  0.6508444  3
    711    708    717    721     1  0.0000000  0.6508444  3
    712    711    714    720     1  0.0000000  1.0460000  1
    712    711    714    720     1  0.0000000  0.0000000  3
    712    711    714    715     1  0.0000000  0.6508444  3
    712    711    714    716     1  0.0000000  0.6508444  3
    712    711    708    717     1  0.0000000  0.6508444  3
    713    711    714    720     1  0.0000000  1.0460000  1
    713    711    714    720     1  0.0000000  0.0000000  3
    713    711    714    715     1  0.0000000  0.6508444  3
    713    711    714    716     1  0.0000000  0.6508444  3
    713    711    708    717     1  0.0000000  0.6508444  3
    722    725    728    729     1  0.0000000  0.6508444  3
    722    725    728    730     1  0.0000000  0.6508444  3
    723    722    725    728     1  0.0000000  0.6508444  3
    723    722    725    726     1  0.0000000  0.6508444  3
    723    722    725    727     1  0.0000000  0.6508444  3
    723    722    731    732     1  0.0000000  0.6508444  3
    723    722    731    733     1  0.0000000  0.6508444  3
    723    722    731    735     1  0.0000000  0.6508444  3
    724    722    725    728     1  0.0000000  0.6508444  3
    724    722    725    726     1  0.0000000  0.6508444  3
    724    722    725    727     1  0.0000000  0.6508444  3
    724    722    731    732     1  0.0000000  0.6508444  3
    724    722    731    733     1  0.0000000  0.6508444  3
    724    722    731    735     1  0.0000000  0.6508444  3
    725    722    731    732     1  0.0000000  0.6508444  3
    725    722    731    733     1  0.0000000  0.6508444  3
    725    722    731    735     1  0.0000000  0.6508444  3
    726    725    722    731     1  0.0000000  0.6508444  3
    726    725    728    734     1  0.0000000  1.0460000  1
    726    725    728    734     1  0.0000000  0.0000000  3
    726    725    728    729     1  0.0000000  0.6508444  3
    726    725    728    730     1  0.0000000  0.6508444  3
    727    725    722    731     1  0.0000000  0.6508444  3
    727    725    728    734     1  0.0000000  1.0460000  1
    727    725    728    734     1  0.0000000  0.0000000  3
    727    725    728    729     1  0.0000000  0.6508444  3
    727    725    728    730     1  0.0000000  0.6508444  3
    736    739    742    743     1  0.0000000  0.6508444  3
    736    739    742    744     1  0.0000000  0.6508444  3
    737    736    739    742     1  0.0000000  0.6508444  3
    737    736    739    740     1  0.0000000  0.6508444  3
    737    736    739    741     1  0.0000000  0.6508444  3
    737    736    745    746     1  0.0000000  0.6508444  3
    737    736    745    747     1  0.0000000  0.6508444  3
    737    736    745    749     1  0.0000000  0.6508444  3
    738    736    739    742     1  0.0000000  0.6508444  3
    738    736    739    740     1  0.0000000  0.6508444  3
    738    736    739    741     1  0.0000000  0.6508444  3
    738    736    745    746     1  0.0000000  0.6508444  3
    738    736    745    747     1  0.0000000  0.6508444  3
    738    736    745    749     1  0.0000000  0.6508444  3
    739    736    745    746     1  0.0000000  0.6508444  3
    739    736    745    747     1  0.0000000  0.6508444  3
    739    736    745    749     1  0.0000000  0.6508444  3
    740    739    742    748     1  0.0000000  1.0460000  1
    740    739    742    748     1  0.0000000  0.0000000  3
    740    739    742    743     1  0.0000000  0.6508444  3
    740    739    742    744     1  0.0000000  0.6508444  3
    740    739    736    745     1  0.0000000  0.6508444  3
    741    739    742    748     1  0.0000000  1.0460000  1
    741    739    742    748     1  0.0000000  0.0000000  3
    741    739    742    743     1  0.0000000  0.6508444  3
    741    739    742    744     1  0.0000000  0.6508444  3
    741    739    736    745     1  0.0000000  0.6508444  3
    750    753    756    757     1  0.0000000  0.6508444  3
    750    753    756    758     1  0.0000000  0.6508444  3
    751    750    753    756     1  0.0000000  0.6508444  3
    751    750    753    754     1  0.0000000  0.6508444  3
    751    750    753    755     1  0.0000000  0.6508444  3
    751    750    759    760     1  0.0000000  0.6508444  3
    751    750    759    761     1  0.0000000  0.6508444  3
    751    750    759    763     1  0.0000000  0.6508444  3
    752    750    753    756     1  0.0000000  0.6508444  3
    752    750    753    754     1  0.0000000  0.6508444  3
    752    750    753    755     1  0.0000000  0.6508444  3
    752    750    759    760     1  0.0000000  0.6508444  3
    752    750    759    761     1  0.0000000  0.6508444  3
    752    750    759    763     1  0.0000000  0.6508444  3
    753    750    759    760     1  0.0000000  0.6508444  3
    753    750    759    761     1  0.0000000  0.6508444  3
    753    750    759    763     1  0.0000000  0.6508444  3
    754    753    750    759     1  0.0000000  0.6508444  3
    754    753    756    762     1  0.0000000  1.0460000  1
    754    753    756    762     1  0.0000000  0.0000000  3
    754    753    756    757     1  0.0000000  0.6508444  3
    754    753    756    758     1  0.0000000  0.6508444  3
    755    753    750    759     1  0.0000000  0.6508444  3
    755    753    756    762     1  0.0000000  1.0460000  1
    755    753    756    762     1  0.0000000  0.0000000  3
    755    753    756    757     1  0.0000000  0.6508444  3
    755    753    756    758     1  0.0000000  0.6508444  3
    764    767    770    771     1  0.0000000  0.6508444  3
    764    767    770    772     1  0.0000000  0.6508444  3
    765    764    767    770     1  0.0000000  0.6508444  3
    765    764    767    768     1  0.0000000  0.6508444  3
    765    764    767    769     1  0.0000000  0.6508444  3
    765    764    773    774     1  0.0000000  0.6508444  3
    765    764    773    775     1  0.0000000  0.6508444  3
    765    764    773    777     1  0.0000000  0.6508444  3
    766    764    767    770     1  0.0000000  0.6508444  3
    766    764    767    768     1  0.0000000  0.6508444  3
    766    764    767    769     1  0.0000000  0.6508444  3
    766    764    773    774     1  0.0000000  0.6508444  3
    766    764    773    775     1  0.0000000  0.6508444  3
    766    764    773    777     1  0.0000000  0.6508444  3
    767    764    773    774     1  0.0000000  0.6508444  3
    767    764    773    775     1  0.0000000  0.6508444  3
    767    764    773    777     1  0.0000000  0.6508444  3
    768    767    770    776     1  0.0000000  1.0460000  1
    768    767    770    776     1  0.0000000  0.0000000  3
    768    767    770    771     1  0.0000000  0.6508444  3
    768    767    770    772     1  0.0000000  0.6508444  3
    768    767    764    773     1  0.0000000  0.6508444  3
    769    767    770    776     1  0.0000000  1.0460000  1
    769    767    770    776     1  0.0000000  0.0000000  3
    769    767    770    771     1  0.0000000  0.6508444  3
    769    767    770    772     1  0.0000000  0.6508444  3
    769    767    764    773     1  0.0000000  0.6508444  3
    778    781    784    785     1  0.0000000  0.6508444  3
    778    781    784    786     1  0.0000000  0.6508444  3
    779    778    781    784     1  0.0000000  0.6508444  3
    779    778    781    782     1  0.0000000  0.6508444  3
    779    778    781    783     1  0.0000000  0.6508444  3
    779    778    787    788     1  0.0000000  0.6508444  3
    779    778    787    789     1  0.0000000  0.6508444  3
    779    778    787    791     1  0.0000000  0.6508444  3
    780    778    781    784     1  0.0000000  0.6508444  3
    780    778    781    782     1  0.0000000  0.6508444  3
    780    778    781    783     1  0.0000000  0.6508444  3
    780    778    787    788     1  0.0000000  0.6508444  3
    780    778    787    789     1  0.0000000  0.6508444  3
    780    778    787    791     1  0.0000000  0.6508444  3
    781    778    787    788     1  0.0000000  0.6508444  3
    781    778    787    789     1  0.0000000  0.6508444  3
    781    778    787    791     1  0.0000000  0.6508444  3
    782    781    778    787     1  0.0000000  0.6508444  3
    782    781    784    790     1  0.0000000  1.0460000  1
    782    781    784    790     1  0.0000000  0.0000000  3
    782    781    784    785     1  0.0000000  0.6508444  3
    782    781    784    786     1  0.0000000  0.6508444  3
    783    781    778    787     1  0.0000000  0.6508444  3
    783    781    784    790     1  0.0000000  1.0460000  1
    783    781    784    790     1  0.0000000  0.0000000  3
    783    781    784    785     1  0.0000000  0.6508444  3
    783    781    784    786     1  0.0000000  0.6508444  3
    792    795    798    799     1  0.0000000  0.6508444  3
    792    795    798    800     1  0.0000000  0.6508444  3
    793    792    795    798     1  0.0000000  0.6508444  3
    793    792    795    796     1  0.0000000  0.6508444  3
    793    792    795    797     1  0.0000000  0.6508444  3
    793    792    801    802     1  0.0000000  0.6508444  3
    793    792    801    803     1  0.0000000  0.6508444  3
    793    792    801    805     1  0.0000000  0.6508444  3
    794    792    795    798     1  0.0000000  0.6508444  3
    794    792    795    796     1  0.0000000  0.6508444  3
    794    792    795    797     1  0.0000000  0.6508444  3
    794    792    801    802     1  0.0000000  0.6508444  3
    794    792    801    803     1  0.0000000  0.6508444  3
    794    792    801    805     1  0.0000000  0.6508444  3
    795    792    801    802     1  0.0000000  0.6508444  3
    795    792    801    803     1  0.0000000  0.6508444  3
    795    792    801    805     1  0.0000000  0.6508444  3
    796    795    798    804     1  0.0000000  1.0460000  1
    796    795    798    804     1  0.0000000  0.0000000  3
    796    795    798    799     1  0.0000000  0.6508444  3
    796    795    798    800     1  0.0000000  0.6508444  3
    796    795    792    801     1  0.0000000  0.6508444  3
    797    795    798    804     1  0.0000000  1.0460000  1
    797    795    798    804     1  0.0000000  0.0000000  3
    797    795    798    799     1  0.0000000  0.6508444  3
    797    795    798    800     1  0.0000000  0.6508444  3
    797    795    792    801     1  0.0000000  0.6508444  3
    806    809    812    813     1  0.0000000  0.6508444  3
    806    809    812    814     1  0.0000000  0.6508444  3
    807    806    809    812     1  0.0000000  0.6508444  3
    807    806    809    810     1  0.0000000  0.6508444  3
    807    806    809    811     1  0.0000000  0.6508444  3
    807    806    815    816     1  0.0000000  0.6508444  3
    807    806    815    817     1  0.0000000  0.6508444  3
    807    806    815    819     1  0.0000000  0.6508444  3
    808    806    809    812     1  0.0000000  0.6508444  3
    808    806    809    810     1  0.0000000  0.6508444  3
    808    806    809    811     1  0.0000000  0.6508444  3
    808    806    815    816     1  0.0000000  0.6508444  3
    808    806    815    817     1  0.0000000  0.6508444  3
    808    806    815    819     1  0.0000000  0.6508444  3
    809    806    815    816     1  0.0000000  0.6508444  3
    809    806    815    817     1  0.0000000  0.6508444  3
    809    806    815    819     1  0.0000000  0.6508444  3
    810    809    806    815     1  0.0000000  0.6508444  3
    810    809    812    818     1  0.0000000  1.0460000  1
    810    809    812    818     1  0.0000000  0.0000000  3
    810    809    812    813     1  0.0000000  0.6508444  3
    810    809    812    814     1  0.0000000  0.6508444  3
    811    809    806    815     1  0.0000000  0.6508444  3
    811    809    812    818     1  0.0000000  1.0460000  1
    811    809    812    818     1  0.0000000  0.0000000  3
    811    809    812    813     1  0.0000000  0.6508444  3
    811    809    812    814     1  0.0000000  0.6508444  3
    820    823    826    827     1  0.0000000  0.6508444  3
    820    823    826    828     1  0.0000000  0.6508444  3
    821    820    823    826     1  0.0000000  0.6508444  3
    821    820    823    824     1  0.0000000  0.6508444  3
    821    820    823    825     1  0.0000000  0.6508444  3
    821    820    829    830     1  0.0000000  0.6508444  3
    821    820    829    831     1  0.0000000  0.6508444  3
    821    820    829    833     1  0.0000000  0.6508444  3
    822    820    823    826     1  0.0000000  0.6508444  3
    822    820    823    824     1  0.0000000  0.6508444  3
    822    820    823    825     1  0.0000000  0.6508444  3
    822    820    829    830     1  0.0000000  0.6508444  3
    822    820    829    831     1  0.0000000  0.6508444  3
    822    820    829    833     1  0.0000000  0.6508444  3
    823    820    829    830     1  0.0000000  0.6508444  3
    823    820    829    831     1  0.0000000  0.6508444  3
    823    820    829    833     1  0.0000000  0.6508444  3
    824    823    826    832     1  0.0000000  1.0460000  1
    824    823    826    832     1  0.0000000  0.0000000  3
    824    823    826    827     1  0.0000000  0.6508444  3
    824    823    826    828     1  0.0000000  0.6508444  3
    824    823    820    829     1  0.0000000  0.6508444  3
    825    823    826    832     1  0.0000000  1.0460000  1
    825    823    826    832     1  0.0000000  0.0000000  3
    825    823    826    827     1  0.0000000  0.6508444  3
    825    823    826    828     1  0.0000000  0.6508444  3
    825    823    820    829     1  0.0000000  0.6508444  3
    834    837    840    841     1  0.0000000  0.6508444  3
    834    837    840    842     1  0.0000000  0.6508444  3
    835    834    837    840     1  0.0000000  0.6508444  3
    835    834    837    838     1  0.0000000  0.6508444  3
    835    834    837    839     1  0.0000000  0.6508444  3
    835    834    843    844     1  0.0000000  0.6508444  3
    835    834    843    845     1  0.0000000  0.6508444  3
    835    834    843    847     1  0.0000000  0.6508444  3
    836    834    837    840     1  0.0000000  0.6508444  3
    836    834    837    838     1  0.0000000  0.6508444  3
    836    834    837    839     1  0.0000000  0.6508444  3
    836    834    843    844     1  0.0000000  0.6508444  3
    836    834    843    845     1  0.0000000  0.6508444  3
    836    834    843    847     1  0.0000000  0.6508444  3
    837    834    843    844     1  0.0000000  0.6508444  3
    837    834    843    845     1  0.0000000  0.6508444  3
    837    834    843    847     1  0.0000000  0.6508444  3
    838    837    834    843     1  0.0000000  0.6508444  3
    838    837    840    846     1  0.0000000  1.0460000  1
    838    837    840    846     1  0.0000000  0.0000000  3
    838    837    840    841     1  0.0000000  0.6508444  3
    838    837    840    842     1  0.0000000  0.6508444  3
    839    837    834    843     1  0.0000000  0.6508444  3
    839    837    840    846     1  0.0000000  1.0460000  1
    839    837    840    846     1  0.0000000  0.0000000  3
    839    837    840    841     1  0.0000000  0.6508444  3
    839    837    840    842     1  0.0000000  0.6508444  3
    848    851    854    855     1  0.0000000  0.6508444  3
    848    851    854    856     1  0.0000000  0.6508444  3
    849    848    851    854     1  0.0000000  0.6508444  3
    849    848    851    852     1  0.0000000  0.6508444  3
    849    848    851    853     1  0.0000000  0.6508444  3
    849    848    857    858     1  0.0000000  0.6508444  3
    849    848    857    859     1  0.0000000  0.6508444  3
    849    848    857    861     1  0.0000000  0.6508444  3
    850    848    851    854     1  0.0000000  0.6508444  3
    850    848    851    852     1  0.0000000  0.6508444  3
    850    848    851    853     1  0.0000000  0.6508444  3
    850    848    857    858     1  0.0000000  0.6508444  3
    850    848    857    859     1  0.0000000  0.6508444  3
    850    848    857    861     1  0.0000000  0.6508444  3
    851    848    857    858     1  0.0000000  0.6508444  3
    851    848    857    859     1  0.0000000  0.6508444  3
    851    848    857    861     1  0.0000000  0.6508444  3
    852    851    854    860     1  0.0000000  1.0460000  1
    852    851    854    860     1  0.0000000  0.0000000  3
    852    851    854    855     1  0.0000000  0.6508444  3
    852    851    854    856     1  0.0000000  0.6508444  3
    852    851    848    857     1  0.0000000  0.6508444  3
    853    851    854    860     1  0.0000000  1.0460000  1
    853    851    854    860     1  0.0000000  0.0000000  3
    853    851    854    855     1  0.0000000  0.6508444  3
    853    851    854    856     1  0.0000000  0.6508444  3
    853    851    848    857     1  0.0000000  0.6508444  3
    862    865    868    869     1  0.0000000  0.6508444  3
    862    865    868    870     1  0.0000000  0.6508444  3
    863    862    865    868     1  0.0000000  0.6508444  3
    863    862    865    866     1  0.0000000  0.6508444  3
    863    862    865    867     1  0.0000000  0.6508444  3
    863    862    871    872     1  0.0000000  0.6508444  3
    863    862    871    873     1  0.0000000  0.6508444  3
    863    862    871    875     1  0.0000000  0.6508444  3
    864    862    865    868     1  0.0000000  0.6508444  3
    864    862    865    866     1  0.0000000  0.6508444  3
    864    862    865    867     1  0.0000000  0.6508444  3
    864    862    871    872     1  0.0000000  0.6508444  3
    864    862    871    873     1  0.0000000  0.6508444  3
    864    862    871    875     1  0.0000000  0.6508444  3
    865    862    871    872     1  0.0000000  0.6508444  3
    865    862    871    873     1  0.0000000  0.6508444  3
    865    862    871    875     1  0.0000000  0.6508444  3
    866    865    862    871     1  0.0000000  0.6508444  3
    866    865    868    874     1  0.0000000  1.0460000  1
    866    865    868    874     1  0.0000000  0.0000000  3
    866    865    868    869     1  0.0000000  0.6508444  3
    866    865    868    870     1  0.0000000  0.6508444  3
    867    865    862    871     1  0.0000000  0.6508444  3
    867    865    868    874     1  0.0000000  1.0460000  1
    867    865    868    874     1  0.0000000  0.0000000  3
    867    865    868    869     1  0.0000000  0.6508444  3
    867    865    868    870     1  0.0000000  0.6508444  3
    876    879    882    883     1  0.0000000  0.6508444  3
    876    879    882    884     1  0.0000000  0.6508444  3
    877    876    879    882     1  0.0000000  0.6508444  3
    877    876    879    880     1  0.0000000  0.6508444  3
    877    876    879    881     1  0.0000000  0.6508444  3
    877    876    885    886     1  0.0000000  0.6508444  3
    877    876    885    887     1  0.0000000  0.6508444  3
    877    876    885    889     1  0.0000000  0.6508444  3
    878    876    879    882     1  0.0000000  0.6508444  3
    878    876    879    880     1  0.0000000  0.6508444  3
    878    876    879    881     1  0.0000000  0.6508444  3
    878    876    885    886     1  0.0000000  0.6508444  3
    878    876    885    887     1  0.0000000  0.6508444  3
    878    876    885    889     1  0.0000000  0.6508444  3
    879    876    885    886     1  0.0000000  0.6508444  3
    879    876    885    887     1  0.0000000  0.6508444  3
    879    876    885    889     1  0.0000000  0.6508444  3
    880    879    882    888     1  0.0000000  1.0460000  1
    880    879    882    888     1  0.0000000  0.0000000  3
    880    879    882    883     1  0.0000000  0.6508444  3
    880    879    882    884     1  0.0000000  0.6508444  3
    880    879    876    885     1  0.0000000  0.6508444  3
    881    879    882    888     1  0.0000000  1.0460000  1
    881    879    882    888     1  0.0000000  0.0000000  3
    881    879    882    883     1  0.0000000  0.6508444  3
    881    879    882    884     1  0.0000000  0.6508444  3
    881    879    876    885     1  0.0000000  0.6508444  3
    890    893    896    897     1  0.0000000  0.6508444  3
    890    893    896    898     1  0.0000000  0.6508444  3
    891    890    893    896     1  0.0000000  0.6508444  3
    891    890    893    894     1  0.0000000  0.6508444  3
    891    890    893    895     1  0.0000000  0.6508444  3
    891    890    899    900     1  0.0000000  0.6508444  3
    891    890    899    901     1  0.0000000  0.6508444  3
    891    890    899    903     1  0.0000000  0.6508444  3
    892    890    893    896     1  0.0000000  0.6508444  3
    892    890    893    894     1  0.0000000  0.6508444  3
    892    890    893    895     1  0.0000000  0.6508444  3
    892    890    899    900     1  0.0000000  0.6508444  3
    892    890    899    901     1  0.0000000  0.6508444  3
    892    890    899    903     1  0.0000000  0.6508444  3
    893    890    899    900     1  0.0000000  0.6508444  3
    893    890    899    901     1  0.0000000  0.6508444  3
    893    890    899    903     1  0.0000000  0.6508444  3
    894    893    890    899     1  0.0000000  0.6508444  3
    894    893    896    902     1  0.0000000  1.0460000  1
    894    893    896    902     1  0.0000000  0.0000000  3
    894    893    896    897     1  0.0000000  0.6508444  3
    894    893    896    898     1  0.0000000  0.6508444  3
    895    893    890    899     1  0.0000000  0.6508444  3
    895    893    896    902     1  0.0000000  1.0460000  1
    895    893    896    902     1  0.0000000  0.0000000  3
    895    893    896    897     1  0.0000000  0.6508444  3
    895    893    896    898     1  0.0000000  0.6508444  3
    904    907    910    911     1  0.0000000  0.6508444  3
    904    907    910    912     1  0.0000000  0.6508444  3
    905    904    907    910     1  0.0000000  0.6508444  3
    905    904    907    908     1  0.0000000  0.6508444  3
    905    904    907    909     1  0.0000000  0.6508444  3
    905    904    913    914     1  0.0000000  0.6508444  3
    905    904    913    915     1  0.0000000  0.6508444  3
    905    904    913    917     1  0.0000000  0.6508444  3
    906    904    907    910     1  0.0000000  0.6508444  3
    906    904    907    908     1  0.0000000  0.6508444  3
    906    904    907    909     1  0.0000000  0.6508444  3
    906    904    913    914     1  0.0000000  0.6508444  3
    906    904    913    915     1  0.0000000  0.6508444  3
    906    904    913    917     1  0.0000000  0.6508444  3
    907    904    913    914     1  0.0000000  0.6508444  3
    907    904    913    915     1  0.0000000  0.6508444  3
    907    904    913    917     1  0.0000000  0.6508444  3
    908    907    910    916     1  0.0000000  1.0460000  1
    908    907    910    916     1  0.0000000  0.0000000  3
    908    907    910    911     1  0.0000000  0.6508444  3
    908    907    910    912     1  0.0000000  0.6508444  3
    908    907    904    913     1  0.0000000  0.6508444  3
    909    907    910    916     1  0.0000000  1.0460000  1
    909    907    910    916     1  0.0000000  0.0000000  3
    909    907    910    911     1  0.0000000  0.6508444  3
    909    907    910    912     1  0.0000000  0.6508444  3
    909    907    904    913     1  0.0000000  0.6508444  3
    918    921    924    925     1  0.0000000  0.6508444  3
    918    921    924    926     1  0.0000000  0.6508444  3
    919    918    921    924     1  0.0000000  0.6508444  3
    919    918    921    922     1  0.0000000  0.6508444  3
    919    918    921    923     1  0.0000000  0.6508444  3
    919    918    927    928     1  0.0000000  0.6508444  3
    919    918    927    929     1  0.0000000  0.6508444  3
    919    918    927    931     1  0.0000000  0.6508444  3
    920    918    921    924     1  0.0000000  0.6508444  3
    920    918    921    922     1  0.0000000  0.6508444  3
    920    918    921    923     1  0.0000000  0.6508444  3
    920    918    927    928     1  0.0000000  0.6508444  3
    920    918    927    929     1  0.0000000  0.6508444  3
    920    918    927    931     1  0.0000000  0.6508444  3
    921    918    927    928     1  0.0000000  0.6508444  3
    921    918    927    929     1  0.0000000  0.6508444  3
    921    918    927    931     1  0.0000000  0.6508444  3
    922    921    918    927     1  0.0000000  0.6508444  3
    922    921    924    930     1  0.0000000  1.0460000  1
    922    921    924    930     1  0.0000000  0.0000000  3
    922    921    924    925     1  0.0000000  0.6508444  3
    922    921    924    926     1  0.0000000  0.6508444  3
    923    921    918    927     1  0.0000000  0.6508444  3
    923    921    924    930     1  0.0000000  1.0460000  1
    923    921    924    930     1  0.0000000  0.0000000  3
    923    921    924    925     1  0.0000000  0.6508444  3
    923    921    924    926     1  0.0000000  0.6508444  3
    932    935    938    939     1  0.0000000  0.6508444  3
    932    935    938    940     1  0.0000000  0.6508444  3
    933    932    935    938     1  0.0000000  0.6508444  3
    933    932    935    936     1  0.0000000  0.6508444  3
    933    932    935    937     1  0.0000000  0.6508444  3
    933    932    941    942     1  0.0000000  0.6508444  3
    933    932    941    943     1  0.0000000  0.6508444  3
    933    932    941    945     1  0.0000000  0.6508444  3
    934    932    935    938     1  0.0000000  0.6508444  3
    934    932    935    936     1  0.0000000  0.6508444  3
    934    932    935    937     1  0.0000000  0.6508444  3
    934    932    941    942     1  0.0000000  0.6508444  3
    934    932    941    943     1  0.0000000  0.6508444  3
    934    932    941    945     1  0.0000000  0.6508444  3
    935    932    941    942     1  0.0000000  0.6508444  3
    935    932    941    943     1  0.0000000  0.6508444  3
    935    932    941    945     1  0.0000000  0.6508444  3
    936    935    938    944     1  0.0000000  1.0460000  1
    936    935    938    944     1  0.0000000  0.0000000  3
    936    935    938    939     1  0.0000000  0.6508444  3
    936    935    938    940     1  0.0000000  0.6508444  3
    936    935    932    941     1  0.0000000  0.6508444  3
    937    935    938    944     1  0.0000000  1.0460000  1
    937    935    938    944     1  0.0000000  0.0000000  3
    937    935    938    939     1  0.0000000  0.6508444  3
    937    935    938    940     1  0.0000000  0.6508444  3
    937    935    932    941     1  0.0000000  0.6508444  3
    946    949    952    953     1  0.0000000  0.6508444  3
    946    949    952    954     1  0.0000000  0.6508444  3
    947    946    949    952     1  0.0000000  0.6508444  3
    947    946    949    950     1  0.0000000  0.6508444  3
    947    946    949    951     1  0.0000000  0.6508444  3
    947    946    955    956     1  0.0000000  0.6508444  3
    947    946    955    957     1  0.0000000  0.6508444  3
    947    946    955    959     1  0.0000000  0.6508444  3
    948    946    949    952     1  0.0000000  0.6508444  3
    948    946    949    950     1  0.0000000  0.6508444  3
    948    946    949    951     1  0.0000000  0.6508444  3
    948    946    955    956     1  0.0000000  0.6508444  3
    948    946    955    957     1  0.0000000  0.6508444  3
    948    946    955    959     1  0.0000000  0.6508444  3
    949    946    955    956     1  0.0000000  0.6508444  3
    949    946    955    957     1  0.0000000  0.6508444  3
    949    946    955    959     1  0.0000000  0.6508444  3
    950    949    946    955     1  0.0000000  0.6508444  3
    950    949    952    958     1  0.0000000  1.0460000  1
    950    949    952    958     1  0.0000000  0.0000000  3
    950    949    952    953     1  0.0000000  0.6508444  3
    950    949    952    954     1  0.0000000  0.6508444  3
    951    949    946    955     1  0.0000000  0.6508444  3
    951    949    952    958     1  0.0000000  1.0460000  1
    951    949    952    958     1  0.0000000  0.0000000  3
    951    949    952    953     1  0.0000000  0.6508444  3
    951    949    952    954     1  0.0000000  0.6508444  3
    960    963    966    967     1  0.0000000  0.6508444  3
    960    963    966    968     1  0.0000000  0.6508444  3
    961    960    963    966     1  0.0000000  0.6508444  3
    961    960    963    964     1  0.0000000  0.6508444  3
    961    960    963    965     1  0.0000000  0.6508444  3
    961    960    969    970     1  0.0000000  0.6508444  3
    961    960    969    971     1  0.0000000  0.6508444  3
    961    960    969    973     1  0.0000000  0.6508444  3
    962    960    963    966     1  0.0000000  0.6508444  3
    962    960    963    964     1  0.0000000  0.6508444  3
    962    960    963    965     1  0.0000000  0.6508444  3
    962    960    969    970     1  0.0000000  0.6508444  3
    962    960    969    971     1  0.0000000  0.6508444  3
    962    960    969    973     1  0.0000000  0.6508444  3
    963    960    969    970     1  0.0000000  0.6508444  3
    963    960    969    971     1  0.0000000  0.6508444  3
    963    960    969    973     1  0.0000000  0.6508444  3
    964    963    966    972     1  0.0000000  1.0460000  1
    964    963    966    972     1  0.0000000  0.0000000  3
    964    963    966    967     1  0.0000000  0.6508444  3
    964    963    966    968     1  0.0000000  0.6508444  3
    964    963    960    969     1  0.0000000  0.6508444  3
    965    963    966    972     1  0.0000000  1.0460000  1
    965    963    966    972     1  0.0000000  0.0000000  3
    965    963    966    967     1  0.0000000  0.6508444  3
    965    963    966    968     1  0.0000000  0.6508444  3
    965    963    960    969     1  0.0000000  0.6508444  3

;[ system ]
;; Name
;Generic title
;
;[ molecules ]
;; Compound       #mols
;g3pncore_petim      1
