G4Pncore-PETIM in water
49710
    1aaa     N1    1   3.025   4.242   7.754  0.5817  0.3510  0.1691
    1aaa     C1    2   2.961   4.347   7.840 -0.3378  0.6223 -0.7049
    1aaa     H1    3   3.004   4.444   7.812  1.3425  0.3615  0.7488
    1aaa     H2    4   2.853   4.342   7.822 -0.4808  1.3271 -0.0820
    1aaa     C2    5   3.001   4.097   7.787  0.5656  0.2319  0.2973
    1aaa     H3    6   2.998   4.077   7.895 -2.3527 -1.5579 -0.0398
    1aaa     H4    7   2.901   4.069   7.753  0.1337  1.2546  0.6776
    1aaa     C3    8   3.006   4.270   7.609 -0.4154  0.2348 -0.1891
    1aaa     H5    9   3.064   4.200   7.548  2.4434  4.7022 -3.1407
    1aaa     H6   10   2.898   4.265   7.592 -0.2246  0.2408 -1.4880
    1aaa     C4   11   3.047   4.409   7.562 -0.6363 -0.0875 -0.6128
    1aaa     H7   12   2.997   4.497   7.603 -0.3562 -0.3455  0.3025
    1aaa     H8   13   3.150   4.423   7.599 -1.5413  0.3845  1.9033
    1aaa     C5   14   3.002   4.346   7.997 -0.0873 -0.3783 -0.0230
    1aaa     H9   15   2.978   4.253   8.048  1.5851 -1.6262 -1.4055
    1aaa    H10   16   3.111   4.346   8.005  0.2050  0.4284 -2.8544
    1aaa     C6   17   3.112   4.012   7.725  0.7453 -0.4678 -0.7805
    1aaa    H11   18   3.116   4.021   7.616  0.3756 -0.9046 -0.8323
    1aaa    H12   19   3.209   4.033   7.771  1.1293  0.2404 -1.8779
    1aaa     C7   20   3.075   3.868   7.774 -0.3873 -0.2659  0.3299
    1aaa    H13   21   3.162   3.803   7.761 -1.1399 -1.3059  0.4341
    1aaa    H14   22   3.060   3.854   7.881 -0.9465  2.7337  0.7198
    1aaa     C8   23   3.046   4.423   7.408 -0.3291  0.7990  0.2039
    1aaa    H15   24   3.050   4.530   7.384  0.3990  1.7247  3.9129
    1aaa    H16   25   3.129   4.365   7.365 -0.9757 -0.9763  1.2592
    1aaa     C9   26   2.940   4.465   8.078  0.4248 -0.7982  0.4149
    1aaa    H17   27   2.961   4.459   8.186 -2.7572 -1.2048  1.1005
    1aaa    H18   28   2.976   4.558   8.032 -0.8060 -2.0868 -3.4815
    2bbb     N1   29   2.635   3.484   7.543 -0.6696  0.9980 -0.7814
    2bbb     C1   30   2.518   3.576   7.525 -0.0094 -1.0540 -0.5492
    2bbb     H1   31   2.465   3.549   7.432 -3.2739 -0.4637  0.9959
    2bbb     H2   32   2.555   3.679   7.511  0.9251 -1.0206  1.7168
    2bbb     C2   33   2.595   3.338   7.557 -0.1395  0.4795  0.1785
    2bbb     H3   34   2.508   3.311   7.497  0.3676 -1.3751  0.2008
    2bbb     H4   35   2.574   3.326   7.664  5.9428 -0.3544  1.6817
    2bbb     C3   36   2.742   3.515   7.640 -0.3635 -0.8530  0.1556
    2bbb     H5   37   2.822   3.441   7.632 -0.2664 -0.6201 -1.3586
    2bbb     H6   38   2.700   3.499   7.739  0.9728  0.3303  0.9557
    2bbb     C4   39   2.790   3.664   7.638 -0.7725 -0.1713  0.3519
    2bbb     H7   40   2.714   3.726   7.686  1.0775  1.3448  1.4730
    2bbb     H8   41   2.796   3.688   7.531  1.3886 -1.8807  0.0092
    2bbb     C5   42   2.424   3.574   7.651 -0.2759  0.7992 -0.4467
    2bbb     H9   43   2.480   3.564   7.745  0.8943  1.1651 -1.0822
    2bbb    H10   44   2.364   3.483   7.637  1.5708 -0.4902 -0.3744
    2bbb     C6   45   2.695   3.228   7.514 -0.1603 -0.1365  0.9981
    2bbb    H11   46   2.788   3.247   7.568 -1.2983  1.7970  2.3814
    2bbb    H12   47   2.703   3.245   7.405 -0.9632 -3.5914  0.2723
    2bbb     C7   48   2.927   3.686   7.696 -0.0426 -0.3495  0.3455
    2bbb    H13   49   3.003   3.624   7.646  0.1418  0.5186 -0.4888
    2bbb    H14   50   2.918   3.666   7.803 -3.5760  0.5180  0.3408
    2bbb     C8   51   2.645   3.088   7.523 -0.5844  0.3563  0.6642
    2bbb    H15   52   2.723   3.019   7.491 -1.1349 -0.3699  0.8558
    2bbb    H16   53   2.561   3.084   7.452 -0.3254  0.6554  0.3351
    2bbb     C9   54   2.333   3.696   7.658  0.5238 -0.4181 -0.1930
    2bbb    H17   55   2.389   3.780   7.699  0.6656 -0.0913 -1.0312
    2bbb    H18   56   2.266   3.681   7.744  1.8473  0.5245  1.0499
    2bbb     O1   57   2.975   3.824   7.685 -0.2513  0.0382 -0.1516
    3bbb     N1   58   2.518   4.465   7.129 -0.3346  0.2263  0.2974
    3bbb     C1   59   2.433   4.585   7.126 -0.0847 -0.0187  0.0561
    3bbb     H1   60   2.426   4.632   7.225 -0.0997  0.1638 -0.0312
    3bbb     H2   61   2.331   4.560   7.096 -0.4996  0.5989  0.9089
    3bbb     C2   62   2.436   4.340   7.155  0.3982  0.1183 -0.8234
    3bbb     H3   63   2.507   4.256   7.160  2.9129  2.1652  0.8041
    3bbb     H4   64   2.357   4.318   7.082 -4.1850  0.9600  3.3756
    3bbb     C3   65   2.649   4.472   7.200 -0.4045  0.1011 -0.3581
    3bbb     H5   66   2.622   4.479   7.306  1.3756 -1.7076  0.2762
    3bbb     H6   67   2.695   4.568   7.174 -0.2870 -0.1089 -0.9313
    3bbb     C4   68   2.755   4.357   7.186 -0.3097 -0.7730 -0.1129
    3bbb     H7   69   2.758   4.341   7.077 -0.1772 -0.9608 -0.0817
    3bbb     H8   70   2.717   4.268   7.238 -2.7090  0.0938 -0.2492
    3bbb     C5   71   2.477   4.690   7.022  1.2709 -0.0474  0.3916
    3bbb     H9   72   2.448   4.648   6.926  1.5088  1.3277 -0.3062
    3bbb    H10   73   2.585   4.711   7.028  1.4178 -0.1498 -1.5300
    3bbb     C6   74   2.361   4.337   7.297  0.2445  0.0560  0.1029
    3bbb    H11   75   2.301   4.426   7.321 -1.8634 -1.8909  2.6097
    3bbb    H12   76   2.434   4.335   7.378  2.3170  0.4280 -1.6804
    3bbb     C7   77   2.900   4.392   7.224  0.4868 -0.8894  0.9479
    3bbb    H13   78   2.917   4.495   7.188 -0.6615 -0.6413  1.0755
    3bbb    H14   79   2.966   4.326   7.168  0.0775 -0.7632  0.3098
    3bbb     C8   80   2.264   4.217   7.306  0.2759 -0.1272 -0.0862
    3bbb    H15   81   2.316   4.122   7.293 -1.5283 -1.3547  1.1418
    3bbb    H16   82   2.182   4.233   7.236 -1.3446  0.5347  1.8591
    3bbb     C9   83   2.404   4.825   7.036  0.0903  0.1527  0.3300
    3bbb    H17   84   2.296   4.808   7.045  0.0591 -1.7283 -2.3629
    3bbb    H18   85   2.418   4.900   6.957  0.2067 -0.1896  0.0217
    3bbb     O1   86   2.923   4.379   7.363 -0.2540 -0.7723 -0.1982
    4bbb     N1   87   2.517   4.711   8.024  0.0840  0.2044 -0.0938
    4bbb     C1   88   2.446   4.776   8.137 -0.6127  0.2102 -0.4498
    4bbb     H1   89   2.485   4.738   8.232 -1.3843  0.9722  0.1866
    4bbb     H2   90   2.342   4.742   8.136 -0.7988  0.5562  1.8941
    4bbb     C2   91   2.488   4.773   7.891 -0.1205 -0.1598  0.4034
    4bbb     H3   92   2.544   4.709   7.821  0.4172  0.7512 -0.0133
    4bbb     H4   93   2.513   4.879   7.885 -2.7210  0.5532  0.8070
    4bbb     C3   94   2.520   4.558   8.029 -0.2262 -0.4621 -0.5154
    4bbb     H5   95   2.577   4.531   7.940 -0.8083  0.3685 -1.1590
    4bbb     H6   96   2.417   4.522   8.014 -0.0613 -0.1926 -2.5519
    4bbb     C4   97   2.575   4.492   8.153 -0.5622 -0.5739  0.1317
    4bbb     H7   98   2.569   4.383   8.143  0.2887 -0.8202  1.8154
    4bbb     H8   99   2.510   4.517   8.238  0.2849 -0.8207  0.8818
    4bbb     C5  100   2.442   4.936   8.133  0.8358 -0.1393 -0.0169
    4bbb     H9  101   2.370   4.968   8.209  0.3659  0.5792 -0.7468
    4bbb    H10  102   2.405   4.970   8.036  5.8752 -0.9697 -2.5540
    4bbb     C6  103   2.339   4.760   7.836  0.5294  0.2904 -0.7398
    4bbb    H11  104   2.277   4.832   7.890  2.3822  0.8792  0.7510
    4bbb    H12  105   2.306   4.659   7.865  0.1108  1.3406  3.1120
    4bbb     C7  106   2.723   4.534   8.176 -0.3433  0.1930  0.5264
    4bbb    H13  107   2.762   4.512   8.277 -0.3337  0.6458  0.6229
    4bbb    H14  108   2.742   4.641   8.167  1.1818  0.2434  3.3022
    4bbb     C8  109   2.329   4.771   7.678 -0.1079 -0.5522 -0.1496
    4bbb    H15  110   2.391   4.693   7.631  0.0392  0.0469 -0.9616
    4bbb    H16  111   2.352   4.873   7.645 -1.0880 -0.9982 -2.4346
    4bbb     C9  112   2.584   4.994   8.156 -0.1326  0.2561  0.0771
    4bbb    H17  113   2.653   4.942   8.089 -0.7171  0.5234 -0.7337
    4bbb    H18  114   2.616   4.984   8.261  0.3389 -0.3119 -0.1125
    4bbb     O1  115   2.798   4.457   8.074 -0.0351 -0.4023  0.0373
    5bbb     N1  116   2.421   2.720   7.974  0.9842 -0.9406  0.1798
    5bbb     C1  117   2.343   2.825   8.058 -0.7264 -0.1422 -0.4386
    5bbb     H1  118   2.251   2.845   8.002 -1.1480 -1.5893 -0.3150
    5bbb     H2  119   2.401   2.914   8.085 -0.4093 -1.1285  2.4803
    5bbb     C2  120   2.352   2.589   7.962 -0.3003  0.2164  0.3309
    5bbb     H3  121   2.266   2.600   7.896 -0.6990  1.1415  0.9703
    5bbb     H4  122   2.308   2.569   8.060  0.3734  2.2167  1.0986
    5bbb     C3  123   2.458   2.772   7.838  0.0354 -0.3951  0.1713
    5bbb     H5  124   2.374   2.772   7.768  2.0299  1.3568 -2.4177
    5bbb     H6  125   2.525   2.699   7.792 -0.0472 -0.8258  0.7285
    5bbb     C4  126   2.523   2.914   7.827  0.3447  1.2721 -0.4778
    5bbb     H7  127   2.607   2.912   7.898  0.7605 -1.7924 -0.9040
    5bbb     H8  128   2.456   2.996   7.854 -1.5636 -0.3134 -0.2144
    5bbb     C5  129   2.296   2.770   8.195  0.2202  0.3221  0.5292
    5bbb     H9  130   2.222   2.690   8.179 -0.5145  0.9743  0.6066
    5bbb    H10  131   2.237   2.851   8.241 -0.6829  0.4313 -0.7756
    5bbb     C6  132   2.444   2.466   7.933  0.0650 -0.0742  0.3841
    5bbb    H11  133   2.508   2.496   7.849  0.2146 -0.5482  0.3263
    5bbb    H12  134   2.374   2.389   7.899  0.2435  0.1303 -0.4882
    5bbb     C7  135   2.568   2.924   7.683 -0.4556 -0.1758  0.0168
    5bbb    H13  136   2.482   2.902   7.618 -0.7208  0.8496  0.0091
    5bbb    H14  137   2.647   2.848   7.670  0.0771  0.1519  1.2462
    5bbb     C8  138   2.539   2.423   8.051  0.0886  0.0537  0.5782
    5bbb    H15  139   2.592   2.509   8.093  1.9453 -0.6762 -0.1779
    5bbb    H16  140   2.622   2.361   8.015 -1.3300  0.0161 -3.0171
    5bbb     C9  141   2.404   2.715   8.288 -0.4309  0.4835 -0.2701
    5bbb    H17  142   2.464   2.800   8.320 -0.7808  0.4002  0.6526
    5bbb    H18  143   2.466   2.650   8.225 -0.7224  0.5182 -0.5987
    5bbb     O1  144   2.603   3.064   7.656 -0.2117 -0.3178  0.2526
    6bbb     N1  145   2.041   3.622   7.120 -0.5374 -0.4240  0.0889
    6bbb     C1  146   2.166   3.644   7.040 -0.2894 -0.0597 -0.1885
    6bbb     H1  147   2.209   3.744   7.051  2.3984 -1.0268 -0.8623
    6bbb     H2  148   2.135   3.637   6.935 -0.3229 -1.8727 -0.0938
    6bbb     C2  149   1.933   3.722   7.084  0.0472  0.6249 -0.3261
    6bbb     H3  150   1.929   3.721   6.974 -0.2279 -2.0740 -0.3591
    6bbb     H4  151   1.971   3.821   7.112 -0.3653  0.8378 -0.5180
    6bbb     C3  152   2.055   3.607   7.265  0.0187  0.2012 -0.2249
    6bbb     H5  153   2.107   3.512   7.282  2.5411  1.4560 -0.4979
    6bbb     H6  154   1.956   3.597   7.313  0.8929 -1.6150  1.3648
    6bbb     C4  155   2.135   3.711   7.343  0.5526  0.6239  0.0669
    6bbb     H7  156   2.075   3.802   7.359 -0.0889 -0.2374  3.2822
    6bbb     H8  157   2.227   3.745   7.295 -0.9222  2.3084 -1.7088
    6bbb     C5  158   2.273   3.535   7.061 -0.0234 -0.1240  0.0004
    6bbb     H9  159   2.238   3.440   7.018 -1.4295  0.2889  0.1683
    6bbb    H10  160   2.288   3.515   7.168 -1.0022 -0.2955  0.1158
    6bbb     C6  161   1.793   3.701   7.145 -0.2749  0.2251  0.0825
    6bbb    H11  162   1.803   3.730   7.250  0.9224  0.2108 -0.0119
    6bbb    H12  163   1.778   3.593   7.131  2.2931 -0.1023 -0.5294
    6bbb     C7  164   2.172   3.643   7.484  0.2043 -0.7252  0.1341
    6bbb    H13  165   2.218   3.545   7.463  0.1469 -0.5981 -0.6045
    6bbb    H14  166   2.091   3.635   7.557  0.3219 -0.7586  0.2607
    6bbb     C8  167   1.683   3.773   7.069 -0.2297 -0.5352  1.0352
    6bbb    H15  168   1.582   3.742   7.100 -0.3086  0.0625  1.3827
    6bbb    H16  169   1.691   3.744   6.963 -1.3546  1.3096  0.3950
    6bbb     C9  170   2.406   3.579   6.991 -0.2643 -0.0103  0.2574
    6bbb    H17  171   2.382   3.610   6.889  0.8071  1.4350  0.4169
    6bbb    H18  172   2.474   3.493   6.996  0.8059  0.7614 -0.5010
    6bbb     O1  173   2.269   3.734   7.535 -0.6724  0.1452 -0.1025
    7bbb     N1  174   2.093   4.121   7.842  0.2480  0.3439 -0.5034
    7bbb     C1  175   2.182   4.100   7.952  0.2571 -0.2027 -0.2002
    7bbb     H1  176   2.246   4.189   7.952  1.2276 -0.8901 -0.1269
    7bbb     H2  177   2.245   4.014   7.925 -0.6822 -0.9034 -0.2336
    7bbb     C2  178   2.021   4.251   7.845 -0.5236  0.6176  0.3214
    7bbb     H3  179   1.962   4.253   7.938 -0.1936 -0.8916  0.5829
    7bbb     H4  180   1.943   4.249   7.767 -0.3416  1.4247  0.1087
    7bbb     C3  181   2.158   4.095   7.714  0.3555  0.5613  0.5477
    7bbb     H5  182   2.211   3.999   7.715  2.6760  1.7614  0.4094
    7bbb     H6  183   2.240   4.167   7.700 -0.8324  2.1291  1.3426
    7bbb     C4  184   2.060   4.095   7.593 -0.4786 -0.2135  0.1464
    7bbb     H7  185   1.989   4.178   7.587 -2.4546 -1.5606  2.7643
    7bbb     H8  186   1.986   4.014   7.595  0.2212 -0.8596  0.5137
    7bbb     C5  187   2.125   4.077   8.099  0.4385  0.2630 -0.1848
    7bbb     H9  188   2.066   3.985   8.099  0.5567  0.1773  0.7285
    7bbb    H10  189   2.060   4.159   8.131  0.3916  0.2555 -0.2650
    7bbb     C6  190   2.108   4.382   7.837  0.1424  0.3684 -0.6485
    7bbb    H11  191   2.174   4.390   7.749  1.4577  0.3777  0.3121
    7bbb    H12  192   2.182   4.396   7.917  1.2826 -1.5496 -1.2960
    7bbb     C7  193   2.131   4.080   7.454  0.0437  0.0217 -0.0424
    7bbb    H13  194   2.050   4.070   7.380  0.2906 -0.3891 -0.2655
    7bbb    H14  195   2.192   3.988   7.449 -1.4417 -0.9756 -0.7064
    7bbb     C8  196   2.025   4.512   7.823  0.1476  0.0523 -0.1981
    7bbb    H15  197   1.958   4.503   7.736 -0.0855  0.0612 -0.0208
    7bbb    H16  198   2.103   4.587   7.804  0.4155 -0.1707  0.0174
    7bbb     C9  199   2.232   4.059   8.208  0.2733 -0.3922  1.4522
    7bbb    H17  200   2.314   4.131   8.197  0.8242 -1.0731  0.9531
    7bbb    H18  201   2.290   3.965   8.204  1.4103  0.3076  1.0615
    7bbb     O1  202   2.212   4.203   7.437  0.2774  0.0320 -0.5049
    8bbb     N1  203   2.645   5.007   7.523 -0.2698  0.0975  0.2569
    8bbb     C1  204   2.582   5.087   7.642  0.2547  0.0162  0.8939
    8bbb     H1  205   2.640   5.060   7.731  0.2803 -2.1150  0.2636
    8bbb     H2  206   2.477   5.058   7.649  0.1919 -0.3412 -1.0513
    8bbb     C2  207   2.666   4.861   7.562  0.5975 -0.3715 -0.4893
    8bbb     H3  208   2.582   4.815   7.615  0.9781  3.2643  3.8268
    8bbb     H4  209   2.746   4.841   7.635 -0.2302 -2.3683 -0.0584
    8bbb     C3  210   2.590   5.031   7.382  0.2739 -0.5320 -0.0712
    8bbb     H5  211   2.643   4.975   7.305 -2.7357 -0.3716 -2.4209
    8bbb     H6  212   2.616   5.134   7.357  1.6431 -1.0311 -0.8119
    8bbb     C4  213   2.439   5.001   7.372  0.2208  0.0190  0.2388
    8bbb     H7  214   2.379   5.078   7.422 -0.2078 -0.3266  0.2683
    8bbb     H8  215   2.415   4.907   7.424 -1.4888  0.6729  0.6955
    8bbb     C5  216   2.596   5.247   7.631  0.2207  0.4023  0.6598
    8bbb     H9  217   2.536   5.281   7.717 -0.6133  0.2483  0.1502
    8bbb    H10  218   2.555   5.285   7.537  1.9904 -2.2287 -1.3079
    8bbb     C6  219   2.706   4.764   7.452 -0.1484  0.2686 -0.2258
    8bbb    H11  220   2.800   4.806   7.413  0.0702  0.4357  0.4757
    8bbb    H12  221   2.634   4.759   7.369  0.0549  0.2052 -0.3997
    8bbb     C7  222   2.387   4.989   7.222 -0.3457  0.0912 -0.3831
    8bbb    H13  223   2.410   5.079   7.163 -1.0638  1.4312  1.2841
    8bbb    H14  224   2.279   4.969   7.229 -0.2755 -0.3545 -0.5990
    8bbb     C8  225   2.729   4.625   7.517 -0.2804 -0.8544  0.5019
    8bbb    H15  226   2.800   4.645   7.599 -0.1328  2.3174 -0.2888
    8bbb    H16  227   2.778   4.561   7.442 -1.0092  0.8287 -1.5114
    8bbb     C9  228   2.740   5.292   7.637  0.2316 -0.2681 -0.1046
    8bbb    H17  229   2.793   5.243   7.554  3.0304  0.2187  1.2882
    8bbb    H18  230   2.789   5.257   7.728  3.3519  0.4231 -1.4107
    8bbb     O1  231   2.445   4.876   7.162 -0.7247 -0.0430 -0.3300
    9bbb     N1  232   1.934   4.786   7.303  0.3331 -0.5666  0.7739
    9bbb     C1  233   1.823   4.837   7.397 -0.0474  0.6609  0.0939
    9bbb     H1  234   1.790   4.931   7.351 -1.1647 -0.3696 -1.3041
    9bbb     H2  235   1.858   4.867   7.497 -0.3177  2.0513 -0.2096
    9bbb     C2  236   1.898   4.804   7.160 -0.1113  0.1908  0.5225
    9bbb     H3  237   1.852   4.903   7.143 -0.1651  0.0727 -0.0354
    9bbb     H4  238   1.823   4.730   7.128 -0.9210  0.1071  2.4924
    9bbb     C3  239   1.981   4.652   7.337  0.0757  0.4770  0.2685
    9bbb     H5  240   2.054   4.616   7.264  0.4777 -0.5728  1.1609
    9bbb     H6  241   1.900   4.580   7.323  0.4003  0.4613 -1.7792
    9bbb     C4  242   2.048   4.641   7.471  0.7079  0.2583  0.3569
    9bbb     H7  243   2.085   4.538   7.475 -0.7201 -0.2582  0.6270
    9bbb     H8  244   1.981   4.648   7.558 -0.7387 -3.2547 -0.3260
    9bbb     C5  245   1.690   4.757   7.425 -0.3401  0.2306  0.0746
    9bbb     H9  246   1.726   4.676   7.489  0.2495  2.1371  2.3177
    9bbb    H10  247   1.649   4.717   7.331 -0.8045  0.3169  0.2398
    9bbb     C6  248   2.015   4.810   7.060 -1.1161 -0.3719  0.5856
    9bbb    H11  249   2.040   4.704   7.050  3.6705  0.3043  2.8752
    9bbb    H12  250   2.102   4.864   7.099  0.5495 -0.7960 -2.2458
    9bbb     C7  251   2.182   4.718   7.490 -0.1571 -0.4499 -0.3806
    9bbb    H13  252   2.187   4.812   7.434  0.8330 -0.3327 -0.1235
    9bbb    H14  253   2.267   4.657   7.457  0.8351  0.3642  0.5917
    9bbb     C8  254   1.983   4.861   6.912 -0.1956  0.2354  0.3231
    9bbb    H15  255   1.957   4.968   6.907 -0.3448  0.1408 -1.5680
    9bbb    H16  256   1.891   4.812   6.879 -0.3884  1.7676 -1.5859
    9bbb     C9  257   1.586   4.837   7.495 -0.4806 -0.1927 -0.2597
    9bbb    H17  258   1.547   4.920   7.435 -0.3004  1.0299  1.2282
    9bbb    H18  259   1.627   4.889   7.583  2.2404 -0.8868 -1.0331
    9bbb     O1  260   2.196   4.732   7.640 -0.2618  0.2571  0.3659
   10bbb     N1  261   2.618   5.567   8.067 -0.0605  0.7155  0.1599
   10bbb     C1  262   2.587   5.578   7.921 -0.5894 -0.4995 -0.0223
   10bbb     H1  263   2.661   5.517   7.868 -0.4416  0.1822 -0.6200
   10bbb     H2  264   2.612   5.677   7.880 -2.3413  0.3308  0.7971
   10bbb     C2  265   2.554   5.676   8.138  0.3773  0.1210 -0.5013
   10bbb     H3  266   2.563   5.652   8.245 -1.0892 -0.8533 -0.5731
   10bbb     H4  267   2.447   5.680   8.113  0.1458 -2.1507 -0.0780
   10bbb     C3  268   2.606   5.426   8.110 -0.7928 -0.0533  0.6738
   10bbb     H5  269   2.500   5.398   8.098 -1.3298  1.9696  0.3911
   10bbb     H6  270   2.628   5.431   8.217 -2.0598 -0.2308  0.9624
   10bbb     C4  271   2.696   5.322   8.033 -0.3679  0.1637  0.2958
   10bbb     H7  272   2.796   5.367   8.027 -0.7788  0.9818 -0.9544
   10bbb     H8  273   2.666   5.301   7.930 -0.3086  1.1060  0.0766
   10bbb     C5  274   2.445   5.548   7.866  0.0732  0.0987 -0.3082
   10bbb     H9  275   2.372   5.611   7.919  0.1463 -0.0037 -0.0839
   10bbb    H10  276   2.416   5.443   7.883 -1.5336  0.2662 -1.7674
   10bbb     C6  277   2.619   5.817   8.119 -0.5887  0.7585 -0.1432
   10bbb    H11  278   2.637   5.835   8.013 -1.9023 -0.2699 -0.5726
   10bbb    H12  279   2.719   5.817   8.166  0.4596 -1.1766 -2.1478
   10bbb     C7  280   2.703   5.192   8.103 -0.1420  0.7984 -0.4318
   10bbb    H13  281   2.754   5.201   8.200 -0.6974 -0.5823  0.0174
   10bbb    H14  282   2.765   5.120   8.048 -0.5152  0.2772 -0.1792
   10bbb     C8  283   2.526   5.935   8.168 -0.1229 -0.1146 -0.2341
   10bbb    H15  284   2.512   5.925   8.277 -0.4747  2.0409 -0.0504
   10bbb    H16  285   2.428   5.922   8.119 -0.5125 -2.2820  0.9701
   10bbb     C9  286   2.431   5.554   7.712  0.0813 -0.7899 -0.5664
   10bbb    H17  287   2.526   5.523   7.668  0.1526 -3.4753  1.2697
   10bbb    H18  288   2.408   5.659   7.687 -0.7031 -0.3115  1.8514
   10bbb     O1  289   2.573   5.131   8.116  0.0046 -0.8603  0.0191
   11bbb     N1  290   2.422   2.002   8.504  0.4474 -0.2202 -0.0808
   11bbb     C1  291   2.505   1.899   8.574 -0.9285 -0.6385 -0.2250
   11bbb     H1  292   2.441   1.838   8.639 -0.6851 -2.0254 -1.2682
   11bbb     H2  293   2.573   1.960   8.635 -1.7079  1.2702 -1.1822
   11bbb     C2  294   2.323   2.076   8.586  0.2265  0.8938 -0.7208
   11bbb     H3  295   2.279   2.154   8.523  0.5455  0.6864 -1.2166
   11bbb     H4  296   2.372   2.126   8.670 -0.2832 -0.5438  0.4718
   11bbb     C3  297   2.510   2.101   8.426  0.0044  0.1844  0.1969
   11bbb     H5  298   2.572   2.028   8.373 -0.3498 -1.0398  1.4144
   11bbb     H6  299   2.577   2.163   8.487  2.2239 -1.2120 -0.6683
   11bbb     C4  300   2.443   2.191   8.317 -0.0134 -0.5973  0.4019
   11bbb     H7  301   2.364   2.250   8.363  1.7424  2.4258 -0.1941
   11bbb     H8  302   2.402   2.129   8.237  1.1495 -0.7635 -0.0881
   11bbb     C5  303   2.575   1.793   8.485  0.0372 -0.5028 -0.4708
   11bbb     H9  304   2.660   1.750   8.540  1.6024  0.4115 -2.0389
   11bbb    H10  305   2.632   1.848   8.409 -2.4939  0.4498 -1.7755
   11bbb     C6  306   2.211   1.976   8.632  0.0831  0.2063 -0.7975
   11bbb    H11  307   2.181   1.892   8.568 -1.3026  1.1403 -1.4005
   11bbb    H12  308   2.123   2.041   8.636 -0.0075  0.0270  1.0514
   11bbb     C7  309   2.548   2.279   8.246  0.4609  0.8489 -0.5234
   11bbb    H13  310   2.601   2.206   8.183 -0.4369 -1.8409  1.6683
   11bbb    H14  311   2.608   2.330   8.322 -1.6645  1.0572  1.0942
   11bbb     C8  312   2.234   1.928   8.777 -0.3827 -0.2932  0.0088
   11bbb    H15  313   2.211   2.010   8.846  0.1736  0.9667 -1.2588
   11bbb    H16  314   2.333   1.889   8.807  0.3720 -0.4774 -2.4612
   11bbb     C9  315   2.486   1.682   8.420  0.2235  0.7438 -0.2883
   11bbb    H17  316   2.537   1.619   8.346 -2.5931 -0.6181 -1.2452
   11bbb    H18  317   2.405   1.735   8.369 -0.8722 -0.2063  0.4135
   11bbb     O1  318   2.468   2.368   8.163 -0.2036  0.1648  0.0046
   12bbb     N1  319   2.398   2.469   8.860  0.1855  0.1894 -0.2530
   12bbb     C1  320   2.277   2.380   8.883  0.3095 -0.6541  0.4904
   12bbb     H1  321   2.270   2.350   8.988 -0.7863 -0.7797  0.3913
   12bbb     H2  322   2.288   2.285   8.828 -0.1085 -0.3279 -0.1774
   12bbb     C2  323   2.415   2.602   8.938  0.1785 -0.1645  0.7667
   12bbb     H3  324   2.351   2.680   8.893 -0.8252 -1.1248  0.4872
   12bbb     H4  325   2.516   2.639   8.921  0.0265 -0.8009 -2.0217
   12bbb     C3  326   2.453   2.467   8.720  0.3417  0.3208  0.3039
   12bbb     H5  327   2.467   2.362   8.692 -0.0958  0.8611 -2.2150
   12bbb     H6  328   2.551   2.516   8.728  0.3087  0.1234  2.3430
   12bbb     C4  329   2.361   2.533   8.610 -0.7678  0.5021 -0.3557
   12bbb     H7  330   2.314   2.622   8.653 -0.3093  0.4656  0.2445
   12bbb     H8  331   2.285   2.460   8.583 -0.4455 -0.2803  0.7892
   12bbb     C5  332   2.137   2.439   8.855  0.2222  0.3047 -0.2319
   12bbb     H9  333   2.120   2.469   8.751 -0.7482  0.9115  0.0834
   12bbb    H10  334   2.133   2.531   8.915 -0.8111  1.2981 -1.7530
   12bbb     C6  335   2.375   2.591   9.088 -0.1253  0.4918  0.6964
   12bbb    H11  336   2.422   2.499   9.125 -0.0415  0.4337  0.4514
   12bbb    H12  337   2.267   2.585   9.102 -0.6778  0.9469 -2.6136
   12bbb     C7  338   2.435   2.580   8.477  0.1618  0.4753 -0.4476
   12bbb    H13  339   2.478   2.494   8.425  1.0934  1.5975 -1.5985
   12bbb    H14  340   2.527   2.636   8.501  0.2474  0.3746 -0.5395
   12bbb     C8  341   2.431   2.699   9.178  0.2485 -0.1043 -0.2047
   12bbb    H15  342   2.419   2.791   9.121  0.0372  0.6534  1.0323
   12bbb    H16  343   2.540   2.685   9.184  0.1375 -0.3363  2.7418
   12bbb     C9  344   2.017   2.347   8.904  0.1036  0.4107 -0.0918
   12bbb    H17  345   1.925   2.401   8.880  0.9545  1.1319 -1.9153
   12bbb    H18  346   2.021   2.333   9.013 -1.6742 -0.4453 -0.1017
   12bbb     O1  347   2.336   2.640   8.394  0.1140 -0.4743  0.4248
   13bbb     N1  348   1.814   4.348   6.884  0.3431 -0.4543  0.0673
   13bbb     C1  349   1.919   4.413   6.971 -0.0289 -0.3419  0.1606
   13bbb     H1  350   1.886   4.397   7.074  1.7300  0.2308  0.8428
   13bbb     H2  351   1.913   4.521   6.953 -1.1268 -0.4504 -0.2515
   13bbb     C2  352   1.680   4.399   6.921  0.1306 -1.2247  0.4125
   13bbb     H3  353   1.679   4.390   7.030  1.3784 -1.6792  0.3987
   13bbb     H4  354   1.605   4.336   6.872  0.0664  0.4332 -1.7633
   13bbb     C3  355   1.835   4.203   6.875  0.0884  0.3858 -0.2191
   13bbb     H5  356   1.939   4.177   6.850  0.5364 -2.1062  3.4317
   13bbb     H6  357   1.775   4.168   6.791 -0.6460 -1.3360  0.9723
   13bbb     C4  358   1.800   4.127   7.002 -0.0934  0.1544 -0.3012
   13bbb     H7  359   1.728   4.180   7.065  0.8537  0.4570  0.5689
   13bbb     H8  360   1.891   4.123   7.063 -1.0787 -2.3504  1.1803
   13bbb     C5  361   2.064   4.357   6.983 -0.4402  0.0373  0.4193
   13bbb     H9  362   2.069   4.248   6.996  0.8860 -0.1554 -1.2214
   13bbb    H10  363   2.119   4.409   7.062 -2.2133  1.9511  0.4914
   13bbb     C6  364   1.642   4.544   6.877 -0.2534 -0.4431  0.1128
   13bbb    H11  365   1.678   4.553   6.774 -0.3905 -2.4422 -0.1478
   13bbb    H12  366   1.695   4.613   6.944 -1.0528  0.8469 -0.5541
   13bbb     C7  367   1.751   3.982   6.968  0.3244 -0.1777 -0.5541
   13bbb    H13  368   1.831   3.937   6.908 -0.3222 -0.7623 -1.0060
   13bbb    H14  369   1.673   3.998   6.893 -0.9175  0.9918  0.9162
   13bbb     C8  370   1.490   4.580   6.889  0.4613  0.0844  0.8255
   13bbb    H15  371   1.466   4.685   6.865 -1.2903  0.5876  4.0916
   13bbb    H16  372   1.463   4.570   6.995 -0.1917  0.6566  0.7230
   13bbb     C9  373   2.142   4.394   6.852 -0.1032  0.1626 -0.5799
   13bbb    H17  374   2.130   4.499   6.822  0.8292  0.1446 -1.0567
   13bbb    H18  375   2.097   4.342   6.767  1.5615 -2.2187 -0.0964
   13bbb     O1  376   1.705   3.915   7.090 -0.0378 -0.4774 -0.4260
   14bbb     N1  377   2.558   4.025   6.931 -0.1195 -0.0805  0.2503
   14bbb     C1  378   2.431   4.077   6.884  0.1617 -0.4102  0.0889
   14bbb     H1  379   2.446   4.070   6.776  0.5782  2.0327 -0.0690
   14bbb     H2  380   2.417   4.184   6.906  0.0840 -0.0918 -1.4268
   14bbb     C2  381   2.674   4.113   6.885  0.0350  0.7378 -0.2841
   14bbb     H3  382   2.671   4.207   6.941 -1.6250  1.2345 -1.1386
   14bbb     H4  383   2.657   4.136   6.779  0.8242 -1.8086 -1.0394
   14bbb     C3  384   2.564   3.985   7.073  0.2752 -0.2638  0.2020
   14bbb     H5  385   2.464   3.971   7.115 -0.2247 -1.5956 -1.3153
   14bbb     H6  386   2.608   4.066   7.132 -3.1328  0.9046  1.3337
   14bbb     C4  387   2.632   3.855   7.107  0.1664 -0.3730 -0.3900
   14bbb     H7  388   2.589   3.828   7.205 -1.0825  3.7031  0.3455
   14bbb     H8  389   2.741   3.865   7.112  0.3725 -0.6721 -2.9143
   14bbb     C5  390   2.309   3.994   6.922  0.6318  0.2261 -0.1474
   14bbb     H9  391   2.290   3.994   7.030 -2.6364  1.1050 -0.5922
   14bbb    H10  392   2.330   3.888   6.905 -2.0719 -0.6015  1.0375
   14bbb     C6  393   2.809   4.043   6.894 -0.7084  0.8397 -0.3675
   14bbb    H11  394   2.788   3.943   6.855 -2.3292  0.2329  1.8261
   14bbb    H12  395   2.835   4.031   7.000 -0.6791  0.6130 -0.4003
   14bbb     C7  396   2.586   3.730   7.031 -0.3276 -0.0655 -0.0290
   14bbb    H13  397   2.654   3.649   7.060 -0.5679 -1.0813 -2.1442
   14bbb    H14  398   2.599   3.750   6.924  0.4954 -1.6390 -0.2418
   14bbb     C8  399   2.921   4.114   6.822 -0.4218 -0.4260 -0.2357
   14bbb    H15  400   3.013   4.058   6.837  0.1389  0.6116  0.3485
   14bbb    H16  401   2.935   4.208   6.877 -1.0921 -0.5776  0.2114
   14bbb     C9  402   2.173   4.020   6.846  0.4148  0.0654  0.9486
   14bbb    H17  403   2.141   4.122   6.823  0.0653 -0.2934 -0.2199
   14bbb    H18  404   2.089   3.972   6.899 -0.4828  1.4049  0.7779
   14bbb     O1  405   2.453   3.694   7.063  0.9060  0.1569 -0.3736
   15bbb     N1  406   2.020   4.549   8.336 -0.2507  0.0522  0.5027
   15bbb     C1  407   1.937   4.421   8.318 -0.0010 -0.3882  0.1884
   15bbb     H1  408   2.008   4.339   8.328  0.2408 -0.1688  0.2803
   15bbb     H2  409   1.900   4.418   8.215 -0.5942  0.7027  0.3427
   15bbb     C2  410   2.123   4.550   8.446 -0.0770 -0.0207 -0.1295
   15bbb     H3  411   2.068   4.531   8.539  0.5642 -1.0682  0.0484
   15bbb     H4  412   2.163   4.650   8.468 -0.1597 -0.2232  1.0098
   15bbb     C3  413   2.060   4.623   8.211  0.5405 -0.3411 -0.1937
   15bbb     H5  414   2.114   4.556   8.143 -1.2883 -0.2546 -1.8085
   15bbb     H6  415   2.114   4.712   8.245 -0.6190  0.4765 -0.4452
   15bbb     C4  416   1.940   4.682   8.133  0.5936 -0.3914  0.6813
   15bbb     H7  417   1.921   4.783   8.172 -1.5333 -1.0332  1.4013
   15bbb     H8  418   1.847   4.629   8.154  0.6028 -0.0851  1.5510
   15bbb     C5  419   1.814   4.401   8.416  0.3710 -0.1708  0.2118
   15bbb     H9  420   1.854   4.394   8.518  0.0229 -1.8332  0.2586
   15bbb    H10  421   1.772   4.305   8.383  0.7130  0.2036 -1.4403
   15bbb     C6  422   2.243   4.452   8.433 -0.0606 -0.0165  0.3038
   15bbb    H11  423   2.291   4.473   8.336 -0.4587  0.0831  0.1265
   15bbb    H12  424   2.196   4.353   8.429 -1.1171  0.4703  0.3767
   15bbb     C7  425   1.947   4.676   7.974 -0.3338  0.3583 -0.1126
   15bbb    H13  426   2.041   4.725   7.946 -0.5060  0.3060 -0.8063
   15bbb    H14  427   1.863   4.731   7.929 -0.6409 -1.0385 -1.3291
   15bbb     C8  428   2.331   4.465   8.558 -0.7045 -0.0959 -0.5585
   15bbb    H15  429   2.289   4.412   8.644  3.1159 -2.9004 -0.1200
   15bbb    H16  430   2.358   4.569   8.579  0.6932 -0.8730  1.9328
   15bbb     C9  431   1.706   4.510   8.402  0.1938  0.2240 -0.0533
   15bbb    H17  432   1.657   4.492   8.306  1.2163 -0.0381 -0.5428
   15bbb    H18  433   1.749   4.611   8.404 -0.6389  0.5849 -0.0940
   15bbb     O1  434   1.961   4.539   7.942  0.0246 -0.1116  0.1326
   16bbb     N1  435   2.002   4.110   8.733  0.1217  0.1803 -0.1294
   16bbb     C1  436   1.983   4.235   8.809 -0.1724  0.0666  0.3904
   16bbb     H1  437   1.899   4.227   8.879 -0.1390 -2.3108  0.2418
   16bbb     H2  438   1.971   4.315   8.735  2.8887 -0.4717 -0.8290
   16bbb     C2  439   1.880   4.018   8.720 -0.5371  0.5029 -0.3680
   16bbb     H3  440   1.844   4.005   8.823  2.9284  0.3829  0.9478
   16bbb     H4  441   1.914   3.926   8.672  0.8776  1.2916 -0.9363
   16bbb     C3  442   2.085   4.133   8.611  0.0707 -0.0485  0.2337
   16bbb     H5  443   2.141   4.227   8.622  0.7038 -0.3915 -0.0156
   16bbb     H6  444   2.023   4.143   8.521  0.4546  0.3073  0.0024
   16bbb     C4  445   2.180   4.018   8.578  0.2186 -0.8292 -0.2000
   16bbb     H7  446   2.128   3.922   8.568 -0.2370 -0.8756  2.0785
   16bbb     H8  447   2.256   4.012   8.657 -0.1764  1.0722  0.3965
   16bbb     C5  448   2.101   4.275   8.896 -0.4777 -0.3200 -0.3736
   16bbb     H9  449   2.195   4.299   8.843  0.7301 -0.0409  1.7825
   16bbb    H10  450   2.125   4.187   8.956  0.6575  0.8380  0.9541
   16bbb     C6  451   1.762   4.081   8.636 -0.3272  0.1165  0.1352
   16bbb    H11  452   1.693   3.997   8.621 -0.9574  0.4236  1.2264
   16bbb    H12  453   1.794   4.101   8.533 -2.2944 -0.6644 -0.6757
   16bbb     C7  454   2.257   4.041   8.447  0.2459  0.1644  0.1020
   16bbb    H13  455   2.319   3.954   8.421  0.6610 -0.0580  1.7032
   16bbb    H14  456   2.330   4.122   8.457  0.4069  0.1937 -1.1768
   16bbb     C8  457   1.691   4.203   8.704  0.3191  0.5428  1.0965
   16bbb    H15  458   1.596   4.214   8.651  0.1776  0.0659  1.2481
   16bbb    H16  459   1.748   4.295   8.689 -1.8823  1.5395 -1.9210
   16bbb     C9  460   2.072   4.393   8.990  0.2123 -0.8597  0.6477
   16bbb    H17  461   2.039   4.473   8.923 -0.0263 -1.2018  0.3542
   16bbb    H18  462   2.167   4.425   9.036 -0.2038 -2.2812  2.5952
   16bbb     O1  463   2.165   4.064   8.330 -0.1553  0.4603 -0.4782
   17bbb     N1  464   2.562   4.142   7.706  0.2895 -0.3094  0.3039
   17bbb     C1  465   2.586   4.031   7.807  0.0691 -0.0939  0.5250
   17bbb     H1  466   2.623   3.939   7.761  1.4173 -0.2560  1.8396
   17bbb     H2  467   2.489   4.011   7.853 -1.1111  1.4096 -1.1710
   17bbb     C2  468   2.493   4.097   7.581  0.3842  0.1888  0.1540
   17bbb     H3  469   2.454   4.184   7.527 -2.4546 -0.8540  0.3671
   17bbb     H4  470   2.404   4.038   7.604  1.3375 -1.2659  0.2356
   17bbb     C3  471   2.510   4.265   7.770 -0.3033  0.0994  0.0336
   17bbb     H5  472   2.571   4.287   7.858  0.2502 -1.0382 -0.0423
   17bbb     H6  473   2.413   4.240   7.813 -0.9412 -0.1855 -1.4886
   17bbb     C4  474   2.488   4.385   7.670 -0.2252 -0.3162 -0.0952
   17bbb     H7  475   2.457   4.470   7.732  3.7649  2.5484 -1.5739
   17bbb     H8  476   2.412   4.368   7.592  0.2272  1.4691 -0.9853
   17bbb     C5  477   2.687   4.065   7.921  0.1756  0.5428 -0.1190
   17bbb     H9  478   2.632   4.113   8.003  0.7343  2.7626 -0.9633
   17bbb    H10  479   2.763   4.141   7.899 -0.3710  1.5020  1.2219
   17bbb     C6  480   2.576   4.015   7.477  0.6815 -0.1001 -0.1790
   17bbb    H11  481   2.543   4.041   7.375  0.0514 -1.8186 -0.4640
   17bbb    H12  482   2.563   3.906   7.487 -0.0232  0.0791  1.0025
   17bbb     C7  483   2.624   4.430   7.616 -0.6390  0.0762 -0.8039
   17bbb    H13  484   2.668   4.352   7.553 -2.1096  1.2011 -3.4104
   17bbb    H14  485   2.686   4.440   7.706 -1.5254  0.1703 -0.1933
   17bbb     C8  486   2.724   4.041   7.464 -0.7218 -0.6534  0.2018
   17bbb    H15  487   2.768   4.054   7.564  0.1996 -0.3638 -0.2345
   17bbb    H16  488   2.728   4.134   7.406  0.8471  0.8264  2.5222
   17bbb     C9  489   2.744   3.934   7.978 -0.4260  0.6558 -0.2523
   17bbb    H17  490   2.797   3.878   7.900  0.3243 -1.6009  1.7546
   17bbb    H18  491   2.671   3.856   8.004 -0.3767 -0.2790 -2.6852
   17bbb     O1  492   2.606   4.559   7.556 -0.0252 -0.4266 -0.3521
   18bbb     N1  493   2.923   5.837   7.750 -0.2690 -0.7119 -0.7504
   18bbb     C1  494   3.018   5.862   7.865 -0.1031  0.3445  0.4091
   18bbb     H1  495   3.041   5.969   7.860  2.7816 -0.1916  0.4609
   18bbb     H2  496   3.113   5.809   7.859  0.1352  0.7000  0.9695
   18bbb     C2  497   2.800   5.925   7.735 -0.4656  0.6510 -0.5000
   18bbb     H3  498   2.741   5.932   7.827 -0.2953  0.7552 -0.3973
   18bbb     H4  499   2.727   5.866   7.679  1.0781 -2.5392  0.5774
   18bbb     C3  500   2.909   5.694   7.733  0.5737  0.1947 -0.6047
   18bbb     H5  501   2.836   5.650   7.802 -0.1647 -1.2279 -2.1859
   18bbb     H6  502   2.997   5.646   7.777 -0.9163  0.7260  3.3814
   18bbb     C4  503   2.883   5.634   7.595 -0.7481  0.7824 -0.5486
   18bbb     H7  504   2.964   5.670   7.529  0.2933  0.6832  0.6406
   18bbb     H8  505   2.785   5.673   7.567 -0.2957  2.6707  0.3188
   18bbb     C5  506   2.957   5.823   8.004 -0.0401  0.0285 -0.2989
   18bbb     H9  507   2.945   5.715   8.020  0.1202 -0.3387 -2.3393
   18bbb    H10  508   2.856   5.865   8.002 -0.2422 -0.4588 -0.4737
   18bbb     C6  509   2.842   6.063   7.688  0.3397  0.0392 -0.6527
   18bbb    H11  510   2.921   6.059   7.612 -0.4531 -0.8463 -1.4569
   18bbb    H12  511   2.888   6.127   7.765 -1.5326  1.6699 -0.7969
   18bbb     C7  512   2.886   5.480   7.589 -1.1192  0.6988 -0.2379
   18bbb    H13  513   2.962   5.434   7.653 -2.7496 -0.1329  1.1655
   18bbb    H14  514   2.898   5.454   7.483  0.7320 -0.8746  0.3063
   18bbb     C8  515   2.725   6.149   7.642  0.1743  0.0620  0.7024
   18bbb    H15  516   2.670   6.097   7.563 -2.3900 -1.2038  3.1412
   18bbb    H16  517   2.765   6.244   7.605 -1.7991  1.0337  0.9572
   18bbb     C9  518   3.030   5.890   8.121 -0.1562 -0.3301  1.1745
   18bbb    H17  519   3.131   5.846   8.120  0.7162  1.5022  2.0166
   18bbb    H18  520   2.984   5.858   8.215  2.4377  1.0239  3.0503
   18bbb     O1  521   2.746   5.435   7.616 -0.7494  0.2694 -0.0565
   19bbb     N1  522   2.429   4.755   6.544  0.3052 -0.9264 -0.2700
   19bbb     C1  523   2.433   4.802   6.400 -0.0968  0.4440  0.7782
   19bbb     H1  524   2.472   4.903   6.386  1.1965 -0.2756 -1.1791
   19bbb     H2  525   2.331   4.810   6.362  0.4449  2.6791 -0.3306
   19bbb     C2  526   2.559   4.748   6.614 -0.2160 -1.0648  0.1596
   19bbb     H3  527   2.624   4.672   6.570  2.3987  3.0320 -4.0438
   19bbb     H4  528   2.559   4.734   6.723 -0.2571  1.2439  0.5131
   19bbb     C3  529   2.333   4.830   6.630 -0.5682  0.2961  0.5163
   19bbb     H5  530   2.339   4.936   6.603  0.1536  0.0121 -0.5140
   19bbb     H6  531   2.350   4.823   6.738 -0.6323 -1.2224  0.4421
   19bbb     C4  532   2.183   4.788   6.595 -0.4238 -0.6224  0.0392
   19bbb     H7  533   2.184   4.679   6.612  3.2316 -1.0963 -2.0639
   19bbb     H8  534   2.149   4.792   6.491 -1.6536  4.0615  0.4253
   19bbb     C5  535   2.510   4.717   6.293  0.4239  0.8141  0.6783
   19bbb     H9  536   2.476   4.612   6.292 -0.5911  1.1279 -0.3897
   19bbb    H10  537   2.617   4.715   6.317  0.7951  0.9174 -0.8712
   19bbb     C6  538   2.637   4.889   6.611  0.5528 -0.1605  0.3037
   19bbb    H11  539   2.606   4.958   6.531  2.0143  0.7838  0.5200
   19bbb    H12  540   2.740   4.863   6.584  2.2207  1.9225  3.9448
   19bbb     C7  541   2.081   4.859   6.688 -0.5411  0.2039  0.2322
   19bbb    H13  542   1.981   4.822   6.662 -0.2780 -1.5811  1.5414
   19bbb    H14  543   2.079   4.966   6.662 -2.8259  0.4298  1.0897
   19bbb     C8  544   2.652   4.968   6.737 -0.3462 -0.4209 -0.3924
   19bbb    H15  545   2.548   4.991   6.763 -0.9694  0.9970 -3.6837
   19bbb    H16  546   2.709   5.059   6.715 -0.4256 -0.6292 -1.4820
   19bbb     C9  547   2.497   4.786   6.156  0.9215 -0.0796 -0.9974
   19bbb    H17  548   2.579   4.859   6.158  1.2752 -0.4219 -2.1335
   19bbb    H18  549   2.403   4.840   6.143 -0.3704 -2.1472 -0.6804
   19bbb     O1  550   2.098   4.838   6.827 -0.1881  0.5919 -0.5526
   20bbb     N1  551   1.001   4.710   7.593  0.2417  0.5268  0.0459
   20bbb     C1  552   0.862   4.769   7.567 -0.1030 -0.5614  0.3304
   20bbb     H1  553   0.781   4.701   7.598  0.1019 -0.2200  1.6296
   20bbb     H2  554   0.850   4.788   7.459  1.0013  1.3014  0.4957
   20bbb     C2  555   0.996   4.559   7.582  0.5220  0.0049  0.0233
   20bbb     H3  556   1.098   4.521   7.569  1.3398  1.7272  1.1594
   20bbb     H4  557   0.939   4.530   7.493 -1.0005  0.0544  0.9465
   20bbb     C3  558   1.111   4.785   7.533  0.1980  0.1542 -0.5156
   20bbb     H5  559   1.110   4.891   7.563 -0.4205  0.1749 -0.5817
   20bbb     H6  560   1.100   4.787   7.424 -2.3668 -2.0683 -0.4300
   20bbb     C4  561   1.248   4.723   7.579 -0.2958  0.1724  1.2752
   20bbb     H7  562   1.271   4.629   7.527 -0.8825  0.4362  0.5078
   20bbb     H8  563   1.255   4.700   7.686 -0.2681  0.6525  1.3767
   20bbb     C5  564   0.841   4.895   7.648 -0.0467  0.2944 -0.6105
   20bbb     H9  565   0.743   4.933   7.614 -1.1933 -0.5934  1.5196
   20bbb    H10  566   0.910   4.976   7.624  0.6977  0.0038  0.4909
   20bbb     C6  567   0.937   4.476   7.702  0.0058 -0.1203  0.3210
   20bbb    H11  568   0.889   4.380   7.676  0.3315 -0.5128  1.1414
   20bbb    H12  569   0.855   4.543   7.732  0.8886  1.6730 -1.1054
   20bbb     C7  570   1.359   4.822   7.538  0.3077 -0.0903  0.0940
   20bbb    H13  571   1.374   4.891   7.622 -0.4390 -0.7430  0.7798
   20bbb    H14  572   1.332   4.879   7.448 -2.9972 -0.4292  0.7486
   20bbb     C8  573   1.046   4.462   7.810  0.1812 -0.6360 -0.4656
   20bbb    H15  574   0.990   4.461   7.904 -0.4076  0.1787 -0.7905
   20bbb    H16  575   1.110   4.551   7.807  1.1146 -1.2204  1.0086
   20bbb     C9  576   0.835   4.856   7.798  0.3981  0.1258 -0.6720
   20bbb    H17  577   0.881   4.931   7.864  0.3886  0.9374 -1.5653
   20bbb    H18  578   0.887   4.761   7.810 -0.5298 -0.5078 -1.5153
   20bbb     O1  579   1.481   4.749   7.528  0.5611  0.4378 -0.0575
   21bbb     N1  580   2.860   6.396   8.119 -0.4347  0.0109  0.1384
   21bbb     C1  581   2.887   6.421   7.972 -0.1770  0.3822  0.6275
   21bbb     H1  582   2.795   6.450   7.920 -0.6477  0.0582  1.2599
   21bbb     H2  583   2.924   6.323   7.940  0.0007  0.7675 -0.3690
   21bbb     C2  584   2.845   6.521   8.198 -0.2340  0.7821 -0.3654
   21bbb     H3  585   2.753   6.574   8.170 -2.4001 -1.2407  2.3664
   21bbb     H4  586   2.927   6.588   8.170 -0.1810  1.3826  1.1075
   21bbb     C3  587   2.784   6.280   8.164  0.7983  0.7839  0.2495
   21bbb     H5  588   2.795   6.252   8.270  0.8046 -1.1656 -0.2179
   21bbb     H6  589   2.836   6.195   8.120  0.5340  0.9794 -0.4531
   21bbb     C4  590   2.631   6.285   8.124 -0.2540 -0.1619  0.2047
   21bbb     H7  591   2.625   6.282   8.015  0.8080 -2.9610  0.1396
   21bbb     H8  592   2.587   6.380   8.157  1.4806  1.2065 -1.2297
   21bbb     C5  593   2.999   6.525   7.934  0.0851  0.1811  0.2811
   21bbb     H9  594   3.084   6.517   8.003  0.2042  4.0600  0.8300
   21bbb    H10  595   2.961   6.628   7.928 -1.0682 -0.3103 -2.0271
   21bbb     C6  596   2.833   6.503   8.357  0.3010 -0.9018  0.3071
   21bbb    H11  597   2.747   6.448   8.396 -0.7119  1.2959  1.3808
   21bbb    H12  598   2.812   6.604   8.394 -0.9497  0.0371 -2.6497
   21bbb     C7  599   2.550   6.177   8.186  0.0826 -0.0051 -0.1201
   21bbb    H13  600   2.443   6.192   8.169  0.2867  1.5597 -0.1944
   21bbb    H14  601   2.571   6.175   8.293 -2.7021  0.7332  0.5210
   21bbb     C8  602   2.957   6.447   8.419  0.0230  0.1281 -0.7796
   21bbb    H15  603   3.026   6.404   8.346  0.0213 -0.2934 -0.5347
   21bbb    H16  604   2.923   6.365   8.484 -1.1351  1.4209  0.3112
   21bbb     C9  605   3.044   6.510   7.786 -0.3449  0.0433 -0.3343
   21bbb    H17  606   3.111   6.595   7.769  0.1589 -0.3580 -0.3821
   21bbb    H18  607   2.957   6.525   7.721 -1.9885 -0.6311  1.6194
   21bbb     O1  608   2.589   6.054   8.124  0.1619  0.4143  0.4332
   22bbb     N1  609   2.031   5.191   7.468 -0.6282 -0.0268 -0.7460
   22bbb     C1  610   2.048   5.149   7.324  0.1134  0.0342  0.2592
   22bbb     H1  611   1.991   5.056   7.314 -2.0541  1.0411  2.2502
   22bbb     H2  612   2.151   5.115   7.310  0.2219  0.4155  0.1278
   22bbb     C2  613   2.072   5.074   7.559 -0.0827 -0.5177 -0.1487
   22bbb     H3  614   2.179   5.050   7.561 -0.1694 -0.9117  0.9892
   22bbb     H4  615   2.023   4.981   7.527 -0.7343 -0.9312  1.8478
   22bbb     C3  616   2.083   5.326   7.509 -0.2332  0.8421 -0.0795
   22bbb     H5  617   2.063   5.340   7.616 -2.3388 -1.6678 -0.0434
   22bbb     H6  618   2.038   5.405   7.447 -1.1576  0.0409 -0.4568
   22bbb     C4  619   2.232   5.328   7.485 -0.1052 -0.7090 -0.8996
   22bbb     H7  620   2.269   5.296   7.387  2.5565 -1.2796  0.1985
   22bbb     H8  621   2.289   5.246   7.532 -0.9137 -2.0790 -2.2343
   22bbb     C5  622   2.010   5.245   7.211  0.1564  0.5230 -0.0430
   22bbb     H9  623   2.067   5.338   7.221 -2.1424  1.9276  0.6438
   22bbb    H10  624   1.903   5.269   7.208 -0.3896 -1.5479 -3.7925
   22bbb     C6  625   2.024   5.098   7.700  0.5928  0.7651 -0.8229
   22bbb    H11  626   1.918   5.126   7.706  0.9796  2.6611 -2.1535
   22bbb    H12  627   2.087   5.172   7.752 -1.1245  1.2915  0.6252
   22bbb     C7  628   2.296   5.468   7.527  0.4797 -0.5156 -0.9565
   22bbb    H13  629   2.223   5.547   7.509 -0.0799 -0.8574 -0.2301
   22bbb    H14  630   2.393   5.471   7.474 -0.0934 -0.4304 -2.0319
   22bbb     C8  631   2.026   4.976   7.805  0.3145 -0.7746  0.2330
   22bbb    H15  632   2.119   4.919   7.793  1.0710  0.9411 -3.7568
   22bbb    H16  633   1.940   4.916   7.773 -1.0801  0.6390  1.1728
   22bbb     C9  634   2.047   5.175   7.079  0.0802  0.2814  0.2967
   22bbb    H17  635   1.998   5.226   6.995 -0.9535  0.6975  1.1338
   22bbb    H18  636   2.017   5.070   7.082  1.1720 -0.0279  1.0181
   22bbb     O1  637   2.331   5.468   7.669 -0.3996  0.5300  0.5430
   23ccc     C1  638   2.032   1.582   8.925 -0.3698 -0.4013  0.1072
   23ccc     H1  639   1.975   1.670   8.955  0.6087 -0.7394  3.3314
   23ccc     H2  640   2.121   1.579   8.987  0.1988 -3.2680 -0.6767
   23ccc     C2  641   2.077   1.588   8.785 -0.1154  0.0986 -0.5679
   23ccc     H3  642   2.111   1.488   8.757  0.5060  0.1051  0.1457
   23ccc     H4  643   2.002   1.617   8.710 -0.6779  2.4102  0.8043
   23ccc     C3  644   2.198   1.684   8.765 -0.7757 -0.2994 -0.3013
   23ccc     H5  645   2.213   1.692   8.657  1.1967 -0.4438 -0.0745
   23ccc     H6  646   2.288   1.652   8.819  0.1544 -0.0669 -1.6608
   23ccc     N1  647   1.944   1.462   8.968  0.2669  0.2128 -0.0779
   23ccc     H7  648   2.002   1.379   8.989  1.7914  1.3892  0.6055
   23ccc     H8  649   1.882   1.479   9.049  0.0461  0.2122 -0.2465
   23ccc     O1  650   2.149   1.815   8.807  0.1804  0.4729 -0.1632
   23ccc    H17  651   1.872   1.448   8.896 -1.4520  1.2197  1.3625
   24ccc     C1  652   2.565   1.323   8.517  0.1403  0.5373 -0.2633
   24ccc     H1  653   2.623   1.414   8.529 -0.8198  1.3778 -1.6783
   24ccc     H2  654   2.589   1.289   8.416 -0.5260  1.6699 -0.8199
   24ccc     C2  655   2.413   1.348   8.541  0.3070 -0.6054 -0.1593
   24ccc     H3  656   2.360   1.273   8.482  0.8658  0.4221 -2.0444
   24ccc     H4  657   2.398   1.339   8.649  0.9375  2.2003  0.2441
   24ccc     C3  658   2.352   1.484   8.491  0.5967 -0.3735  0.6437
   24ccc     H5  659   2.245   1.495   8.514  0.1228 -0.2927 -1.4195
   24ccc     H6  660   2.360   1.478   8.382 -1.9705  1.6271  0.2623
   24ccc     N1  661   2.634   1.228   8.609 -0.0810  0.8209 -0.3513
   24ccc     H7  662   2.659   1.273   8.698 -0.0329 -1.8332  1.0752
   24ccc     H8  663   2.582   1.140   8.624  0.9413  0.5768  2.3892
   24ccc     O1  664   2.433   1.592   8.528  0.0711 -0.3853 -0.0430
   24ccc    H17  665   2.722   1.197   8.566  0.3817  1.1753  0.3220
   25ccc     C1  666   2.568   2.608   9.500 -0.0536 -0.2596  0.2557
   25ccc     H1  667   2.538   2.536   9.424 -1.4655  0.8007 -0.2409
   25ccc     H2  668   2.492   2.600   9.579  0.7609  1.4532  1.2696
   25ccc     C2  669   2.561   2.750   9.440 -0.0641  0.2778 -0.3400
   25ccc     H3  670   2.596   2.814   9.522  1.7369 -0.4920 -0.4621
   25ccc     H4  671   2.630   2.763   9.356  0.9655 -1.4377  0.1973
   25ccc     C3  672   2.416   2.791   9.392 -0.1767  0.2891 -1.1445
   25ccc     H5  673   2.413   2.896   9.358  2.4838  1.3134  1.3218
   25ccc     H6  674   2.343   2.790   9.474 -1.2003  0.8604 -2.0131
   25ccc     N1  675   2.707   2.590   9.549  0.2717 -0.1114 -0.1667
   25ccc     H7  676   2.711   2.493   9.586 -0.8505  0.9881  3.2582
   25ccc     H8  677   2.776   2.610   9.476 -0.5890  0.2896 -0.8832
   25ccc     O1  678   2.366   2.693   9.301  0.3141  0.2098 -0.1185
   25ccc    H17  679   2.720   2.642   9.637 -0.4071 -1.7935  1.0002
   26ccc     C1  680   1.685   2.054   8.866  0.8043  0.0175 -0.2678
   26ccc     H1  681   1.583   2.068   8.829  0.6890 -1.2766 -0.4831
   26ccc     H2  682   1.664   2.058   8.973 -1.2320  0.1641 -0.6230
   26ccc     C2  683   1.791   2.155   8.817 -0.6830  0.5778 -0.4183
   26ccc     H3  684   1.780   2.157   8.708  0.5285  1.3544 -0.5509
   26ccc     H4  685   1.765   2.259   8.843 -0.4983  1.6012 -3.7903
   26ccc     C3  686   1.937   2.115   8.856 -0.1736  0.0713  0.2971
   26ccc     H5  687   1.970   2.029   8.797 -1.1141 -0.6925  0.8565
   26ccc     H6  688   1.948   2.085   8.961 -0.9876 -0.1166  0.3319
   26ccc     N1  689   1.718   1.910   8.821 -0.2234 -0.4330 -0.7034
   26ccc     H7  690   1.754   1.910   8.725  1.2086 -1.3639 -0.1937
   26ccc     H8  691   1.796   1.877   8.880 -1.1556 -0.6004  0.5016
   26ccc     O1  692   2.027   2.219   8.834  0.3461  0.2734 -0.3944
   26ccc    H17  693   1.639   1.844   8.827 -0.6667  0.1956  1.8974
   27ccc     C1  694   1.146   4.446   6.617  0.1545  0.7026 -0.4594
   27ccc     H1  695   1.078   4.364   6.591  1.4681 -1.3257  2.0531
   27ccc     H2  696   1.235   4.446   6.553 -0.3864 -0.3234 -1.2466
   27ccc     C2  697   1.167   4.418   6.766 -0.1478 -0.1329  0.2020
   27ccc     H3  698   1.069   4.419   6.816  0.1902 -0.5042  0.8937
   27ccc     H4  699   1.200   4.314   6.778  1.2489  0.2315 -0.2471
   27ccc     C3  700   1.260   4.523   6.835 -0.1445  0.2121 -0.6292
   27ccc     H5  701   1.248   4.517   6.943 -0.5018  1.4129 -0.5834
   27ccc     H6  702   1.235   4.628   6.815 -1.2340 -0.0446 -0.6558
   27ccc     N1  703   1.072   4.575   6.591  0.5249 -0.3174  0.0053
   27ccc     H7  704   0.987   4.592   6.647  1.6507  1.9675  1.1817
   27ccc     H8  705   1.123   4.663   6.604 -0.7796  0.4621  0.0713
   27ccc     O1  706   1.401   4.498   6.809 -0.1602  0.2648 -0.5474
   27ccc    H17  707   1.044   4.583   6.493 -0.8611  0.7574  0.4523
   28ccc     C1  708   2.368   4.462   6.517  0.5284 -0.2735  0.0837
   28ccc     H1  709   2.457   4.523   6.505 -0.6555  1.7784  1.1689
   28ccc     H2  710   2.294   4.541   6.520  0.7648 -0.0650  0.5564
   28ccc     C2  711   2.365   4.354   6.635 -0.4418 -0.0947  0.2407
   28ccc     H3  712   2.285   4.281   6.625  0.0744 -0.3589 -3.0114
   28ccc     H4  713   2.461   4.301   6.631 -0.1174  0.4334  0.7620
   28ccc     C3  714   2.365   4.424   6.771 -0.4920 -0.0020 -0.0920
   28ccc     H5  715   2.334   4.529   6.759  0.2599  0.1211 -1.1356
   28ccc     H6  716   2.468   4.422   6.809 -0.3280  0.0142 -0.5221
   28ccc     N1  717   2.341   4.391   6.386 -0.2214  0.3541  0.4791
   28ccc     H7  718   2.294   4.300   6.398  2.8160 -1.7054 -1.8953
   28ccc     H8  719   2.282   4.446   6.322 -2.9208  0.0541  2.5319
   28ccc     O1  720   2.275   4.361   6.868 -0.4762 -0.1646  0.1078
   28ccc    H17  721   2.431   4.370   6.341 -0.3440  0.5475  0.1372
   29ccc     C1  722   3.092   4.315   6.397 -0.1495  0.2671  0.1744
   29ccc     H1  723   3.189   4.290   6.440  0.5474 -3.5632 -3.0714
   29ccc     H2  724   3.081   4.424   6.402 -0.2440  0.2221  1.5477
   29ccc     C2  725   2.991   4.222   6.471  0.3800  0.2833  0.2804
   29ccc     H3  726   2.893   4.262   6.441  0.5557  3.2463  3.0525
   29ccc     H4  727   3.002   4.118   6.439 -2.3722 -0.1029  0.3095
   29ccc     C3  728   3.001   4.215   6.625 -0.3633  0.1901  0.2239
   29ccc     H5  729   2.986   4.313   6.672 -0.8569 -0.6633  1.9316
   29ccc     H6  730   3.102   4.178   6.648  0.2350 -0.4210 -2.8711
   29ccc     N1  731   3.116   4.266   6.249  0.0578  0.0287  0.2177
   29ccc     H7  732   3.194   4.309   6.198  0.4662 -2.2613 -1.2210
   29ccc     H8  733   3.134   4.165   6.250 -0.4624 -0.0700 -0.2002
   29ccc     O1  734   2.899   4.139   6.683  0.2215 -0.6218 -0.1917
   29ccc    H17  735   3.036   4.283   6.187 -1.6210 -3.3764  1.1872
   30ccc     C1  736   2.002   3.839   6.431 -0.3770  0.2148 -0.3052
   30ccc     H1  737   1.961   3.933   6.394 -0.3087  0.1234 -0.6200
   30ccc     H2  738   1.932   3.785   6.494  0.0875  0.0252  0.0563
   30ccc     C2  739   2.124   3.871   6.508 -0.5188  0.4477  0.8790
   30ccc     H3  740   2.197   3.791   6.527 -0.0754  0.5580 -0.3137
   30ccc     H4  741   2.177   3.946   6.448  0.6651 -0.4104  0.8204
   30ccc     C3  742   2.085   3.934   6.638  0.9944 -0.0291  0.4020
   30ccc     H5  743   2.013   3.868   6.689  0.8839 -0.3795 -0.1922
   30ccc     H6  744   2.033   4.027   6.612  1.2251 -0.4286 -1.6862
   30ccc     N1  745   2.024   3.749   6.314  0.6476 -0.2747 -0.6853
   30ccc     H7  746   2.048   3.654   6.345  0.4722  0.4446  1.8159
   30ccc     H8  747   1.937   3.740   6.260  0.4982  0.2248 -0.5364
   30ccc     O1  748   2.208   3.951   6.721  0.1118  0.1608  0.1631
   30ccc    H17  749   2.097   3.784   6.250  0.7666  0.0651 -0.3621
   31ccc     C1  750   2.556   4.143   8.667  1.0834  0.4316 -0.1526
   31ccc     H1  751   2.459   4.155   8.618  0.5692  3.0251  1.3310
   31ccc     H2  752   2.537   4.142   8.774  0.3078  0.8667 -0.2763
   31ccc     C2  753   2.630   4.271   8.620  0.2347  0.1700  0.2744
   31ccc     H3  754   2.716   4.274   8.687 -0.0993  2.5204  0.6684
   31ccc     H4  755   2.674   4.241   8.524  1.3187 -0.2906  0.8923
   31ccc     C3  756   2.551   4.402   8.630  0.6694 -0.2669 -0.0849
   31ccc     H5  757   2.622   4.482   8.607  0.9142 -0.6027 -0.5200
   31ccc     H6  758   2.527   4.425   8.734 -0.6161  0.4011 -0.5023
   31ccc     N1  759   2.625   4.017   8.620 -0.2913  0.4261 -0.4014
   31ccc     H7  760   2.639   4.010   8.518  0.7845  0.3995 -0.2553
   31ccc     H8  761   2.708   3.972   8.662 -2.2398 -1.6897  1.5322
   31ccc     O1  762   2.441   4.385   8.538 -0.8014 -0.0370  0.3606
   31ccc    H17  763   2.560   3.936   8.628  0.5440 -0.3082 -0.8647
   32ccc     C1  764   1.453   4.549   8.762  0.6825 -0.2185 -0.3859
   32ccc     H1  765   1.488   4.653   8.758 -0.3319  0.2274  1.3052
   32ccc     H2  766   1.536   4.484   8.791  1.6822  1.2435  0.2061
   32ccc     C2  767   1.397   4.531   8.625  0.2370 -0.3116 -0.5768
   32ccc     H3  768   1.370   4.425   8.611  0.0744 -0.4257  0.4891
   32ccc     H4  769   1.303   4.584   8.605 -0.0299 -1.0846 -1.4514
   32ccc     C3  770   1.493   4.561   8.506  0.3049 -0.3385 -0.7430
   32ccc     H5  771   1.513   4.667   8.491 -1.4089 -0.0172 -0.9174
   32ccc     H6  772   1.450   4.530   8.410 -1.1944 -2.8138  0.6071
   32ccc     N1  773   1.350   4.545   8.871 -0.1324 -0.1348  0.6345
   32ccc     H7  774   1.401   4.568   8.958 -1.6693  0.7813  1.3271
   32ccc     H8  775   1.276   4.616   8.870 -1.8233 -1.8112  0.7255
   32ccc     O1  776   1.624   4.495   8.521 -0.4098  0.2378  0.0162
   32ccc    H17  777   1.306   4.453   8.889 -2.5594  0.4549 -1.6296
   33ccc     C1  778   1.734   4.144   9.114  0.5363 -0.1179 -0.0909
   33ccc     H1  779   1.795   4.203   9.183 -1.7456  1.7700  0.4452
   33ccc     H2  780   1.799   4.115   9.031  0.7512 -0.7709  0.3050
   33ccc     C2  781   1.610   4.219   9.065  0.2784 -0.2695  0.0931
   33ccc     H3  782   1.515   4.164   9.065 -0.2257  0.5314  1.7927
   33ccc     H4  783   1.588   4.306   9.128  0.2431 -0.6606  0.6254
   33ccc     C3  784   1.630   4.282   8.920 -0.0348 -0.5259  0.4579
   33ccc     H5  785   1.714   4.353   8.918  0.1454 -0.7523 -0.6250
   33ccc     H6  786   1.538   4.338   8.895  0.2651 -0.6787 -1.1149
   33ccc     N1  787   1.691   4.018   9.181  0.3518  1.0611 -0.8247
   33ccc     H7  788   1.629   4.036   9.262 -0.1386 -0.2337 -0.8833
   33ccc     H8  789   1.648   3.948   9.119 -1.0438  0.8728  0.3067
   33ccc     O1  790   1.662   4.168   8.838 -0.1970  0.3899  0.1778
   33ccc    H17  791   1.776   3.971   9.215  0.9454  1.6441 -1.4781
   34ccc     C1  792   1.985   4.388   9.382 -0.3403  0.1864  0.0135
   34ccc     H1  793   2.063   4.463   9.372 -0.5773  0.5843  1.0332
   34ccc     H2  794   2.027   4.293   9.349  0.9397  0.6033  0.3914
   34ccc     C2  795   1.869   4.441   9.294  0.2180 -0.0131 -0.4145
   34ccc     H3  796   1.783   4.374   9.296 -1.3204  1.8372 -1.1301
   34ccc     H4  797   1.838   4.539   9.333  1.6673 -0.1766  1.2877
   34ccc     C3  798   1.922   4.477   9.153 -0.6946  0.4155 -0.3340
   34ccc     H5  799   1.995   4.558   9.158  0.0356 -0.1627 -1.2584
   34ccc     H6  800   1.837   4.510   9.091 -0.9373 -0.2839 -0.3924
   34ccc     N1  801   1.951   4.375   9.531 -0.2771  0.0099 -0.5590
   34ccc     H7  802   2.029   4.324   9.574 -1.3661 -0.8754  0.4284
   34ccc     H8  803   1.954   4.467   9.577 -1.0020 -1.4314  2.5867
   34ccc     O1  804   1.981   4.359   9.088 -0.3175 -0.6746 -0.1272
   34ccc    H17  805   1.865   4.324   9.557  1.7015 -2.2525  2.0851
   35ccc     C1  806   3.150   3.878   7.332  0.6157 -0.6259  0.0979
   35ccc     H1  807   3.155   3.917   7.433 -3.2663 -1.3659  0.7558
   35ccc     H2  808   3.171   3.956   7.258 -4.1910 -1.1239 -2.2168
   35ccc     C2  809   2.995   3.847   7.326 -0.3757 -0.1020 -0.2211
   35ccc     H3  810   2.972   3.815   7.224  2.2463  0.6926 -1.1246
   35ccc     H4  811   2.977   3.770   7.402  0.8263  0.6514  0.8724
   35ccc     C3  812   2.923   3.977   7.362  0.5664 -0.4249  0.5824
   35ccc     H5  813   2.929   4.056   7.287  2.1873 -0.2092  0.8996
   35ccc     H6  814   2.971   4.018   7.452 -0.0242  1.1624  0.1972
   35ccc     N1  815   3.248   3.760   7.326  0.0881  0.6366 -0.2030
   35ccc     H7  816   3.240   3.712   7.417  0.2799  0.8214 -0.0898
   35ccc     H8  817   3.215   3.699   7.249  0.7306 -2.6955  1.9524
   35ccc     O1  818   2.784   3.942   7.384 -0.0512 -0.3631 -0.1920
   35ccc    H17  819   3.340   3.803   7.307  0.3172  1.0164  1.6696
   36ccc     C1  820   3.074   3.997   8.288 -0.6532 -0.1224  0.0589
   36ccc     H1  821   3.037   3.993   8.391 -0.8321 -0.6268 -0.0220
   36ccc     H2  822   3.057   4.088   8.231  1.0109 -0.5765 -1.2614
   36ccc     C2  823   3.028   3.882   8.200  0.4002  0.2908  0.2618
   36ccc     H3  824   3.090   3.884   8.110  0.6192 -1.7968  0.3258
   36ccc     H4  825   3.073   3.794   8.248  0.6721 -1.1521 -2.4468
   36ccc     C3  826   2.878   3.861   8.166  0.5676  1.0406  0.0029
   36ccc     H5  827   2.819   3.848   8.257  0.5067  2.7369  0.2390
   36ccc     H6  828   2.865   3.771   8.105  0.3328  0.6862  0.5788
   36ccc     N1  829   3.229   3.996   8.309 -0.1986  0.2780  0.0859
   36ccc     H7  830   3.260   4.068   8.375  0.2212  1.0726 -0.9532
   36ccc     H8  831   3.267   3.905   8.340  1.1641  0.8826  0.2567
   36ccc     O1  832   2.845   3.971   8.075  0.2628 -0.7848  0.2989
   36ccc    H17  833   3.277   4.007   8.219 -1.6259  0.2237 -0.7112
   37ccc     C1  834   2.359   6.439   7.722  0.4343 -0.2798 -0.0288
   37ccc     H1  835   2.263   6.388   7.707  1.0787 -1.6019  0.2132
   37ccc     H2  836   2.391   6.477   7.625 -0.1407  1.8593  0.5421
   37ccc     C2  837   2.460   6.348   7.789  0.0352 -1.1867 -0.1094
   37ccc     H3  838   2.550   6.405   7.815 -1.5518  0.2944  2.6477
   37ccc     H4  839   2.428   6.334   7.893 -0.0330  0.3239  0.0968
   37ccc     C3  840   2.510   6.222   7.710  0.1328 -0.9521  0.0827
   37ccc     H5  841   2.501   6.246   7.603 -1.4815 -0.1144  0.3781
   37ccc     H6  842   2.441   6.141   7.737  0.2774 -1.2558 -0.4276
   37ccc     N1  843   2.331   6.562   7.810  0.1740  0.1799 -0.5394
   37ccc     H7  844   2.295   6.643   7.758 -2.7233 -1.5056 -1.3944
   37ccc     H8  845   2.254   6.526   7.869 -0.2988  0.0824 -1.2026
   37ccc     O1  846   2.640   6.181   7.752 -0.8305 -0.1709 -0.1481
   37ccc    H17  847   2.412   6.586   7.869 -1.2714  2.3830  0.6926
   38ccc     C1  848   3.279   6.172   8.065 -0.1633 -0.0437  0.2369
   38ccc     H1  849   3.228   6.166   7.968  0.5582  2.0061 -0.3193
   38ccc     H2  850   3.313   6.072   8.090  0.7802 -0.3838 -2.0868
   38ccc     C2  851   3.180   6.221   8.173  0.0692  0.3344 -0.0469
   38ccc     H3  852   3.229   6.267   8.260  0.3547 -0.1487  0.0525
   38ccc     H4  853   3.109   6.293   8.131 -1.0803 -0.4378  0.5001
   38ccc     C3  854   3.084   6.108   8.216  0.9924  0.4757  0.2285
   38ccc     H5  855   3.007   6.159   8.275 -0.4523  0.1570 -1.3118
   38ccc     H6  856   3.145   6.039   8.275  3.0637 -1.1528 -3.4817
   38ccc     N1  857   3.413   6.245   8.047  0.1690  0.0449 -0.3572
   38ccc     H7  858   3.410   6.342   8.012  0.8220  0.9980  2.0722
   38ccc     H8  859   3.462   6.242   8.137  1.3895  0.3613 -0.9887
   38ccc     O1  860   3.039   6.032   8.101 -0.3381 -0.1746  0.2254
   38ccc    H17  861   3.470   6.198   7.975 -0.0932  2.8387 -2.5816
   39ccc     C1  862   2.963   4.874   6.985  0.3851 -0.5574  0.3624
   39ccc     H1  863   2.942   4.836   6.884  0.8332  0.1247  0.0073
   39ccc     H2  864   3.023   4.805   7.045 -0.7128 -2.6367 -0.7922
   39ccc     C2  865   2.825   4.901   7.051  0.3512  0.1799  0.4086
   39ccc     H3  866   2.785   4.799   7.067  0.0353 -0.0257 -1.4809
   39ccc     H4  867   2.835   4.947   7.150 -2.0469  0.9151  0.3881
   39ccc     C3  868   2.735   4.976   6.956 -0.5496 -0.5215 -0.2158
   39ccc     H5  869   2.784   5.072   6.936  1.3005 -1.0356  1.5110
   39ccc     H6  870   2.637   4.994   7.001  0.3108 -1.5157  2.2312
   39ccc     N1  871   3.060   4.998   6.963  0.5079 -0.0077 -0.1792
   39ccc     H7  872   3.089   5.048   7.049 -2.1080  1.1022  0.1754
   39ccc     H8  873   3.146   4.965   6.918  1.4825  1.2980  0.6497
   39ccc     O1  874   2.719   4.895   6.840  0.4131  0.3828 -0.2307
   39ccc    H17  875   3.007   5.070   6.911 -1.7171 -0.0870  1.7990
   40ccc     C1  876   2.757   4.555   5.805  0.6679  1.0911 -0.0767
   40ccc     H1  877   2.831   4.529   5.881  0.0058  0.8611  0.4953
   40ccc     H2  878   2.785   4.655   5.771 -0.5177  1.1124 -1.0637
   40ccc     C2  879   2.624   4.556   5.875  0.9432 -0.1687  0.0342
   40ccc     H3  880   2.544   4.587   5.807  1.5152  0.8370 -0.2075
   40ccc     H4  881   2.602   4.457   5.918  0.5527  0.2319  0.7771
   40ccc     C3  882   2.631   4.646   6.002 -0.7709  0.2912 -0.2825
   40ccc     H5  883   2.686   4.739   5.982 -0.4326  0.1618  0.0345
   40ccc     H6  884   2.688   4.595   6.082  0.3437  2.7000  0.5742
   40ccc     N1  885   2.755   4.457   5.688 -0.3624  0.6113  0.3904
   40ccc     H7  886   2.690   4.482   5.612 -0.6779 -0.1803  0.3865
   40ccc     H8  887   2.845   4.447   5.639  0.0021 -0.3295  1.2263
   40ccc     O1  888   2.501   4.691   6.050 -0.1247 -0.4096  0.3469
   40ccc    H17  889   2.725   4.362   5.715 -1.3657  1.3691  2.0427
   41ccc     C1  890   1.281   4.072   7.865  0.7990 -0.3687 -0.1004
   41ccc     H1  891   1.322   3.984   7.817  0.7996  0.1326 -1.0339
   41ccc     H2  892   1.172   4.060   7.867  0.6706  0.5346 -1.0771
   41ccc     C2  893   1.325   4.205   7.806 -0.0623 -0.1579 -0.4722
   41ccc     H3  894   1.429   4.223   7.837  0.4860 -0.3414 -2.1439
   41ccc     H4  895   1.318   4.200   7.697 -1.2402 -1.6129 -0.3507
   41ccc     C3  896   1.244   4.328   7.850  0.3730 -1.0983  0.9631
   41ccc     H5  897   1.300   4.416   7.818 -0.5691 -0.0128  2.2075
   41ccc     H6  898   1.237   4.334   7.959 -1.6352 -2.4804  0.9719
   41ccc     N1  899   1.323   4.063   8.012 -0.5751 -0.6601 -0.7978
   41ccc     H7  900   1.310   4.153   8.060 -0.1439 -0.0080 -1.8473
   41ccc     H8  901   1.268   3.997   8.068  1.6083 -0.7315  1.4488
   41ccc     O1  902   1.120   4.345   7.782  0.3802 -0.3426  0.4980
   41ccc    H17  903   1.424   4.041   8.010  0.3141  2.8944 -0.7248
   42ccc     C1  904   0.414   4.857   7.965 -0.5670  0.0993 -0.0965
   42ccc     H1  905   0.422   4.898   8.066  2.2180  0.1776 -0.2915
   42ccc     H2  906   0.313   4.816   7.961 -1.3088  1.7567  0.6384
   42ccc     C2  907   0.514   4.748   7.947  0.2821 -0.4987 -0.5087
   42ccc     H3  908   0.504   4.682   8.034  1.0717  0.9953  0.7720
   42ccc     H4  909   0.490   4.695   7.854 -0.6811 -1.8399  0.4455
   42ccc     C3  910   0.659   4.786   7.955  0.1122  0.2398 -0.5556
   42ccc     H5  911   0.718   4.695   7.970  0.4426  0.4882 -0.3474
   42ccc     H6  912   0.677   4.866   8.027 -1.1067 -0.4211  0.5290
   42ccc     N1  913   0.422   4.983   7.886  0.6007 -0.0828 -0.3410
   42ccc     H7  914   0.513   5.031   7.897  0.8594 -0.0468 -2.2873
   42ccc     H8  915   0.416   4.954   7.788 -2.4759 -2.2977  0.3803
   42ccc     O1  916   0.697   4.838   7.830 -0.0298  0.1672 -0.0445
   42ccc    H17  917   0.343   5.047   7.905  0.6416 -0.4173  1.1209
   43ccc     C1  918   3.092   6.750   8.681 -0.4325 -0.2032  0.6581
   43ccc     H1  919   3.029   6.790   8.601  0.2851 -0.7697 -0.2104
   43ccc     H2  920   3.144   6.841   8.712 -0.5633  0.3427 -0.6582
   43ccc     C2  921   3.190   6.646   8.624 -0.1675  0.4855 -0.5016
   43ccc     H3  922   3.242   6.680   8.534  0.8182  2.0375  0.6168
   43ccc     H4  923   3.270   6.630   8.697  1.0051 -1.0238 -2.0325
   43ccc     C3  924   3.122   6.511   8.582  0.3318  0.3481 -0.1460
   43ccc     H5  925   3.069   6.449   8.656  0.1347 -0.1206 -0.6713
   43ccc     H6  926   3.191   6.445   8.527 -0.0381 -0.5878  0.4847
   43ccc     N1  927   3.009   6.713   8.793 -0.2799 -0.0224 -0.3507
   43ccc     H7  928   2.936   6.786   8.801 -0.0915  0.4493 -2.4103
   43ccc     H8  929   2.967   6.619   8.782 -0.2477 -0.3555  1.8705
   43ccc     O1  930   3.019   6.552   8.492  0.2744 -0.3083 -0.0341
   43ccc    H17  931   3.065   6.705   8.878  2.3155 -1.0358 -2.0410
   44ccc     C1  932   3.310   6.203   7.518  0.1843 -0.7572 -0.4599
   44ccc     H1  933   3.383   6.273   7.475  0.7960 -1.2731 -0.2663
   44ccc     H2  934   3.228   6.207   7.446  1.9138 -0.5195 -2.5437
   44ccc     C2  935   3.277   6.260   7.656  0.1712  0.3298 -0.0714
   44ccc     H3  936   3.235   6.180   7.719 -0.4284 -2.2394 -3.4261
   44ccc     H4  937   3.365   6.305   7.702 -0.0331  2.4932 -1.6720
   44ccc     C3  938   3.167   6.362   7.640 -0.3714  0.3961  0.4164
   44ccc     H5  939   3.082   6.332   7.578 -0.0586 -0.5880  0.4491
   44ccc     H6  940   3.207   6.457   7.602  1.4353  0.0750  1.4050
   44ccc     N1  941   3.388   6.074   7.508  0.0017 -0.3422 -0.0237
   44ccc     H7  942   3.330   6.001   7.553 -1.3126 -0.0230 -1.1084
   44ccc     H8  943   3.403   6.036   7.413  0.0758 -0.0412 -0.1304
   44ccc     O1  944   3.110   6.384   7.773  0.2617  0.5827  0.3529
   44ccc    H17  945   3.472   6.073   7.567  0.0592 -3.2671  0.0138
   45ccc     C1  946   1.982   5.165   8.192 -0.0800 -0.3190 -0.1215
   45ccc     H1  947   1.904   5.107   8.143 -0.1870 -0.2662 -0.0134
   45ccc     H2  948   1.966   5.273   8.184  0.8319  0.0001  1.8049
   45ccc     C2  949   2.115   5.114   8.139 -0.2163  0.2356  0.2548
   45ccc     H3  950   2.196   5.179   8.175  0.9266 -1.9055  1.8200
   45ccc     H4  951   2.148   5.016   8.179  0.2113 -0.2653 -1.2603
   45ccc     C3  952   2.121   5.106   7.992  0.3637  0.4873  0.5491
   45ccc     H5  953   2.210   5.053   7.956 -1.9542 -1.8133 -2.4184
   45ccc     H6  954   2.126   5.211   7.960  2.6716  0.0440 -0.7521
   45ccc     N1  955   1.961   5.145   8.337  0.4370 -0.2059 -0.3348
   45ccc     H7  956   1.862   5.173   8.347  0.4366 -0.6897  1.1200
   45ccc     H8  957   1.974   5.047   8.366  0.6304 -0.2258 -0.4831
   45ccc     O1  958   2.003   5.038   7.935 -0.8614  0.4852 -0.1837
   45ccc    H17  959   2.012   5.212   8.397  2.3114 -0.8146 -1.1651
   46ccc     C1  960   2.270   5.362   6.847  0.1430  0.2785  0.0185
   46ccc     H1  961   2.377   5.341   6.855  0.6935  2.1361 -1.7507
   46ccc     H2  962   2.239   5.401   6.944  1.5444  2.6119 -0.3992
   46ccc     C2  963   2.206   5.223   6.816 -0.3607 -0.2477  0.1120
   46ccc     H3  964   2.102   5.243   6.788  0.7187  1.8224 -3.0669
   46ccc     H4  965   2.246   5.171   6.729  0.8608 -0.9042  1.0343
   46ccc     C3  966   2.236   5.126   6.929  0.0835  0.1971 -0.2144
   46ccc     H5  967   2.342   5.098   6.938  0.2558  0.1500 -2.0235
   46ccc     H6  968   2.187   5.029   6.915  0.3897 -0.6695  3.7515
   46ccc     N1  969   2.251   5.470   6.741 -0.2157  0.0616 -0.1267
   46ccc     H7  970   2.153   5.501   6.747 -0.2761  0.3108 -1.9072
   46ccc     H8  971   2.297   5.558   6.766  0.2626  0.1610 -1.2922
   46ccc     O1  972   2.194   5.179   7.056  0.1628  0.1997 -0.7660
   46ccc    H17  973   2.278   5.441   6.646  3.8457 -0.0928  0.9211
   47SOL     OW  974   0.168   3.529   7.469  0.2557  0.3063  0.0090
   47SOL    HW1  975   0.234   3.564   7.528 -0.6546  1.1517  0.5625
   47SOL    HW2  976   0.194   3.560   7.382  1.1351 -0.2230  0.0821
   48SOL     OW  977   4.179   3.947   5.974 -0.1425  0.2192  0.7718
   48SOL    HW1  978   4.098   3.995   5.994 -0.7703  0.3152 -1.5979
   48SOL    HW2  979   4.151   3.878   5.913  1.6315  0.7243 -0.7212
   49SOL     OW  980   2.762   0.971   2.998 -0.1845  0.3898  0.1112
   49SOL    HW1  981   2.835   1.013   3.044 -0.9329  2.0408 -0.1220
   49SOL    HW2  982   2.734   0.901   3.057  1.3148 -0.0317  0.3794
   50SOL     OW  983   6.212   1.681   1.572  0.0753 -0.7782 -0.0387
   50SOL    HW1  984   6.268   1.669   1.649 -0.1599  0.4763  0.3418
   50SOL    HW2  985   6.271   1.713   1.504 -0.1934  0.8170  0.4429
   51SOL     OW  986   0.837   7.776   7.403 -0.3262 -0.0536  0.2759
   51SOL    HW1  987   0.801   7.699   7.357 -1.1837  0.3216  0.2940
   51SOL    HW2  988   0.775   7.846   7.384 -0.2396  0.3227  1.3104
   52SOL     OW  989   0.265   5.407   1.113  0.2702  0.1947  0.2320
   52SOL    HW1  990   0.331   5.380   1.049  1.4763  0.9096  1.1401
   52SOL    HW2  991   0.200   5.337   1.111  0.3747  0.0990 -1.6162
   53SOL     OW  992   5.803   1.720   5.011  0.1769 -0.2598  0.2819
   53SOL    HW1  993   5.866   1.735   5.081  0.7649 -1.6253  0.0911
   53SOL    HW2  994   5.727   1.681   5.055  0.2124 -0.3304  0.2819
   54SOL     OW  995   6.597   6.128   7.130 -0.1496 -0.0890 -0.0841
   54SOL    HW1  996   6.609   6.163   7.218  0.8485 -1.0998  0.2020
   54SOL    HW2  997   6.674   6.157   7.082  0.8927 -2.1032  0.2627
   55SOL     OW  998   4.070   2.674   4.704  0.2081 -0.8854  0.2972
   55SOL    HW1  999   3.982   2.660   4.669  0.5918 -0.4831 -0.9083
   55SOL    HW2 1000   4.086   2.600   4.762  0.1847 -2.5852 -1.7379
   56SOL     OW 1001   5.997   5.066   7.470 -0.6439 -0.4075  0.8391
   56SOL    HW1 1002   5.993   5.158   7.442 -0.0384  0.0323  2.1497
   56SOL    HW2 1003   5.905   5.042   7.485 -0.8342 -0.1314  0.1622
   57SOL     OW 1004   4.455   3.070   6.536 -0.1858 -0.0663  0.6427
   57SOL    HW1 1005   4.514   2.997   6.554  0.2939  0.1437 -0.0492
   57SOL    HW2 1006   4.381   3.030   6.490  0.5582  0.0157 -0.6755
   58SOL     OW 1007   4.268   5.030   1.656 -0.1298  0.0136 -0.0798
   58SOL    HW1 1008   4.233   5.033   1.567  2.0924  0.9463 -1.0016
   58SOL    HW2 1009   4.252   5.117   1.691  0.5385  0.2088 -0.2386
   59SOL     OW 1010   0.736   7.344   6.027  0.6374 -0.1429  0.1775
   59SOL    HW1 1011   0.807   7.388   6.074 -0.4684  2.1422 -0.1758
   59SOL    HW2 1012   0.658   7.361   6.079  0.3001 -2.9315  0.7554
   60SOL     OW 1013   4.776   3.110   2.719  0.1972 -0.2106  0.2696
   60SOL    HW1 1014   4.697   3.083   2.767  0.1396  2.2594  1.7487
   60SOL    HW2 1015   4.775   3.206   2.724  3.9597 -0.0686  1.5648
   61SOL     OW 1016   4.919   2.366   3.810  0.1063  0.7106 -0.0835
   61SOL    HW1 1017   4.914   2.320   3.726  0.7874 -1.1064  0.8169
   61SOL    HW2 1018   4.998   2.331   3.852 -1.2241  0.1163  2.1055
   62SOL     OW 1019   5.320   3.089   1.262 -0.3185 -0.1587  0.1792
   62SOL    HW1 1020   5.336   3.005   1.304 -2.3881 -0.6310  0.1596
   62SOL    HW2 1021   5.349   3.154   1.326  1.2698 -0.8495  0.2116
   63SOL     OW 1022   5.408   3.411   2.311 -0.0385 -0.0822 -0.3600
   63SOL    HW1 1023   5.406   3.493   2.261  0.6726 -0.4280 -0.9827
   63SOL    HW2 1024   5.319   3.376   2.304 -0.2596  0.4741 -0.3615
   64SOL     OW 1025   3.137   5.416   6.173 -0.3924  0.3909 -0.4994
   64SOL    HW1 1026   3.189   5.414   6.093  0.7217 -1.1494  0.2070
   64SOL    HW2 1027   3.169   5.494   6.220  1.1207 -0.3489 -0.2236
   65SOL     OW 1028   7.676   1.909   0.784 -0.3984  0.1594  0.4610
   65SOL    HW1 1029   7.663   1.976   0.717  0.4175 -0.6949 -0.5757
   65SOL    HW2 1030   7.727   1.953   0.852 -1.0707  0.9808  0.4544
   66SOL     OW 1031   4.716   2.451   6.276  0.0423 -0.2400  0.1617
   66SOL    HW1 1032   4.690   2.405   6.356 -2.7264  2.1612  0.8036
   66SOL    HW2 1033   4.679   2.398   6.206  0.3949 -1.0799  0.5877
   67SOL     OW 1034   7.717   7.606   1.464 -0.1180 -0.0028  0.0888
   67SOL    HW1 1035   7.811   7.592   1.460  0.1505  1.6576  0.0109
   67SOL    HW2 1036   7.698   7.622   1.556 -0.2311  0.2403  0.0248
   68SOL     OW 1037   7.645   4.461   0.927 -0.2010  0.5448  0.5566
   68SOL    HW1 1038   7.706   4.443   0.998  0.0499  3.4130  1.2092
   68SOL    HW2 1039   7.561   4.478   0.970 -0.6226  0.0606 -0.0472
   69SOL     OW 1040   3.701   7.464   7.783 -0.1979  0.4112  0.3296
   69SOL    HW1 1041   3.724   7.441   7.872  0.4877  1.3909  0.4227
   69SOL    HW2 1042   3.776   7.436   7.730 -0.7815 -0.5544 -0.0094
   70SOL     OW 1043   3.619   0.113   5.783 -0.2629 -0.1860 -1.2285
   70SOL    HW1 1044   3.671   0.194   5.777 -0.7612  0.2576  0.0785
   70SOL    HW2 1045   3.683   0.045   5.800  0.0293  0.1404 -1.0084
   71SOL     OW 1046   1.691   6.555   3.721 -0.5112 -0.7820 -0.3192
   71SOL    HW1 1047   1.652   6.629   3.675  0.2926  0.1751  0.5055
   71SOL    HW2 1048   1.720   6.496   3.650 -0.6211 -0.0305 -1.0050
   72SOL     OW 1049   1.718   1.605   0.894  0.1751  0.5889  0.4180
   72SOL    HW1 1050   1.625   1.619   0.910  0.0786  0.6224 -0.1464
   72SOL    HW2 1051   1.722   1.524   0.843  0.4861  0.3609  0.8004
   73SOL     OW 1052   2.705   4.181   1.211  0.6631 -0.0635  0.5433
   73SOL    HW1 1053   2.618   4.211   1.184  0.9513  0.3469  0.0491
   73SOL    HW2 1054   2.737   4.252   1.267  0.5866 -0.3231  0.9172
   74SOL     OW 1055   3.899   5.497   7.380 -0.3945 -0.4980  0.1945
   74SOL    HW1 1056   3.818   5.539   7.352  0.7359  0.9527 -1.0306
   74SOL    HW2 1057   3.939   5.559   7.441 -0.6442 -1.6467  1.5908
   75SOL     OW 1058   0.511   3.789   1.731 -0.2064 -0.5758 -0.2656
   75SOL    HW1 1059   0.473   3.791   1.643 -1.7263 -1.4308  0.3403
   75SOL    HW2 1060   0.600   3.758   1.717 -0.4029 -0.6563 -1.5080
   76SOL     OW 1061   2.379   0.515   0.811 -0.6189 -0.2143 -0.4571
   76SOL    HW1 1062   2.463   0.558   0.792 -1.3741  1.1249 -0.9024
   76SOL    HW2 1063   2.349   0.483   0.726 -2.6377  3.2630 -1.2364
   77SOL     OW 1064   3.805   1.803   3.209 -0.3314 -0.1052  0.3321
   77SOL    HW1 1065   3.767   1.862   3.144  0.2040  1.5295  1.4416
   77SOL    HW2 1066   3.869   1.752   3.160 -0.3930  0.6260 -0.5438
   78SOL     OW 1067   4.912   7.180   1.796  0.1756  0.7899 -0.1517
   78SOL    HW1 1068   4.997   7.138   1.807  0.4082  1.1880 -0.3696
   78SOL    HW2 1069   4.906   7.241   1.870  1.3908  2.8925 -1.6762
   79SOL     OW 1070   6.185   3.930   1.355 -0.1896 -0.1486 -0.1062
   79SOL    HW1 1071   6.153   3.970   1.435  0.7268 -0.6745  0.5348
   79SOL    HW2 1072   6.271   3.896   1.377 -0.7980 -2.2104 -0.6995
   80SOL     OW 1073   1.970   4.377   2.144  0.0617 -0.2413  0.3801
   80SOL    HW1 1074   1.897   4.433   2.172 -0.3979 -0.4269 -0.4185
   80SOL    HW2 1075   2.023   4.365   2.223 -0.4127  0.4461  0.8095
   81SOL     OW 1076   1.201   3.297   5.269 -0.2069  0.2587  0.1362
   81SOL    HW1 1077   1.212   3.206   5.296 -1.5098  0.2194  0.5864
   81SOL    HW2 1078   1.205   3.347   5.350  2.1445  0.8183 -0.2503
   82SOL     OW 1079   5.096   6.948   5.127 -0.4267 -0.2922 -0.3596
   82SOL    HW1 1080   5.173   6.905   5.164 -0.9764 -0.6127  0.4212
   82SOL    HW2 1081   5.129   7.032   5.094  0.5522 -1.0597 -1.4381
   83SOL     OW 1082   2.829   6.491   0.814 -0.7797  0.1870  0.2890
   83SOL    HW1 1083   2.749   6.514   0.766  1.0463  1.1194 -2.5658
   83SOL    HW2 1084   2.843   6.398   0.794 -0.2878  0.4499 -0.6484
   84SOL     OW 1085   5.136   4.552   2.731 -0.4165  1.2023 -0.2532
   84SOL    HW1 1086   5.106   4.554   2.822  2.1980 -1.7568  0.8549
   84SOL    HW2 1087   5.208   4.614   2.728 -0.3249  1.0973 -0.2256
   85SOL     OW 1088   6.176   7.264   7.245  0.2482 -0.2804  0.0785
   85SOL    HW1 1089   6.180   7.170   7.226 -1.1724 -0.1704 -0.9673
   85SOL    HW2 1090   6.141   7.303   7.164  0.4474  1.1057  0.6286
   86SOL     OW 1091   4.014   1.058   4.526 -0.4090  0.3671 -0.4365
   86SOL    HW1 1092   3.999   1.044   4.433  0.7327 -0.5451 -0.5110
   86SOL    HW2 1093   4.105   1.032   4.540 -1.0732 -1.3028  1.2674
   87SOL     OW 1094   1.045   0.913   5.100  0.0301  0.2422 -0.0438
   87SOL    HW1 1095   1.046   1.008   5.098 -0.7992  0.2819  0.6704
   87SOL    HW2 1096   1.025   0.891   5.191  2.2593 -0.6609  0.3088
   88SOL     OW 1097   4.833   1.198   2.075  0.0524 -0.1998  0.0983
   88SOL    HW1 1098   4.863   1.108   2.065  0.2822 -0.4049  2.1897
   88SOL    HW2 1099   4.785   1.198   2.157 -1.3441  1.2577 -0.6777
   89SOL     OW 1100   4.864   1.255   6.376 -0.0273  0.1305 -0.0859
   89SOL    HW1 1101   4.772   1.244   6.352  0.3193 -0.9618 -1.0031
   89SOL    HW2 1102   4.867   1.339   6.422 -1.4069  0.3815 -0.4099
   90SOL     OW 1103   1.867   3.003   3.413 -0.2034 -0.2606  0.1267
   90SOL    HW1 1104   1.900   2.918   3.443 -0.3747 -0.6404 -0.7370
   90SOL    HW2 1105   1.775   3.004   3.439 -0.2158 -0.3638  0.0857
   91SOL     OW 1106   1.779   2.149   2.843 -0.4800  0.4468  0.1135
   91SOL    HW1 1107   1.690   2.157   2.810 -0.0712 -1.0126 -1.5090
   91SOL    HW2 1108   1.789   2.056   2.861  0.6784  0.6148  0.3944
   92SOL     OW 1109   1.321   6.091   5.024  0.3272 -0.1786  0.4537
   92SOL    HW1 1110   1.340   6.175   5.065  0.3958 -0.4898  1.0694
   92SOL    HW2 1111   1.407   6.048   5.016  0.2324 -0.3898  0.5793
   93SOL     OW 1112   1.896   1.243   7.772 -0.3666  0.5332 -0.0716
   93SOL    HW1 1113   1.985   1.215   7.790  0.3595  1.5430 -1.8920
   93SOL    HW2 1114   1.895   1.337   7.791 -0.4312  0.9678 -1.9916
   94SOL     OW 1115   7.582   1.830   7.043  0.3043  0.1952  0.1304
   94SOL    HW1 1116   7.620   1.883   6.973  1.2957 -1.3606 -0.5459
   94SOL    HW2 1117   7.572   1.892   7.116 -0.3289  1.7417 -1.1882
   95SOL     OW 1118   5.408   1.597   3.901 -0.2628 -0.1535  0.1473
   95SOL    HW1 1119   5.368   1.663   3.845 -1.3703  0.5887  1.7365
   95SOL    HW2 1120   5.334   1.549   3.938  0.3529  0.0326  1.7160
   96SOL     OW 1121   3.999   5.285   5.660  0.0568 -0.0191 -0.1131
   96SOL    HW1 1122   4.030   5.203   5.621 -0.2307  0.6014 -1.7442
   96SOL    HW2 1123   4.039   5.353   5.606 -1.4434  0.8562 -0.1679
   97SOL     OW 1124   3.420   0.780   3.463 -0.2447 -0.1942  0.0371
   97SOL    HW1 1125   3.346   0.720   3.476 -1.7766  1.9452  2.0154
   97SOL    HW2 1126   3.448   0.802   3.551  0.5153  1.6989 -0.6335
   98SOL     OW 1127   7.653   7.419   2.293 -0.0483  0.2555  0.0395
   98SOL    HW1 1128   7.724   7.452   2.238  0.5750 -2.5144 -0.9716
   98SOL    HW2 1129   7.578   7.411   2.234 -1.3802  3.2283  1.1104
   99SOL     OW 1130   7.224   1.501   2.150  0.4535  0.1939 -0.2158
   99SOL    HW1 1131   7.233   1.409   2.172  2.2680  0.2680 -0.4554
   99SOL    HW2 1132   7.251   1.548   2.229 -1.7650  0.5707  0.3712
  100SOL     OW 1133   6.896   1.716   2.614  0.0220 -0.1064  1.1417
  100SOL    HW1 1134   6.943   1.653   2.558 -0.7852 -1.8186  2.2960
  100SOL    HW2 1135   6.937   1.800   2.595  0.3561 -0.7591 -1.3518
  101SOL     OW 1136   5.619   0.437   0.516 -0.7725 -0.2341  0.3204
  101SOL    HW1 1137   5.697   0.382   0.511  0.2560  1.2552 -1.3116
  101SOL    HW2 1138   5.634   0.494   0.591 -0.0335  0.3687 -0.2720
  102SOL     OW 1139   0.473   0.081   2.960  0.3274  0.1455  1.0194
  102SOL    HW1 1140   0.528   0.158   2.972  0.0147  0.6861 -0.7725
  102SOL    HW2 1141   0.482   0.059   2.867 -0.4700 -1.3030  1.2544
  103SOL     OW 1142   1.197   4.052   6.626  0.4451 -0.4593  0.3415
  103SOL    HW1 1143   1.199   3.991   6.552  0.5816  1.1592 -1.0340
  103SOL    HW2 1144   1.103   4.066   6.642  0.4096 -0.0012 -0.2348
  104SOL     OW 1145   3.208   4.006   3.057  0.4980 -0.2484  0.1716
  104SOL    HW1 1146   3.300   4.019   3.076  1.0025  1.1894 -2.6969
  104SOL    HW2 1147   3.163   4.081   3.096  0.9590  0.5244 -0.7398
  105SOL     OW 1148   1.493   1.850   6.122 -0.1378 -0.4478 -0.2531
  105SOL    HW1 1149   1.400   1.871   6.114  0.0460 -0.0401 -1.5960
  105SOL    HW2 1150   1.538   1.933   6.110  0.4171 -0.6942  0.0663
  106SOL     OW 1151   7.074   2.192   3.159  0.2789  0.2297  0.0668
  106SOL    HW1 1152   7.101   2.279   3.187 -1.2009  0.5139  0.7182
  106SOL    HW2 1153   7.155   2.141   3.157  1.4645  2.0299 -2.0565
  107SOL     OW 1154   2.075   2.186   2.077 -0.2494 -0.1766  0.1301
  107SOL    HW1 1155   2.012   2.122   2.111 -1.0833 -0.2560 -1.4701
  107SOL    HW2 1156   2.029   2.269   2.080 -0.6139 -0.2861 -1.3607
  108SOL     OW 1157   1.206   3.226   6.638  0.4921 -0.3965  0.1044
  108SOL    HW1 1158   1.172   3.136   6.645  0.1179 -0.3350 -0.7756
  108SOL    HW2 1159   1.246   3.243   6.723 -0.1987 -1.0904  0.5844
  109SOL     OW 1160   2.503   5.691   6.165  0.0401  0.4790  0.1839
  109SOL    HW1 1161   2.562   5.732   6.227  0.0015  0.4021  0.2716
  109SOL    HW2 1162   2.464   5.618   6.213 -1.5886  1.6653  0.7761
  110SOL     OW 1163   2.549   3.286   5.773 -0.6330 -0.3153  0.2473
  110SOL    HW1 1164   2.542   3.321   5.862 -1.2043  0.5638 -0.1307
  110SOL    HW2 1165   2.643   3.270   5.761 -0.1346  2.3557 -0.0089
  111SOL     OW 1166   0.150   3.362   1.102  0.1992  0.2094  0.3133
  111SOL    HW1 1167   0.137   3.296   1.170  2.6543 -2.0727 -1.2198
  111SOL    HW2 1168   0.245   3.362   1.086 -0.0554  2.0877 -1.7303
  112SOL     OW 1169   1.912   5.184   4.071  0.1776  0.0116  0.2213
  112SOL    HW1 1170   1.902   5.175   4.166  0.0600 -1.5156  0.0974
  112SOL    HW2 1171   1.861   5.262   4.049 -0.2037  0.1050  1.3459
  113SOL     OW 1172   5.882   0.145   7.190  0.4106  0.7794 -0.1431
  113SOL    HW1 1173   5.824   0.105   7.255  3.2544 -2.1342  0.8631
  113SOL    HW2 1174   5.860   0.238   7.192 -1.5405  0.4019  2.9645
  114SOL     OW 1175   3.041   3.607   6.168  0.2023  0.3792  0.1765
  114SOL    HW1 1176   3.005   3.519   6.158  1.4584 -0.3667  1.7368
  114SOL    HW2 1177   3.105   3.615   6.097  1.9434 -1.0284  1.4821
  115SOL     OW 1178   6.619   3.826   3.157  0.1746  0.5470  0.2587
  115SOL    HW1 1179   6.682   3.761   3.187 -0.5059 -0.5109 -0.5537
  115SOL    HW2 1180   6.657   3.861   3.076 -1.6087 -2.3411 -2.0211
  116SOL     OW 1181   7.249   6.071   4.382 -0.0481  0.5775  0.6765
  116SOL    HW1 1182   7.155   6.088   4.377 -0.0368  0.4397 -0.0240
  116SOL    HW2 1183   7.277   6.061   4.291  0.1016 -2.3479  0.9259
  117SOL     OW 1184   4.960   3.265   0.910  0.0030  0.1918 -0.0546
  117SOL    HW1 1185   5.030   3.292   0.852  0.0096 -0.9443 -0.6134
  117SOL    HW2 1186   4.893   3.229   0.852  0.7854 -2.7106  0.6473
  118SOL     OW 1187   2.725   3.760   6.652 -0.2135 -0.8794  0.0735
  118SOL    HW1 1188   2.743   3.834   6.593 -3.6081  0.4357  0.4554
  118SOL    HW2 1189   2.734   3.798   6.739 -2.9743 -0.4944  0.2758
  119SOL     OW 1190   7.261   0.120   7.425  0.2335  0.1326  0.4332
  119SOL    HW1 1191   7.267   0.080   7.338  0.8531 -0.1878  0.6157
  119SOL    HW2 1192   7.169   0.111   7.450 -0.0457  0.6422 -0.3801
  120SOL     OW 1193   7.658   3.678   7.250 -0.0167 -0.8073  0.0492
  120SOL    HW1 1194   7.593   3.670   7.180 -2.2910  0.2202  1.9110
  120SOL    HW2 1195   7.686   3.770   7.246 -1.1954 -0.3619  1.2785
  121SOL     OW 1196   5.171   2.783   7.729  0.1199  0.3794 -0.5350
  121SOL    HW1 1197   5.251   2.813   7.686  1.0626  1.0043  1.5284
  121SOL    HW2 1198   5.114   2.860   7.732 -0.4598  0.0257 -1.6794
  122SOL     OW 1199   0.812   2.119   3.867  0.7124 -0.2202 -0.0161
  122SOL    HW1 1200   0.773   2.189   3.919 -0.9899 -0.9397 -0.2489
  122SOL    HW2 1201   0.764   2.040   3.892  1.9416 -1.1480 -0.4482
  123SOL     OW 1202   2.129   6.154   0.875 -0.2782  0.4113  0.1294
  123SOL    HW1 1203   2.115   6.061   0.856  0.8239  0.2289  0.1009
  123SOL    HW2 1204   2.071   6.172   0.949 -1.2847 -0.0224 -0.5405
  124SOL     OW 1205   4.678   7.255   6.220 -0.1799  0.3958  0.2099
  124SOL    HW1 1206   4.760   7.232   6.265 -0.4847 -1.1498  0.0108
  124SOL    HW2 1207   4.683   7.350   6.211 -0.0285  0.8207  3.3816
  125SOL     OW 1208   3.953   5.867   1.527 -0.3952  0.6794 -0.5222
  125SOL    HW1 1209   3.882   5.896   1.584 -0.9762 -0.8611 -0.4026
  125SOL    HW2 1210   3.998   5.947   1.501 -1.4267  1.5820  0.3899
  126SOL     OW 1211   7.411   6.958   7.323  0.0527 -0.2660 -0.0065
  126SOL    HW1 1212   7.497   6.958   7.365  0.6694 -0.8073 -1.2316
  126SOL    HW2 1213   7.395   6.866   7.301 -1.3512 -0.3568  1.1591
  127SOL     OW 1214   2.932   1.517   6.909  0.2561  0.0520  0.1563
  127SOL    HW1 1215   2.880   1.564   6.973 -0.4061 -0.1180 -0.2474
  127SOL    HW2 1216   2.983   1.584   6.864  0.1528  0.2560  0.3470
  128SOL     OW 1217   3.668   4.291   4.442  0.1477  0.0896  0.5668
  128SOL    HW1 1218   3.583   4.282   4.486  0.9150 -0.0473  2.1163
  128SOL    HW2 1219   3.729   4.243   4.499  0.7613 -2.7772 -2.2447
  129SOL     OW 1220   6.430   2.032   0.610  0.2142 -0.3901 -0.0968
  129SOL    HW1 1221   6.415   2.113   0.658  0.9806 -0.6687  0.6401
  129SOL    HW2 1222   6.416   2.055   0.518  0.6311  0.6254  0.0848
  130SOL     OW 1223   7.382   3.862   5.933 -0.6339 -0.2570  0.4350
  130SOL    HW1 1224   7.330   3.853   5.853 -2.2386  1.6289  1.1706
  130SOL    HW2 1225   7.393   3.773   5.965  0.0241 -1.0577 -1.8208
  131SOL     OW 1226   2.937   5.015   7.572  0.5004 -0.7334  0.3326
  131SOL    HW1 1227   2.964   4.943   7.628 -2.1595 -1.8434  0.3039
  131SOL    HW2 1228   2.845   4.999   7.554  0.4209  1.3974 -1.6566
  132SOL     OW 1229   1.650   1.370   7.044 -0.1583 -0.1451 -0.6261
  132SOL    HW1 1230   1.670   1.325   7.126 -1.1747  1.3048  0.4483
  132SOL    HW2 1231   1.715   1.440   7.038 -0.9946  0.6878 -0.2666
  133SOL     OW 1232   6.847   1.410   6.986 -0.0433 -0.4081 -0.5688
  133SOL    HW1 1233   6.809   1.432   6.902 -0.3176 -0.3826 -0.4376
  133SOL    HW2 1234   6.942   1.417   6.972 -0.1190  1.1920 -0.4433
  134SOL     OW 1235   2.368   5.223   6.443 -0.3075 -0.1171  0.4169
  134SOL    HW1 1236   2.412   5.232   6.359 -0.1052 -0.1177  0.5223
  134SOL    HW2 1237   2.300   5.158   6.428 -1.0178  0.7124 -0.0454
  135SOL     OW 1238   4.636   4.006   3.040  0.2640  0.1967 -0.5493
  135SOL    HW1 1239   4.672   3.934   3.092 -1.0672 -0.8834 -1.0629
  135SOL    HW2 1240   4.566   4.043   3.095  0.6404  0.8201 -0.4742
  136SOL     OW 1241   6.250   6.025   3.196  0.7047  0.4221  0.1472
  136SOL    HW1 1242   6.302   6.006   3.274  1.4247  0.9504 -0.2014
  136SOL    HW2 1243   6.314   6.042   3.127  0.0707  0.7720 -0.3697
  137SOL     OW 1244   4.594   7.761   1.572 -0.0274 -0.6986 -0.6683
  137SOL    HW1 1245   4.591   7.677   1.528  0.5400 -1.1400  0.1162
  137SOL    HW2 1246   4.503   7.792   1.570 -0.1809 -1.1633 -1.2517
  138SOL     OW 1247   2.480   4.906   4.531 -0.2292  0.2775  0.0315
  138SOL    HW1 1248   2.416   4.856   4.480 -0.5876  1.1039 -0.3545
  138SOL    HW2 1249   2.554   4.847   4.542 -0.8141 -0.4875 -0.0313
  139SOL     OW 1250   1.958   1.312   4.004 -0.2179 -0.5826 -0.0267
  139SOL    HW1 1251   1.939   1.360   4.085  0.5988  1.0663 -0.7601
  139SOL    HW2 1252   2.043   1.272   4.020  0.5630  0.8259 -0.4940
  140SOL     OW 1253   0.151   2.908   0.944 -0.4806  0.0724  0.5109
  140SOL    HW1 1254   0.203   2.988   0.940 -0.9779  0.3657 -0.5696
  140SOL    HW2 1255   0.205   2.842   0.901 -0.6625  0.1903  0.0911
  141SOL     OW 1256   6.661   0.816   0.788 -0.4101 -0.4853 -0.6915
  141SOL    HW1 1257   6.748   0.779   0.771  0.3433  0.6257  0.5663
  141SOL    HW2 1258   6.676   0.881   0.856 -2.3431 -0.6878 -0.0298
  142SOL     OW 1259   6.916   0.992   3.462  0.7680  0.4635  0.9345
  142SOL    HW1 1260   6.990   0.951   3.508  0.2989 -1.2972  0.2109
  142SOL    HW2 1261   6.844   0.989   3.526  1.4632  2.9215  1.9350
  143SOL     OW 1262   2.500   5.811   2.015 -0.0364 -0.5620  0.0101
  143SOL    HW1 1263   2.574   5.870   2.030 -0.3027 -0.3318  0.4169
  143SOL    HW2 1264   2.446   5.856   1.950 -1.2068  0.5312  1.6646
  144SOL     OW 1265   6.894   3.274   5.268  0.5590 -0.3336  0.6620
  144SOL    HW1 1266   6.972   3.247   5.316  1.2190 -2.0729 -1.2262
  144SOL    HW2 1267   6.835   3.199   5.274  0.6918 -0.6374 -1.1880
  145SOL     OW 1268   4.923   7.572   6.578 -0.5346 -0.5088  0.1898
  145SOL    HW1 1269   4.831   7.569   6.605  0.0178  0.0816  2.3619
  145SOL    HW2 1270   4.930   7.651   6.525 -1.6090 -1.5026 -1.4916
  146SOL     OW 1271   6.176   4.839   2.980 -0.1615 -0.1228  0.3756
  146SOL    HW1 1272   6.172   4.780   3.055  1.7760 -1.0091 -0.1557
  146SOL    HW2 1273   6.202   4.923   3.017  0.6512 -0.5229  0.7426
  147SOL     OW 1274   4.285   1.430   5.326  0.3872 -0.1560 -0.0457
  147SOL    HW1 1275   4.338   1.449   5.249  0.0748  0.7830 -0.0389
  147SOL    HW2 1276   4.340   1.455   5.401 -0.4204  1.8457 -0.0660
  148SOL     OW 1277   1.058   2.633   5.514 -0.6892  0.2111  0.2031
  148SOL    HW1 1278   0.975   2.587   5.506 -1.1943  0.9291  1.2264
  148SOL    HW2 1279   1.044   2.716   5.467 -0.3364  0.0677 -0.1649
  149SOL     OW 1280   7.856   7.838   5.498  0.1609  0.4363 -0.1501
  149SOL    HW1 1281   7.926   7.811   5.558 -1.0060  0.0131  1.0691
  149SOL    HW2 1282   7.777   7.796   5.532 -0.6537  0.6283 -1.6850
  150SOL     OW 1283   5.739   6.669   5.648  0.2921 -0.4697 -0.1160
  150SOL    HW1 1284   5.663   6.726   5.637  1.0886  0.6388 -0.0273
  150SOL    HW2 1285   5.797   6.718   5.707  1.3318 -1.0423 -0.6406
  151SOL     OW 1286   5.453   6.087   3.415 -0.3085  0.3639 -0.3538
  151SOL    HW1 1287   5.475   6.000   3.447  0.0513  0.7754  0.5800
  151SOL    HW2 1288   5.519   6.144   3.455 -0.1880  0.9891 -1.4145
  152SOL     OW 1289   6.191   5.671   7.814  0.2474  0.4217 -0.4819
  152SOL    HW1 1290   6.113   5.723   7.792  0.4329  0.9396  0.0677
  152SOL    HW2 1291   6.188   5.664   7.909 -1.1058 -2.6352 -0.6316
  153SOL     OW 1292   0.609   0.080   2.689 -0.4496  0.4946 -0.1777
  153SOL    HW1 1293   0.646   0.168   2.697 -2.0791  1.3385 -1.3839
  153SOL    HW2 1294   0.625   0.056   2.597  0.3974 -0.6986  0.2513
  154SOL     OW 1295   5.818   3.982   7.090 -0.0043  0.2322  0.2798
  154SOL    HW1 1296   5.781   4.043   7.026 -0.7389 -0.5659 -0.0788
  154SOL    HW2 1297   5.913   3.989   7.079 -0.1233 -0.0595 -1.0589
  155SOL     OW 1298   2.685   7.905   2.928  0.7276 -0.2967  0.1545
  155SOL    HW1 1299   2.746   7.920   3.001  1.1587 -2.0935  0.2090
  155SOL    HW2 1300   2.601   7.887   2.971  0.5666  0.4017  0.1390
  156SOL     OW 1301   0.683   4.277   3.867  0.2008 -0.3674 -0.0498
  156SOL    HW1 1302   0.612   4.262   3.804 -0.3116  0.4816  0.3053
  156SOL    HW2 1303   0.650   4.346   3.924  1.6711  0.7014 -0.4321
  157SOL     OW 1304   2.670   7.558   7.473 -0.0868  0.0779  0.6307
  157SOL    HW1 1305   2.707   7.529   7.390 -0.6470 -1.1748  0.7975
  157SOL    HW2 1306   2.735   7.619   7.508 -0.0382  0.9573 -0.9018
  158SOL     OW 1307   6.776   2.978   0.009  1.1660  0.4664  0.0613
  158SOL    HW1 1308   6.801   3.070   0.016 -0.4867  0.9229  0.4923
  158SOL    HW2 1309   6.682   2.977   0.029  1.5011 -1.5735  1.9506
  159SOL     OW 1310   6.075   6.158   6.232  0.1020 -0.1325  0.4440
  159SOL    HW1 1311   6.128   6.184   6.157  1.0023  0.2744  1.2073
  159SOL    HW2 1312   6.006   6.102   6.194 -0.1659  1.0063 -0.8369
  160SOL     OW 1313   6.798   5.101   7.686 -0.0722  0.9860 -0.9327
  160SOL    HW1 1314   6.796   5.196   7.674  1.1289  0.9557 -1.6078
  160SOL    HW2 1315   6.890   5.082   7.707  0.6008 -0.3650 -4.3623
  161SOL     OW 1316   7.863   2.272   0.128 -0.2505 -0.5479 -0.1542
  161SOL    HW1 1317   7.882   2.323   0.208 -0.7059 -0.2606 -0.2275
  161SOL    HW2 1318   7.828   2.337   0.066 -0.6454 -0.9120 -0.3164
  162SOL     OW 1319   6.600   7.823   6.659 -0.1196  0.8166 -0.4409
  162SOL    HW1 1320   6.595   7.727   6.661  1.4783  0.6948  1.1682
  162SOL    HW2 1321   6.653   7.843   6.582 -0.0516  0.3549 -0.5159
  163SOL     OW 1322   7.724   5.914   1.796  0.2252  0.4301  0.0715
  163SOL    HW1 1323   7.753   5.889   1.883 -0.6693 -2.2112 -0.2991
  163SOL    HW2 1324   7.631   5.893   1.795  0.1643  0.6638 -1.4514
  164SOL     OW 1325   6.244   3.839   0.160 -0.0212  0.0125  0.1597
  164SOL    HW1 1326   6.154   3.869   0.166 -0.3146 -1.0828  1.7452
  164SOL    HW2 1327   6.256   3.816   0.068 -1.8028 -1.1156  0.1739
  165SOL     OW 1328   4.336   3.017   2.157 -0.1404 -0.0784  0.2384
  165SOL    HW1 1329   4.247   3.028   2.124 -0.0991  0.0709  0.1774
  165SOL    HW2 1330   4.352   2.923   2.153  0.1139 -0.0000 -0.7997
  166SOL     OW 1331   0.333   0.012   3.161  0.4094  0.1153 -0.3052
  166SOL    HW1 1332   0.377   0.012   3.076 -0.3864 -0.8796 -0.7257
  166SOL    HW2 1333   0.404   0.024   3.224  1.0086  0.8795 -1.0981
  167SOL     OW 1334   3.842   7.382   4.523 -0.3593  0.1779  0.6422
  167SOL    HW1 1335   3.844   7.396   4.618 -0.6133 -1.1468  0.8656
  167SOL    HW2 1336   3.773   7.317   4.510  1.7107 -2.0077 -0.0880
  168SOL     OW 1337   0.705   6.721   4.754  0.5265  0.4673  0.8833
  168SOL    HW1 1338   0.773   6.789   4.753  1.4115 -0.3632  1.8188
  168SOL    HW2 1339   0.629   6.764   4.792  0.3469  1.5612 -0.6510
  169SOL     OW 1340   0.940   5.953   0.235 -0.6276  0.2265  0.5471
  169SOL    HW1 1341   0.896   5.916   0.158  0.7575 -0.6854  0.1707
  169SOL    HW2 1342   1.021   5.990   0.201 -0.5594  0.9043  1.4089
  170SOL     OW 1343   0.640   2.071   4.177 -0.3667  0.7030  0.1923
  170SOL    HW1 1344   0.665   2.021   4.255 -1.5265 -0.2539 -0.0141
  170SOL    HW2 1345   0.553   2.105   4.197 -0.6669  0.4631 -0.6685
  171SOL     OW 1346   7.176   7.614   3.091  0.3890  0.4435 -0.4639
  171SOL    HW1 1347   7.119   7.558   3.144  1.3490 -1.1290 -1.0189
  171SOL    HW2 1348   7.143   7.605   3.002  0.2468  1.1866 -0.4968
  172SOL     OW 1349   5.387   5.150   6.998  0.7568  0.3546 -0.6401
  172SOL    HW1 1350   5.437   5.140   7.079 -0.0691 -0.7642 -0.2323
  172SOL    HW2 1351   5.321   5.216   7.019  1.1727  0.7999 -0.7260
  173SOL     OW 1352   7.683   6.610   5.951 -0.2897  0.6798 -0.6061
  173SOL    HW1 1353   7.600   6.566   5.972  0.2534 -1.7884 -3.0245
  173SOL    HW2 1354   7.656   6.691   5.907 -1.4929 -0.3014 -1.7605
  174SOL     OW 1355   6.400   0.292   3.204  0.0145 -0.3596 -0.2546
  174SOL    HW1 1356   6.405   0.342   3.285 -0.4582 -3.2985  1.7649
  174SOL    HW2 1357   6.491   0.268   3.185  0.2119  0.9477 -1.0824
  175SOL     OW 1358   0.233   3.390   0.799 -0.4355 -0.2517  0.4678
  175SOL    HW1 1359   0.189   3.312   0.766 -1.5040  0.8744 -0.8946
  175SOL    HW2 1360   0.166   3.437   0.848  0.2134 -0.2090  1.3362
  176SOL     OW 1361   5.540   5.290   3.223 -0.3505 -0.6296  0.3887
  176SOL    HW1 1362   5.509   5.212   3.176 -1.6851  0.0264  0.1186
  176SOL    HW2 1363   5.511   5.364   3.169  0.1411  0.0815  1.0713
  177SOL     OW 1364   7.481   1.488   7.481  0.1549  0.0536  0.2108
  177SOL    HW1 1365   7.456   1.434   7.406  0.4683 -1.3358  1.0829
  177SOL    HW2 1366   7.446   1.441   7.557  1.5714  0.3834  1.0977
  178SOL     OW 1367   1.001   7.156   1.181  0.3095 -0.5327  0.0800
  178SOL    HW1 1368   1.090   7.140   1.150 -0.4892 -2.0842 -1.5982
  178SOL    HW2 1369   0.945   7.133   1.107 -1.4924  0.7242  0.9836
  179SOL     OW 1370   7.117   0.720   5.026 -0.4427 -0.4126  0.0082
  179SOL    HW1 1371   7.085   0.715   4.936 -0.5351  1.7166 -0.1350
  179SOL    HW2 1372   7.043   0.691   5.079 -2.0917  2.6025 -0.4183
  180SOL     OW 1373   1.567   3.021   3.405  0.2754  0.2662  0.4508
  180SOL    HW1 1374   1.605   2.970   3.333  0.4826 -1.6434  1.8479
  180SOL    HW2 1375   1.475   3.031   3.381  0.5338  0.4781 -0.5081
  181SOL     OW 1376   7.655   3.727   4.754  0.2507  0.2999  0.3725
  181SOL    HW1 1377   7.683   3.773   4.674  1.8933 -0.6716  0.3331
  181SOL    HW2 1378   7.580   3.675   4.726  1.1707 -0.4994 -0.7458
  182SOL     OW 1379   2.657   1.921   1.216  0.3135 -0.5596 -0.1595
  182SOL    HW1 1380   2.708   1.843   1.195 -0.1456 -0.4408 -1.8119
  182SOL    HW2 1381   2.614   1.899   1.299 -1.0716 -2.7320 -1.3322
  183SOL     OW 1382   7.744   5.655   5.998 -0.7838  0.0510 -0.3468
  183SOL    HW1 1383   7.757   5.749   5.983 -2.9648  0.6618  1.0084
  183SOL    HW2 1384   7.780   5.639   6.085 -1.9493  0.0574  0.1577
  184SOL     OW 1385   2.915   6.623   2.117  0.1675  0.0079  0.9496
  184SOL    HW1 1386   2.881   6.621   2.028  3.5458  0.7153 -0.5552
  184SOL    HW2 1387   2.861   6.562   2.166 -3.1430  1.1206 -1.0017
  185SOL     OW 1388   7.574   0.808   5.218 -0.5140 -0.9876  0.4786
  185SOL    HW1 1389   7.572   0.748   5.293  0.7640 -2.2106 -0.4181
  185SOL    HW2 1390   7.661   0.848   5.222 -1.1371  0.3894  0.7178
  186SOL     OW 1391   5.399   3.266   1.520  0.6652 -0.1011  0.2741
  186SOL    HW1 1392   5.353   3.238   1.599  2.1662  1.9087  1.9979
  186SOL    HW2 1393   5.477   3.211   1.517  1.8028  1.3088  1.6416
  187SOL     OW 1394   0.310   0.772   0.422 -0.2922  0.6264 -0.3058
  187SOL    HW1 1395   0.295   0.696   0.479 -0.6847  1.3255  0.5522
  187SOL    HW2 1396   0.223   0.802   0.398 -0.1321  0.3740 -1.2574
  188SOL     OW 1397   2.427   5.382   4.963  0.1640  0.0737  0.4425
  188SOL    HW1 1398   2.502   5.323   4.961  1.3700  1.4926  1.5082
  188SOL    HW2 1399   2.352   5.325   4.981  0.9429 -1.3905 -0.7435
  189SOL     OW 1400   7.480   0.348   5.412  0.1143 -0.9656  0.6311
  189SOL    HW1 1401   7.457   0.360   5.504  0.8216 -1.1343  0.8346
  189SOL    HW2 1402   7.396   0.352   5.365 -0.1340  0.2601  1.1501
  190SOL     OW 1403   7.265   5.858   7.774  0.0772  0.3839 -0.0395
  190SOL    HW1 1404   7.301   5.770   7.786  0.5770  0.5662 -0.1782
  190SOL    HW2 1405   7.247   5.864   7.681  0.0357  0.4282 -0.0288
  191SOL     OW 1406   2.242   7.301   0.413 -0.5361  0.4872  0.3279
  191SOL    HW1 1407   2.306   7.273   0.348 -0.7538  1.4703 -0.3337
  191SOL    HW2 1408   2.174   7.345   0.362 -0.5451  1.5742  1.2487
  192SOL     OW 1409   7.752   4.966   3.434 -0.0984  0.1965  0.9087
  192SOL    HW1 1410   7.781   5.014   3.356 -2.3839  1.3100  0.6593
  192SOL    HW2 1411   7.765   4.874   3.411 -1.0963  0.4800 -1.0180
  193SOL     OW 1412   1.803   1.143   4.689 -0.5729  0.0602 -0.2030
  193SOL    HW1 1413   1.754   1.063   4.709  1.3949 -1.1440  0.1260
  193SOL    HW2 1414   1.778   1.204   4.758 -1.9949 -0.3179 -0.3607
  194SOL     OW 1415   6.141   5.620   4.287 -0.1959  0.1112  0.5900
  194SOL    HW1 1416   6.193   5.550   4.246 -1.1352  0.3699 -1.1558
  194SOL    HW2 1417   6.177   5.700   4.251 -2.3786  0.2664 -1.5145
  195SOL     OW 1418   6.911   5.375   2.541 -0.9288 -0.5473  0.1135
  195SOL    HW1 1419   6.846   5.390   2.472  0.4314 -0.2739 -1.1912
  195SOL    HW2 1420   6.933   5.462   2.572 -1.0866 -0.6301  0.4619
  196SOL     OW 1421   6.010   1.258   7.015 -0.1531  0.1707 -0.1209
  196SOL    HW1 1422   6.098   1.225   7.033  1.2608  3.6802  0.4204
  196SOL    HW2 1423   6.013   1.286   6.923 -0.2595  1.3437  0.2119
  197SOL     OW 1424   0.400   6.550   4.495  0.0957  0.3030  0.0409
  197SOL    HW1 1425   0.457   6.621   4.524 -1.1609  2.1588 -1.7358
  197SOL    HW2 1426   0.321   6.560   4.548 -0.4097  0.7914 -0.7886
  198SOL     OW 1427   0.974   6.449   7.907 -0.3541 -0.4424 -0.0568
  198SOL    HW1 1428   0.895   6.495   7.878 -0.4152  0.1229  0.9372
  198SOL    HW2 1429   0.948   6.357   7.910 -0.5409 -0.4346 -1.0969
  199SOL     OW 1430   5.726   5.796   2.304  0.0618  0.4341 -0.0129
  199SOL    HW1 1431   5.772   5.721   2.266  1.7237  1.0880  0.6209
  199SOL    HW2 1432   5.783   5.826   2.375 -0.5636  2.2785 -0.2297
  200SOL     OW 1433   4.110   6.385   5.576 -0.4543 -0.3320 -0.1664
  200SOL    HW1 1434   4.116   6.299   5.534 -0.3866  0.0159 -0.8774
  200SOL    HW2 1435   4.166   6.442   5.524 -0.6566  0.1960  0.1800
  201SOL     OW 1436   4.395   0.641   4.138  0.2669 -0.1079 -0.2348
  201SOL    HW1 1437   4.329   0.693   4.184  3.5454  2.4012  2.1120
  201SOL    HW2 1438   4.410   0.565   4.195  0.9106  0.4896  0.4145
  202SOL     OW 1439   3.834   7.096   6.066  0.1999  0.2798  0.3146
  202SOL    HW1 1440   3.922   7.106   6.031  0.1791  0.7632  0.3977
  202SOL    HW2 1441   3.777   7.097   5.989  0.2301  0.3957  0.2945
  203SOL     OW 1442   7.349   4.707   0.420 -1.0268 -0.6591 -0.0282
  203SOL    HW1 1443   7.367   4.613   0.417 -1.5309 -0.7773  0.4363
  203SOL    HW2 1444   7.425   4.747   0.380 -0.3576 -1.2115  0.6570
  204SOL     OW 1445   0.112   0.302   1.305  0.6535  0.0182 -0.0464
  204SOL    HW1 1446   0.082   0.335   1.390 -0.1255  0.2330 -0.3960
  204SOL    HW2 1447   0.044   0.241   1.277  0.1018  1.1254 -1.2261
  205SOL     OW 1448   5.438   5.256   4.217  0.2044 -0.1374  0.5350
  205SOL    HW1 1449   5.466   5.269   4.308  2.0315  0.6341 -0.0823
  205SOL    HW2 1450   5.495   5.314   4.167 -1.3507  0.0942 -1.0424
  206SOL     OW 1451   5.891   4.806   4.282 -0.2902 -0.0057 -0.2324
  206SOL    HW1 1452   5.855   4.888   4.317  0.3262  0.0270  0.3472
  206SOL    HW2 1453   5.821   4.771   4.227  0.5043  2.4074 -3.0105
  207SOL     OW 1454   3.647   6.001   5.620  0.3550  0.3204  0.2680
  207SOL    HW1 1455   3.618   6.071   5.560  0.5400 -0.8675 -1.2800
  207SOL    HW2 1456   3.682   5.934   5.562 -2.1384 -2.2209  1.4739
  208SOL     OW 1457   2.090   4.963   5.179  0.4506  0.3388  0.4353
  208SOL    HW1 1458   2.074   4.954   5.085  0.0740 -2.4284  0.6664
  208SOL    HW2 1459   2.006   4.988   5.216 -0.3443 -1.8580  0.3011
  209SOL     OW 1460   0.800   4.484   3.215  0.6653 -0.0776  0.3387
  209SOL    HW1 1461   0.805   4.450   3.304 -0.8855 -0.5174  0.2902
  209SOL    HW2 1462   0.736   4.555   3.220  2.2342  1.4474 -0.0004
  210SOL     OW 1463   5.123   2.255   3.960 -0.2870 -0.4778  0.6135
  210SOL    HW1 1464   5.206   2.208   3.954  0.3595  0.6394  0.5036
  210SOL    HW2 1465   5.088   2.230   4.046  0.8373  0.0936  1.2632
  211SOL     OW 1466   1.803   0.477   4.128  0.2410 -0.1176  0.6576
  211SOL    HW1 1467   1.730   0.523   4.170 -1.0064 -0.4226 -1.0341
  211SOL    HW2 1468   1.849   0.434   4.200 -1.4413 -0.1656  1.7775
  212SOL     OW 1469   1.516   7.479   6.855 -0.2590  0.6195 -0.1623
  212SOL    HW1 1470   1.593   7.435   6.819 -1.1435 -1.1006 -0.0588
  212SOL    HW2 1471   1.550   7.529   6.930  0.7105 -0.3978  0.1112
  213SOL     OW 1472   6.310   1.943   2.708  0.6303  0.1338 -0.1569
  213SOL    HW1 1473   6.227   1.965   2.751  1.1195  1.1673  0.2827
  213SOL    HW2 1474   6.351   2.027   2.689  1.6285 -0.3621 -0.2911
  214SOL     OW 1475   4.016   4.405   3.851 -0.1352 -0.5886  0.4436
  214SOL    HW1 1476   4.101   4.446   3.834  1.1299 -3.1237  0.1289
  214SOL    HW2 1477   3.964   4.425   3.773  0.3028  0.6042  0.4260
  215SOL     OW 1478   0.443   5.775   5.637  0.4411 -0.1901 -0.2074
  215SOL    HW1 1479   0.434   5.725   5.718 -1.3008 -0.9639 -0.8355
  215SOL    HW2 1480   0.470   5.709   5.572  0.0906  0.0688 -0.6207
  216SOL     OW 1481   3.180   6.969   4.621  0.7006  0.3095 -0.9631
  216SOL    HW1 1482   3.256   6.992   4.568  0.7015  0.5807 -0.8454
  216SOL    HW2 1483   3.162   7.047   4.673  1.0954 -0.1715 -0.0918
  217SOL     OW 1484   0.371   4.442   0.259  0.1382 -0.2064  0.4283
  217SOL    HW1 1485   0.360   4.534   0.281 -1.9273 -0.5681  1.2015
  217SOL    HW2 1486   0.463   4.432   0.237  0.2762  2.1476 -0.2297
  218SOL     OW 1487   4.065   1.787   2.213 -0.4776 -0.5691  0.0299
  218SOL    HW1 1488   4.037   1.705   2.171 -1.4115 -0.0575 -0.3898
  218SOL    HW2 1489   4.000   1.802   2.281  0.3179 -0.7324  0.8425
  219SOL     OW 1490   5.706   3.732   4.447  0.1638  0.4033  0.3334
  219SOL    HW1 1491   5.661   3.650   4.468  0.2788 -0.3773 -2.1826
  219SOL    HW2 1492   5.644   3.780   4.392  1.4348  0.3554 -1.2194
  220SOL     OW 1493   7.863   0.073   6.818 -0.0881  0.2156  0.0298
  220SOL    HW1 1494   7.775   0.050   6.787 -1.5908  2.7310  2.0189
  220SOL    HW2 1495   7.879   0.015   6.892 -0.1922 -0.0042 -0.1174
  221SOL     OW 1496   2.102   6.371   3.703 -0.0648 -0.0613 -0.1479
  221SOL    HW1 1497   2.024   6.352   3.756  1.1802  0.5093  2.0232
  221SOL    HW2 1498   2.072   6.434   3.637 -1.3849  0.3563  0.8113
  222SOL     OW 1499   5.298   3.490   6.035 -0.6584 -0.0007  0.5770
  222SOL    HW1 1500   5.295   3.538   5.952 -0.6070 -2.0547 -0.7025
  222SOL    HW2 1501   5.217   3.438   6.035  0.5407 -1.9712  0.5145
  223SOL     OW 1502   7.606   3.740   2.087  0.1185 -0.6153 -0.9316
  223SOL    HW1 1503   7.697   3.766   2.101  0.3402 -1.1939 -1.2597
  223SOL    HW2 1504   7.584   3.687   2.164 -0.4633  0.8310 -0.0605
  224SOL     OW 1505   6.106   3.252   3.449  0.0733  0.2886 -0.1779
  224SOL    HW1 1506   6.064   3.337   3.460 -1.5455 -0.4295 -0.5504
  224SOL    HW2 1507   6.159   3.241   3.529 -2.0214  0.3838  1.3094
  225SOL     OW 1508   1.681   5.241   0.523  0.1296  0.2933 -0.3318
  225SOL    HW1 1509   1.614   5.309   0.514  0.5337  0.9108  1.1106
  225SOL    HW2 1510   1.712   5.249   0.613 -0.6304 -2.5612  0.2969
  226SOL     OW 1511   2.622   6.209   3.322  0.3113  0.7494 -0.3109
  226SOL    HW1 1512   2.693   6.163   3.365 -0.1581 -0.9551 -1.2581
  226SOL    HW2 1513   2.658   6.234   3.236 -0.1008  0.1831 -0.6583
  227SOL     OW 1514   5.322   1.602   6.433  0.6154 -0.1324 -0.5812
  227SOL    HW1 1515   5.400   1.645   6.397  1.8358 -1.8098 -0.0662
  227SOL    HW2 1516   5.266   1.587   6.357  0.7899  1.0348 -0.9699
  228SOL     OW 1517   1.349   0.596   7.015  0.5635 -0.5926  0.2503
  228SOL    HW1 1518   1.355   0.571   7.107  1.7187 -0.2799  0.2734
  228SOL    HW2 1519   1.379   0.687   7.013 -1.2095  0.0268 -0.1886
  229SOL     OW 1520   2.115   3.312   5.932 -0.3253 -0.1369  0.2687
  229SOL    HW1 1521   2.032   3.265   5.943 -1.2334  1.0413 -1.1355
  229SOL    HW2 1522   2.167   3.256   5.874 -1.8018  0.9215 -2.2567
  230SOL     OW 1523   2.891   1.591   2.154  0.0963 -0.8068 -0.2451
  230SOL    HW1 1524   2.831   1.662   2.132  0.3243 -0.3412  0.5964
  230SOL    HW2 1525   2.952   1.587   2.081  1.1963  1.0816  0.4952
  231SOL     OW 1526   2.055   0.964   3.392  0.7634 -0.0007 -0.0756
  231SOL    HW1 1527   1.966   0.930   3.378  0.0599  1.1488  1.4606
  231SOL    HW2 1528   2.109   0.885   3.403 -0.5680 -0.6914  1.8595
  232SOL     OW 1529   5.405   0.056   1.343  0.0923  0.0080 -0.5502
  232SOL    HW1 1530   5.355   0.015   1.273 -0.9308  0.0517  0.1334
  232SOL    HW2 1531   5.397   0.150   1.326 -2.3793  0.1864  1.0081
  233SOL     OW 1532   2.831   3.555   3.577  0.0491  0.4229 -0.4188
  233SOL    HW1 1533   2.736   3.561   3.584 -0.0524 -1.2363  0.1726
  233SOL    HW2 1534   2.846   3.485   3.513  0.9073  1.5614 -1.5219
  234SOL     OW 1535   3.033   4.534   4.048 -0.5894 -0.1739  0.1731
  234SOL    HW1 1536   3.005   4.588   4.122  2.9868  0.8020  1.0013
  234SOL    HW2 1537   3.067   4.454   4.089 -1.3969 -0.9782 -0.6851
  235SOL     OW 1538   0.860   5.535   7.550  0.0198  0.1146  0.3162
  235SOL    HW1 1539   0.890   5.494   7.469 -0.4996  0.2791  0.0387
  235SOL    HW2 1540   0.767   5.511   7.556 -0.7738  2.6590 -0.7497
  236SOL     OW 1541   1.681   1.417   6.091  0.6505 -0.3437 -0.3433
  236SOL    HW1 1542   1.664   1.356   6.020 -1.2857  1.1732 -1.2542
  236SOL    HW2 1543   1.767   1.455   6.070 -0.2468  0.7008 -2.3992
  237SOL     OW 1544   5.270   6.937   1.487  0.4962 -0.0039 -0.9679
  237SOL    HW1 1545   5.193   6.949   1.431  1.0605  1.4993 -1.4577
  237SOL    HW2 1546   5.234   6.913   1.573 -0.4310 -0.8647 -1.5726
  238SOL     OW 1547   5.906   2.005   3.995  0.0466  0.0997 -0.0958
  238SOL    HW1 1548   5.817   2.025   4.025  0.1396  0.4986 -0.0822
  238SOL    HW2 1549   5.893   1.942   3.924 -0.1622 -0.9665  0.8584
  239SOL     OW 1550   1.128   7.234   3.663 -0.1940 -0.3231  0.2743
  239SOL    HW1 1551   1.152   7.157   3.715  0.3944 -1.2290 -1.2572
  239SOL    HW2 1552   1.211   7.275   3.641 -0.4128 -0.1396 -0.2224
  240SOL     OW 1553   3.406   3.737   3.299  1.1414 -0.3670  0.1141
  240SOL    HW1 1554   3.366   3.650   3.302  1.7964 -0.7035 -0.7520
  240SOL    HW2 1555   3.482   3.729   3.357  1.1188 -0.3233  0.1496
  241SOL     OW 1556   6.413   5.460   2.049 -0.2645  0.4784 -0.4371
  241SOL    HW1 1557   6.351   5.487   1.981  0.6011 -0.6139 -1.7194
  241SOL    HW2 1558   6.465   5.538   2.066  0.8751  0.2678 -2.6037
  242SOL     OW 1559   0.312   2.442   2.042 -0.4741 -0.3424  0.6132
  242SOL    HW1 1560   0.251   2.381   2.084 -2.2153  0.4374 -0.6505
  242SOL    HW2 1561   0.310   2.520   2.097  1.2454 -1.1161  1.8618
  243SOL     OW 1562   2.644   1.413   4.823  0.2331  0.0279 -0.5197
  243SOL    HW1 1563   2.566   1.461   4.854 -0.0159 -0.8766  0.3077
  243SOL    HW2 1564   2.631   1.404   4.729 -2.4039 -3.0486 -0.0179
  244SOL     OW 1565   2.889   0.441   2.468 -0.1707  0.2669 -0.3464
  244SOL    HW1 1566   2.962   0.446   2.530  0.3113  0.4173 -0.9106
  244SOL    HW2 1567   2.811   0.439   2.523  0.1800  1.6999  0.2501
  245SOL     OW 1568   0.958   6.093   4.262 -0.5281 -0.6641 -0.6550
  245SOL    HW1 1569   0.923   6.102   4.173  1.9922  2.4822 -1.5637
  245SOL    HW2 1570   1.050   6.069   4.248  0.2329  1.0415  0.9460
  246SOL     OW 1571   6.626   1.526   3.236 -0.1466 -0.1160 -0.1373
  246SOL    HW1 1572   6.698   1.565   3.185  0.6940 -0.9546  0.3632
  246SOL    HW2 1573   6.647   1.547   3.327  0.3986 -1.7752  0.1618
  247SOL     OW 1574   4.371   0.992   2.304 -0.4870  0.4767  0.0254
  247SOL    HW1 1575   4.355   0.909   2.258 -0.7803 -1.3508  3.1512
  247SOL    HW2 1576   4.416   1.047   2.239 -1.3868 -1.6248 -2.5751
  248SOL     OW 1577   0.547   1.277   0.178  0.2067 -0.4166  0.3438
  248SOL    HW1 1578   0.573   1.369   0.170  2.8461 -1.1318 -0.1099
  248SOL    HW2 1579   0.522   1.268   0.270 -0.6247  0.8634  0.2733
  249SOL     OW 1580   3.438   4.211   5.115 -0.1249  0.4199  0.0265
  249SOL    HW1 1581   3.342   4.221   5.117 -0.1782  0.2372  2.8612
  249SOL    HW2 1582   3.451   4.116   5.108  0.0246  0.5488 -3.6586
  250SOL     OW 1583   0.906   4.821   0.295  0.3925 -0.4640 -0.1232
  250SOL    HW1 1584   0.989   4.788   0.260  0.3185 -1.1588  0.3444
  250SOL    HW2 1585   0.930   4.900   0.344  0.7711 -0.6505 -0.0060
  251SOL     OW 1586   7.928   7.287   2.641 -0.5336 -0.3786 -0.0966
  251SOL    HW1 1587   7.838   7.296   2.670 -1.2092 -0.6829 -1.9750
  251SOL    HW2 1588   7.922   7.265   2.548  1.4965  1.4251 -0.7479
  252SOL     OW 1589   7.226   4.017   5.299  0.4890 -0.0240  0.5561
  252SOL    HW1 1590   7.286   4.077   5.255  0.7930  0.3381  1.4315
  252SOL    HW2 1591   7.221   4.051   5.389  0.0334 -0.8426  0.8447
  253SOL     OW 1592   3.206   6.593   0.294 -0.4889 -0.1109  0.1093
  253SOL    HW1 1593   3.197   6.638   0.211  0.4217 -1.7895 -0.9557
  253SOL    HW2 1594   3.125   6.614   0.342 -0.8320  1.2150 -1.0091
  254SOL     OW 1595   2.584   1.222   5.812 -0.0215  0.0696  1.0558
  254SOL    HW1 1596   2.638   1.144   5.797 -0.5010 -0.0059 -0.4118
  254SOL    HW2 1597   2.620   1.288   5.752 -0.4028  0.5989  1.3942
  255SOL     OW 1598   0.145   1.642   5.512  0.5920  0.4224 -0.2371
  255SOL    HW1 1599   0.137   1.564   5.567 -0.6900  1.6222  1.3759
  255SOL    HW2 1600   0.079   1.630   5.443  0.3775  0.1088  0.0233
  256SOL     OW 1601   2.807   2.426   1.138 -0.2362 -0.2131  0.5324
  256SOL    HW1 1602   2.881   2.375   1.170 -0.4673  0.3347  2.0299
  256SOL    HW2 1603   2.844   2.512   1.119  0.1348 -0.8533 -1.8942
  257SOL     OW 1604   0.444   0.818   0.712 -0.0639 -1.0625 -0.5093
  257SOL    HW1 1605   0.375   0.784   0.769  0.2439 -0.4858  0.2303
  257SOL    HW2 1606   0.481   0.741   0.670 -1.4059 -1.3559 -1.2339
  258SOL     OW 1607   0.042   5.103   2.116 -0.3457  0.0589  0.1620
  258SOL    HW1 1608   0.135   5.095   2.100  0.4745  1.5791  3.3181
  258SOL    HW2 1609   0.017   5.021   2.159 -0.5121 -0.3640 -0.7191
  259SOL     OW 1610   1.786   6.396   3.488 -0.0679 -0.0669  0.7258
  259SOL    HW1 1611   1.832   6.406   3.405 -0.3149  0.1726  0.6138
  259SOL    HW2 1612   1.807   6.307   3.517 -0.2157 -0.2562  0.2610
  260SOL     OW 1613   2.026   1.620   5.724  0.1168 -0.0705 -0.1061
  260SOL    HW1 1614   1.946   1.569   5.707 -0.4488  0.5756  0.5048
  260SOL    HW2 1615   2.093   1.554   5.743 -0.1423 -0.6436 -1.0950
  261SOL     OW 1616   1.888   2.424   7.338 -0.1687  0.0016 -0.4547
  261SOL    HW1 1617   1.806   2.430   7.388  0.7084  4.6528  0.9322
  261SOL    HW2 1618   1.955   2.406   7.405  0.2918 -0.4080 -1.0221
  262SOL     OW 1619   4.736   0.057   4.171  0.0416  0.6285 -0.0997
  262SOL    HW1 1620   4.770   0.135   4.214 -1.9461  1.3268  0.3025
  262SOL    HW2 1621   4.798   0.039   4.101  1.0459  2.0001  0.4010
  263SOL     OW 1622   2.462   0.498   4.151 -0.9392 -0.5186 -0.0316
  263SOL    HW1 1623   2.447   0.551   4.073  2.4779 -0.4271 -0.8092
  263SOL    HW2 1624   2.443   0.408   4.124  1.6886 -0.7146 -1.6437
  264SOL     OW 1625   6.941   6.445   0.824  0.1257  0.1395 -0.2643
  264SOL    HW1 1626   6.980   6.524   0.786 -0.7157  0.0644 -1.3051
  264SOL    HW2 1627   6.853   6.441   0.788 -0.4566 -0.3518  1.1296
  265SOL     OW 1628   5.474   2.296   2.403  0.6254  0.0121 -0.5257
  265SOL    HW1 1629   5.450   2.252   2.485  1.2945 -0.5694 -0.6324
  265SOL    HW2 1630   5.390   2.309   2.358  0.2333  0.4515  0.2914
  266SOL     OW 1631   2.369   0.159   3.666 -0.2448 -0.3112  0.5202
  266SOL    HW1 1632   2.378   0.180   3.573  0.2102 -1.7121  0.2155
  266SOL    HW2 1633   2.275   0.168   3.683 -0.3742 -0.3282 -0.1544
  267SOL     OW 1634   7.399   5.845   5.824 -0.0547 -0.4031  0.1086
  267SOL    HW1 1635   7.425   5.766   5.777  1.3288 -0.1100  0.3428
  267SOL    HW2 1636   7.418   5.917   5.763  0.6526 -0.1070  0.6707
  268SOL     OW 1637   3.372   3.831   7.594 -0.1697 -0.6885  0.2919
  268SOL    HW1 1638   3.448   3.775   7.610  0.7559  0.2451 -0.6434
  268SOL    HW2 1639   3.408   3.920   7.597 -1.3268 -0.2132  0.3102
  269SOL     OW 1640   6.559   2.657   2.392  0.5190  0.3006  0.3335
  269SOL    HW1 1641   6.472   2.624   2.371 -0.0988  0.9703  1.6985
  269SOL    HW2 1642   6.568   2.738   2.344 -0.2013  0.9578  1.2777
  270SOL     OW 1643   0.578   2.370   3.458 -0.3525  0.0953  0.0135
  270SOL    HW1 1644   0.584   2.276   3.441  2.1330  0.2392 -0.3047
  270SOL    HW2 1645   0.592   2.378   3.553  0.0904  0.1894 -0.0609
  271SOL     OW 1646   6.979   3.334   4.963 -0.0110  0.3661  0.1740
  271SOL    HW1 1647   6.973   3.427   4.982 -1.6695  0.4601 -0.6078
  271SOL    HW2 1648   6.973   3.291   5.049  1.5291  0.9717  0.6074
  272SOL     OW 1649   3.824   0.230   2.771  0.3919  0.0158  0.1723
  272SOL    HW1 1650   3.790   0.317   2.748 -1.8701 -0.9816 -0.4979
  272SOL    HW2 1651   3.891   0.248   2.838 -1.4482  2.1566  1.6158
  273SOL     OW 1652   3.206   5.634   3.483 -0.1329  0.1659  0.0383
  273SOL    HW1 1653   3.155   5.715   3.493 -0.9685 -0.3486  0.0859
  273SOL    HW2 1654   3.254   5.626   3.566 -1.2406 -0.1750  0.6702
  274SOL     OW 1655   3.029   0.241   4.877  0.2216  0.1869 -0.1230
  274SOL    HW1 1656   2.987   0.237   4.791  0.6588  0.1046 -0.3399
  274SOL    HW2 1657   3.021   0.153   4.912 -0.3487  0.3289  0.1170
  275SOL     OW 1658   4.889   1.358   6.757 -0.8375  0.8512  0.2188
  275SOL    HW1 1659   4.868   1.265   6.768 -0.7640  0.8021 -0.0584
  275SOL    HW2 1660   4.971   1.358   6.708 -2.0417  1.0949 -1.9167
  276SOL     OW 1661   0.558   0.868   6.753 -0.1348  0.2160 -0.0510
  276SOL    HW1 1662   0.578   0.840   6.842  0.9096  0.2197 -0.2742
  276SOL    HW2 1663   0.524   0.790   6.710  0.6352 -0.1397 -0.0253
  277SOL     OW 1664   2.203   0.968   3.064 -0.2487  0.4293 -0.1676
  277SOL    HW1 1665   2.221   0.972   3.158 -1.8326  1.7769  0.1191
  277SOL    HW2 1666   2.284   1.001   3.023  0.9466 -1.3783  0.5980
  278SOL     OW 1667   5.272   0.616   2.615  0.2155 -0.0760 -0.0357
  278SOL    HW1 1668   5.225   0.548   2.664 -1.5346  0.4760 -0.8593
  278SOL    HW2 1669   5.361   0.614   2.650 -0.9234  0.3300  3.2378
  279SOL     OW 1670   3.661   0.124   1.811  0.0540 -0.1379  0.0858
  279SOL    HW1 1671   3.688   0.097   1.723  1.2708 -1.0092  0.7011
  279SOL    HW2 1672   3.615   0.048   1.846 -1.0919  0.4713 -0.0480
  280SOL     OW 1673   7.533   0.682   1.732  0.4913 -0.2422  0.8140
  280SOL    HW1 1674   7.447   0.659   1.698  1.2294  1.3623 -2.5309
  280SOL    HW2 1675   7.519   0.762   1.782  0.3217  1.9914 -2.5085
  281SOL     OW 1676   5.957   7.620   4.195 -0.1930 -0.1358  0.0094
  281SOL    HW1 1677   6.021   7.660   4.254 -0.4498  1.3367 -0.6683
  281SOL    HW2 1678   5.905   7.694   4.162 -1.8908 -1.2254  0.1146
  282SOL     OW 1679   1.493   1.638   4.167 -0.1311 -0.0231  0.1973
  282SOL    HW1 1680   1.540   1.588   4.100  0.0240  1.6959 -1.0563
  282SOL    HW2 1681   1.401   1.620   4.151 -0.1509  1.1451 -1.1855
  283SOL     OW 1682   5.931   3.514   1.615  0.3407 -0.1829 -0.0931
  283SOL    HW1 1683   5.861   3.476   1.563 -1.2270 -0.4498  2.0995
  283SOL    HW2 1684   5.977   3.439   1.652  1.9916 -0.0177 -1.6572
  284SOL     OW 1685   6.420   2.271   3.294 -0.2948 -0.6390 -0.3094
  284SOL    HW1 1686   6.446   2.267   3.202 -1.5644  0.4222 -0.7442
  284SOL    HW2 1687   6.487   2.324   3.337 -1.0258  1.0846 -1.1814
  285SOL     OW 1688   4.396   3.648   2.341  0.2851 -0.2866 -0.3327
  285SOL    HW1 1689   4.447   3.654   2.421 -2.6692  1.7561  1.5934
  285SOL    HW2 1690   4.387   3.739   2.311  0.7892 -0.9451 -2.6699
  286SOL     OW 1691   2.233   7.109   4.416 -0.2424  0.4704  0.5163
  286SOL    HW1 1692   2.246   7.163   4.494 -3.3266  1.0201  0.7534
  286SOL    HW2 1693   2.163   7.049   4.439  0.8853 -1.5068 -0.8753
  287SOL     OW 1694   7.114   0.990   2.210  0.2578 -0.3278 -0.2500
  287SOL    HW1 1695   7.023   0.966   2.196  0.1232  0.0516 -0.0311
  287SOL    HW2 1696   7.144   0.931   2.280 -0.0458  0.0658  0.2208
  288SOL     OW 1697   6.357   3.316   0.922  0.6372 -0.7304  0.5815
  288SOL    HW1 1698   6.334   3.232   0.882  0.6182 -0.7725  0.6827
  288SOL    HW2 1699   6.335   3.306   1.014 -2.1886  0.3840  0.1392
  289SOL     OW 1700   1.994   0.073   7.608  0.2798  0.0507 -0.1433
  289SOL    HW1 1701   1.954   0.155   7.578 -1.5980 -0.7606 -0.0195
  289SOL    HW2 1702   1.980   0.012   7.536  0.1468 -0.6091  0.4352
  290SOL     OW 1703   6.136   7.931   0.003  0.3566 -0.1099 -0.2551
  290SOL    HW1 1704   6.167   8.003  -0.052  0.5607 -0.7779 -1.0516
  290SOL    HW2 1705   6.058   7.898  -0.043  0.7835 -0.9608 -0.3898
  291SOL     OW 1706   6.693   5.630   5.161 -0.2328  0.0215 -0.3044
  291SOL    HW1 1707   6.695   5.687   5.238  1.5323 -0.2138 -0.1356
  291SOL    HW2 1708   6.694   5.541   5.197  0.8646 -0.0869 -0.5878
  292SOL     OW 1709   3.035   6.427   4.829 -0.4248  0.4438 -0.2922
  292SOL    HW1 1710   3.109   6.385   4.873 -1.3273 -0.5965  0.2651
  292SOL    HW2 1711   3.040   6.519   4.857  0.6156  0.3776 -0.2194
  293SOL     OW 1712   1.278   2.432   5.394  0.3337  0.3295  0.0813
  293SOL    HW1 1713   1.229   2.511   5.418  0.8792  1.2221 -1.5849
  293SOL    HW2 1714   1.360   2.439   5.442  0.8525  1.3872 -0.9253
  294SOL     OW 1715   3.768   0.415   3.345  0.2433 -0.3434  0.6384
  294SOL    HW1 1716   3.715   0.492   3.326  0.1205 -0.7758 -0.8773
  294SOL    HW2 1717   3.746   0.352   3.276  1.9447 -0.9268  0.5577
  295SOL     OW 1718   4.845   6.275   0.119  0.1812  0.0838  0.6268
  295SOL    HW1 1719   4.829   6.356   0.167 -2.1070 -0.4107  0.8308
  295SOL    HW2 1720   4.797   6.208   0.168  0.2558 -0.9946 -0.7010
  296SOL     OW 1721   7.194   4.677   0.991  0.4443  0.1132 -0.6882
  296SOL    HW1 1722   7.201   4.770   0.971  2.3985 -0.1175 -1.2602
  296SOL    HW2 1723   7.234   4.668   1.077  0.1706 -0.1873 -0.5915
  297SOL     OW 1724   2.381   7.919   5.079 -0.3053  0.1586  0.4649
  297SOL    HW1 1725   2.298   7.900   5.121 -0.2815  0.9619  0.9061
  297SOL    HW2 1726   2.447   7.900   5.145 -0.0459 -1.5383 -0.2474
  298SOL     OW 1727   0.480   3.585   5.811 -0.1215  0.4623 -0.6453
  298SOL    HW1 1728   0.475   3.566   5.904  0.1318  2.0848 -0.2720
  298SOL    HW2 1729   0.547   3.525   5.778 -0.9930 -0.9020 -0.0283
  299SOL     OW 1730   0.383   2.818   3.130 -0.2356  0.3430 -0.2877
  299SOL    HW1 1731   0.478   2.828   3.144 -0.3721 -0.3582  1.3927
  299SOL    HW2 1732   0.344   2.881   3.190 -0.8427 -0.3136  0.0233
  300SOL     OW 1733   4.722   2.219   2.956 -0.2988  0.3889 -0.3983
  300SOL    HW1 1734   4.677   2.207   3.039  0.8674 -0.6490  0.1091
  300SOL    HW2 1735   4.668   2.173   2.892  0.1346 -1.0453  0.2396
  301SOL     OW 1736   3.367   1.641   2.164  0.0668  0.1671 -0.0800
  301SOL    HW1 1737   3.430   1.690   2.112  0.1500 -0.5232 -0.6364
  301SOL    HW2 1738   3.420   1.592   2.227  0.0473 -0.0135 -0.2059
  302SOL     OW 1739   1.265   0.659   7.674 -0.4784  0.1101  0.1903
  302SOL    HW1 1740   1.173   0.635   7.679 -0.3592 -0.2780  0.7145
  302SOL    HW2 1741   1.274   0.733   7.735  0.1397 -1.8569  2.6760
  303SOL     OW 1742   2.157   2.954   1.918  0.0783 -0.1500 -0.5032
  303SOL    HW1 1743   2.185   2.952   2.010  0.9623 -0.2255 -0.7628
  303SOL    HW2 1744   2.129   2.865   1.899 -0.8706  0.0434 -0.0924
  304SOL     OW 1745   4.827   6.618   2.114 -0.0762 -0.1100  0.3713
  304SOL    HW1 1746   4.812   6.539   2.167  0.0945 -0.3850  0.0142
  304SOL    HW2 1747   4.921   6.635   2.122 -0.2900  0.6895  1.3212
  305SOL     OW 1748   4.193   0.273   2.152  0.3055  0.7663  0.1173
  305SOL    HW1 1749   4.147   0.349   2.186  1.8914  0.8270  2.3792
  305SOL    HW2 1750   4.228   0.302   2.068 -0.4182  1.9974  0.2165
  306SOL     OW 1751   1.270   5.137   4.334  0.0347  0.7502 -0.5709
  306SOL    HW1 1752   1.269   5.051   4.376 -0.3819  0.1454 -1.7533
  306SOL    HW2 1753   1.329   5.126   4.260 -0.4026  1.3356 -1.0121
  307SOL     OW 1754   1.910   0.923   5.479 -0.2709 -0.5778  0.6557
  307SOL    HW1 1755   1.995   0.899   5.442 -1.4512 -0.5458 -2.4162
  307SOL    HW2 1756   1.864   0.840   5.489 -1.9260 -0.4625 -3.5956
  308SOL     OW 1757   7.493   2.136   0.377 -0.3147 -0.4013 -0.2959
  308SOL    HW1 1758   7.482   2.055   0.426 -1.8967 -0.3798 -0.5612
  308SOL    HW2 1759   7.533   2.109   0.295  2.0198 -0.4836  0.7731
  309SOL     OW 1760   6.804   5.533   4.924 -0.8170 -0.2442  0.2180
  309SOL    HW1 1761   6.778   5.465   4.986 -0.6851 -0.5977 -0.1142
  309SOL    HW2 1762   6.820   5.610   4.979  0.3222 -0.8349  0.7428
  310SOL     OW 1763   1.322   7.279   4.662 -0.3970 -0.3324  0.4039
  310SOL    HW1 1764   1.298   7.199   4.708 -1.5960  0.1836  0.7084
  310SOL    HW2 1765   1.324   7.346   4.730  0.0815  0.0064  0.0643
  311SOL     OW 1766   1.353   6.036   3.210  0.2238  0.7778 -0.1067
  311SOL    HW1 1767   1.267   6.003   3.186 -0.1820  1.4940  0.3247
  311SOL    HW2 1768   1.406   5.958   3.224 -0.2277  0.3354 -0.8138
  312SOL     OW 1769   1.099   1.080   6.566  0.4265  0.1755 -0.1347
  312SOL    HW1 1770   1.013   1.077   6.526  0.3619  0.0190  0.0142
  312SOL    HW2 1771   1.151   1.135   6.508 -0.3741  2.1515  0.9279
  313SOL     OW 1772   7.088   7.721   0.661 -0.3593  0.4712  0.4283
  313SOL    HW1 1773   7.136   7.751   0.737  1.1856 -0.6939 -0.0255
  313SOL    HW2 1774   7.041   7.643   0.691  0.0073  0.1874  0.2692
  314SOL     OW 1775   5.312   2.134   4.999 -0.4369 -0.4813  0.0050
  314SOL    HW1 1776   5.320   2.105   4.908 -1.5268  0.1567 -0.3104
  314SOL    HW2 1777   5.321   2.054   5.050  2.6956 -0.5619 -0.4798
  315SOL     OW 1778   5.690   4.169   0.764 -0.5109  0.7226 -0.1883
  315SOL    HW1 1779   5.710   4.262   0.750 -1.4956  1.0708  0.6374
  315SOL    HW2 1780   5.751   4.123   0.707  0.6711  1.8404  0.1348
  316SOL     OW 1781   5.983   7.759   0.859 -0.4977  0.1023 -0.3910
  316SOL    HW1 1782   5.987   7.717   0.945 -0.2701 -0.2672 -0.5770
  316SOL    HW2 1783   5.916   7.826   0.868  1.4503  2.0175  0.9220
  317SOL     OW 1784   1.374   3.391   4.113  0.4085 -0.1945 -0.1400
  317SOL    HW1 1785   1.445   3.450   4.087  1.2340  0.2161  2.7144
  317SOL    HW2 1786   1.365   3.403   4.207 -2.1406 -1.7287 -0.0715
  318SOL     OW 1787   0.240   3.884   5.129  0.4704  0.3470 -0.4104
  318SOL    HW1 1788   0.167   3.843   5.174 -0.1902  0.8496 -0.9887
  318SOL    HW2 1789   0.308   3.816   5.124 -0.0736 -0.2199 -0.1499
  319SOL     OW 1790   7.526   2.356   7.923 -0.8772  0.1184 -0.2208
  319SOL    HW1 1791   7.606   2.405   7.900  0.1261 -1.3410  0.0102
  319SOL    HW2 1792   7.490   2.328   7.839 -0.5718 -0.0884 -0.2838
  320SOL     OW 1793   5.327   5.081   2.170  0.3261 -0.8421  0.4575
  320SOL    HW1 1794   5.371   5.021   2.229  1.4436 -1.8137 -1.2785
  320SOL    HW2 1795   5.234   5.061   2.179  0.1846  0.5668  3.4506
  321SOL     OW 1796   0.038   7.623   7.231  0.4297 -0.0712  0.1853
  321SOL    HW1 1797  -0.046   7.578   7.225  0.6288 -0.2369 -2.9651
  321SOL    HW2 1798   0.103   7.553   7.220  0.8307  0.4744 -1.1607
  322SOL     OW 1799   3.844   5.790   2.325 -0.0723  0.3395  0.4238
  322SOL    HW1 1800   3.762   5.840   2.329 -0.2827 -0.0637  1.7866
  322SOL    HW2 1801   3.905   5.841   2.379 -0.0079 -0.3670  1.0289
  323SOL     OW 1802   7.246   3.428   6.680 -0.3321  0.2433 -0.3243
  323SOL    HW1 1803   7.257   3.336   6.656 -2.5807 -0.3843  0.6984
  323SOL    HW2 1804   7.190   3.464   6.610 -1.1103  0.2619  0.2887
  324SOL     OW 1805   1.737   3.027   7.605 -0.2649 -0.1099 -0.8578
  324SOL    HW1 1806   1.671   3.013   7.674  1.0346 -1.2394  0.2179
  324SOL    HW2 1807   1.793   3.096   7.639  0.3394 -0.6200 -0.8104
  325SOL     OW 1808   0.775   3.432   4.756 -0.1133  0.7699  0.6189
  325SOL    HW1 1809   0.848   3.473   4.710 -0.5941 -0.2069 -1.0931
  325SOL    HW2 1810   0.706   3.424   4.690 -0.4708 -1.6217  1.1778
  326SOL     OW 1811   0.646   2.396   5.659 -0.3699  0.0092 -0.5417
  326SOL    HW1 1812   0.561   2.378   5.699 -1.1547  0.2073 -2.0485
  326SOL    HW2 1813   0.691   2.312   5.658 -0.9407 -0.2946 -0.6328
  327SOL     OW 1814   0.554   3.681   7.537  0.1542 -0.8388  0.1931
  327SOL    HW1 1815   0.463   3.691   7.509  0.2639  1.2206  0.4318
  327SOL    HW2 1816   0.552   3.604   7.595 -0.8408 -2.5985 -2.0317
  328SOL     OW 1817   2.905   4.885   1.991 -0.1945 -0.0545  0.2197
  328SOL    HW1 1818   2.820   4.886   1.947  0.9155 -0.4284 -2.0958
  328SOL    HW2 1819   2.956   4.818   1.944  1.0123 -0.6824  2.3043
  329SOL     OW 1820   4.661   0.341   5.058 -0.0127 -0.2282  0.6692
  329SOL    HW1 1821   4.716   0.332   5.135  0.5334  0.6187  0.3945
  329SOL    HW2 1822   4.594   0.405   5.083  0.1203 -0.0083  0.4773
  330SOL     OW 1823   2.561   1.413   2.807  0.2563 -0.5799  0.0753
  330SOL    HW1 1824   2.652   1.423   2.779  0.2506 -2.2226 -0.6198
  330SOL    HW2 1825   2.557   1.324   2.843 -1.2363 -0.7957 -0.5732
  331SOL     OW 1826   0.540   1.642   4.030 -0.3182 -0.0249 -0.0138
  331SOL    HW1 1827   0.526   1.609   3.941  0.1607  1.9109 -0.8657
  331SOL    HW2 1828   0.617   1.596   4.061 -0.2551 -0.4388 -0.7614
  332SOL     OW 1829   2.202   5.625   0.528  0.3933  0.0182  0.3362
  332SOL    HW1 1830   2.271   5.561   0.510  0.3796  0.0943  0.0020
  332SOL    HW2 1831   2.141   5.579   0.586  1.5511  0.4824  2.0074
  333SOL     OW 1832   6.272   5.053   0.648 -0.0460 -0.3567 -0.5557
  333SOL    HW1 1833   6.348   4.996   0.660  0.3354  0.4421  1.0270
  333SOL    HW2 1834   6.305   5.128   0.598  0.1478 -0.1382 -0.1007
  334SOL     OW 1835   3.068   3.603   5.108  0.4441  0.2436  0.0926
  334SOL    HW1 1836   3.162   3.598   5.089  0.2111 -1.3990 -0.7969
  334SOL    HW2 1837   3.042   3.512   5.126 -0.3876  1.0025  3.5397
  335SOL     OW 1838   6.287   4.410   5.435  0.0695  0.0171 -0.5160
  335SOL    HW1 1839   6.292   4.506   5.436  0.0219  0.0200  0.2735
  335SOL    HW2 1840   6.359   4.383   5.379  1.1115  0.4763  0.5513
  336SOL     OW 1841   4.212   7.192   0.321 -0.6236 -1.0639 -0.1183
  336SOL    HW1 1842   4.295   7.168   0.361 -1.3112 -1.0862  1.3544
  336SOL    HW2 1843   4.222   7.285   0.299 -0.6369 -0.7323  1.2147
  337SOL     OW 1844   0.043   2.632   3.588 -0.4568  0.0176 -0.2431
  337SOL    HW1 1845   0.093   2.551   3.598 -3.1575 -1.6547  1.0769
  337SOL    HW2 1846   0.063   2.683   3.666 -1.0804 -0.8588  0.5202
  338SOL     OW 1847   0.140   6.379   3.095 -0.5159  0.7832 -0.5041
  338SOL    HW1 1848   0.140   6.434   3.017 -0.9397  0.1017 -0.9989
  338SOL    HW2 1849   0.112   6.437   3.166 -0.2595  1.3746 -0.8855
  339SOL     OW 1850   5.651   7.919   2.908  0.4383  0.5654  0.1304
  339SOL    HW1 1851   5.569   7.870   2.918  1.1821 -0.8259 -0.4400
  339SOL    HW2 1852   5.642   7.992   2.970  0.1370 -1.4202  2.6178
  340SOL     OW 1853   5.458   0.383   5.567 -0.1841 -0.4307  0.2946
  340SOL    HW1 1854   5.376   0.360   5.612 -0.8149 -0.3311 -0.7627
  340SOL    HW2 1855   5.481   0.469   5.601 -2.0519  0.8200 -1.3716
  341SOL     OW 1856   0.242   1.318   5.935  0.1534 -0.3610 -0.1781
  341SOL    HW1 1857   0.157   1.279   5.915 -0.4017  1.1541 -0.9884
  341SOL    HW2 1858   0.287   1.321   5.851  0.1562  0.7468 -0.1512
  342SOL     OW 1859   3.614   2.234   1.891 -0.1633  0.6084  0.2183
  342SOL    HW1 1860   3.635   2.202   1.803 -1.2800 -0.4181  0.2988
  342SOL    HW2 1861   3.520   2.250   1.889 -0.1741  0.7211  1.1793
  343SOL     OW 1862   7.225   7.101   7.205  0.7310  0.6649  0.7085
  343SOL    HW1 1863   7.158   7.113   7.272 -0.5582  0.3989 -0.4809
  343SOL    HW2 1864   7.284   7.035   7.242 -1.1733 -1.1510  0.7433
  344SOL     OW 1865   4.567   7.816   1.204 -0.9477  0.3952  0.4400
  344SOL    HW1 1866   4.544   7.884   1.268 -1.5008  0.1613  0.4945
  344SOL    HW2 1867   4.622   7.755   1.253 -0.0404  1.0475  0.2644
  345SOL     OW 1868   7.266   0.639   1.673  0.6336 -0.9059  0.0660
  345SOL    HW1 1869   7.177   0.675   1.677 -0.2773 -3.1156  1.2972
  345SOL    HW2 1870   7.295   0.659   1.584 -1.2925 -0.5448 -0.5319
  346SOL     OW 1871   0.577   2.527   7.682  0.1067  0.1763  0.1161
  346SOL    HW1 1872   0.513   2.591   7.713  1.2092  1.3620  0.0425
  346SOL    HW2 1873   0.557   2.448   7.732  0.2511  1.3032  2.1131
  347SOL     OW 1874   1.062   3.977   6.097  0.6000 -0.0231  0.5179
  347SOL    HW1 1875   1.012   3.912   6.047  0.2291  0.3589  0.3856
  347SOL    HW2 1876   1.097   4.036   6.031  0.8590 -0.0335  0.6447
  348SOL     OW 1877   2.060   7.007   3.427  0.5038 -0.5990  0.3596
  348SOL    HW1 1878   1.972   6.979   3.455 -0.4898 -1.5461 -3.2030
  348SOL    HW2 1879   2.105   6.926   3.405  0.7172  0.0568 -1.8470
  349SOL     OW 1880   3.288   3.707   0.155 -0.2977  0.4268 -0.0904
  349SOL    HW1 1881   3.327   3.621   0.137 -1.3790 -0.1238  0.0581
  349SOL    HW2 1882   3.333   3.767   0.096  0.0310 -0.3728 -0.6693
  350SOL     OW 1883   0.439   4.522   3.594  0.0439  0.5161  0.1689
  350SOL    HW1 1884   0.422   4.432   3.566 -1.6448  1.1817 -1.0712
  350SOL    HW2 1885   0.535   4.528   3.597  0.1940 -1.1215 -0.3545
  351SOL     OW 1886   3.454   1.073   2.016  0.9282  0.6395 -0.1108
  351SOL    HW1 1887   3.504   1.086   2.096  1.0599  1.8275 -0.3649
  351SOL    HW2 1888   3.515   1.097   1.946  0.4424  0.7536 -0.4998
  352SOL     OW 1889   2.468   1.947   6.891 -0.1255  0.1452 -0.1039
  352SOL    HW1 1890   2.493   1.854   6.885 -2.7040 -0.6933  0.8012
  352SOL    HW2 1891   2.515   1.979   6.969 -0.3432 -0.8198  0.4409
  353SOL     OW 1892   5.114   4.246   2.133 -0.7440  0.1547 -0.0496
  353SOL    HW1 1893   5.160   4.249   2.049 -0.5511 -1.0063  0.0016
  353SOL    HW2 1894   5.156   4.314   2.186  1.3298 -1.2463  0.2008
  354SOL     OW 1895   1.709   4.146   6.535 -0.5883 -0.1157  0.3728
  354SOL    HW1 1896   1.671   4.067   6.574 -1.7818  1.5985  2.9640
  354SOL    HW2 1897   1.634   4.197   6.505 -0.1961  1.6746  2.2119
  355SOL     OW 1898   6.276   7.311   1.635  0.1158 -0.4709 -0.1054
  355SOL    HW1 1899   6.280   7.381   1.569  0.6721 -1.1478 -0.8141
  355SOL    HW2 1900   6.337   7.340   1.703 -0.1198  0.0248 -0.0999
  356SOL     OW 1901   4.118   6.977   0.540  0.2988 -0.2984  0.2825
  356SOL    HW1 1902   4.200   6.929   0.529 -0.3105 -1.1935 -0.5182
  356SOL    HW2 1903   4.142   7.068   0.522  0.7461 -0.8014 -2.1466
  357SOL     OW 1904   0.562   5.491   3.661  0.3138  0.1086  0.3192
  357SOL    HW1 1905   0.640   5.471   3.713 -0.5917  0.6502  1.9849
  357SOL    HW2 1906   0.516   5.558   3.712 -0.3564  1.1021 -1.4931
  358SOL     OW 1907   0.599   7.598   5.722  0.2180  0.2190 -0.2739
  358SOL    HW1 1908   0.578   7.610   5.630  0.0056  0.0254 -0.2516
  358SOL    HW2 1909   0.692   7.620   5.729  0.2203  0.2896 -0.5220
  359SOL     OW 1910   1.956   2.102   5.163  0.0229 -0.0944  1.1180
  359SOL    HW1 1911   1.915   2.155   5.231 -0.6993  0.4808  0.2597
  359SOL    HW2 1912   1.932   2.145   5.081  0.9012 -0.7537  0.4944
  360SOL     OW 1913   7.861   4.677   5.532  0.6824  0.1722  0.5478
  360SOL    HW1 1914   7.875   4.687   5.626  0.8454 -0.4395  0.5908
  360SOL    HW2 1915   7.772   4.641   5.524  0.4663  0.7087  0.4369
  361SOL     OW 1916   2.195   7.779   4.107 -0.7119  0.0734  0.1512
  361SOL    HW1 1917   2.161   7.770   4.196  0.9800 -0.0052  0.8272
  361SOL    HW2 1918   2.239   7.864   4.107  0.1374 -0.3474 -0.2947
  362SOL     OW 1919   6.709   7.247   2.633 -0.2688 -0.6442 -0.6233
  362SOL    HW1 1920   6.637   7.184   2.619 -1.1866  0.2468 -0.0570
  362SOL    HW2 1921   6.666   7.324   2.670  0.7466  0.5710 -1.8690
  363SOL     OW 1922   5.394   2.668   5.572  0.0847 -0.5347 -0.3773
  363SOL    HW1 1923   5.435   2.738   5.623  2.7774 -2.5038  0.3627
  363SOL    HW2 1924   5.311   2.651   5.617 -0.2607  1.5548 -0.1064
  364SOL     OW 1925   6.283   3.644   2.167  0.3435 -0.2496 -0.2824
  364SOL    HW1 1926   6.225   3.694   2.224  1.3730 -0.8699  1.3985
  364SOL    HW2 1927   6.361   3.698   2.159  0.3996 -0.3892 -0.6910
  365SOL     OW 1928   1.240   7.692   0.729 -0.4736  0.1830 -0.2399
  365SOL    HW1 1929   1.208   7.774   0.766  0.8538  0.6349 -0.0345
  365SOL    HW2 1930   1.264   7.639   0.806  0.9185  0.5516 -0.4009
  366SOL     OW 1931   4.503   5.910   4.529  0.2122  0.5233  0.9396
  366SOL    HW1 1932   4.459   5.991   4.505  0.3853  0.4278  0.2758
  366SOL    HW2 1933   4.544   5.880   4.447  0.8316  0.1944  1.3660
  367SOL     OW 1934   6.258   1.327   5.260 -0.1428 -0.1575  0.1634
  367SOL    HW1 1935   6.163   1.318   5.264 -0.2744  1.1803  0.5963
  367SOL    HW2 1936   6.276   1.363   5.174  0.1224 -1.6965 -0.4616
  368SOL     OW 1937   6.699   5.100   3.809  0.4392  0.0562 -0.2242
  368SOL    HW1 1938   6.758   5.032   3.777  0.5946 -0.5656  1.2841
  368SOL    HW2 1939   6.746   5.139   3.883 -0.3564  0.6830 -0.0354
  369SOL     OW 1940   3.971   1.930   6.448 -0.1482 -0.3387 -0.0810
  369SOL    HW1 1941   3.976   1.963   6.358 -1.8209 -0.7226 -0.3604
  369SOL    HW2 1942   4.032   1.984   6.497 -0.5287  1.0926 -1.1038
  370SOL     OW 1943   3.736   7.387   4.810  0.2774  0.1181  0.8502
  370SOL    HW1 1944   3.760   7.307   4.857  1.1259  0.0655  0.3533
  370SOL    HW2 1945   3.781   7.457   4.857 -0.3894  0.3005  1.2276
  371SOL     OW 1946   3.480   3.022   5.247 -0.0586  0.8897  0.0140
  371SOL    HW1 1947   3.525   3.023   5.332  1.7748 -1.6780 -0.7982
  371SOL    HW2 1948   3.550   3.038   5.183 -0.5766 -1.3376 -1.2004
  372SOL     OW 1949   6.748   1.148   2.653  0.3945 -0.0621 -0.0188
  372SOL    HW1 1950   6.836   1.156   2.618  0.6267 -0.9601  0.3306
  372SOL    HW2 1951   6.738   1.054   2.672  0.3835  0.4051  2.5621
  373SOL     OW 1952   7.588   2.511   4.818  0.4524 -0.4112  0.7924
  373SOL    HW1 1953   7.494   2.501   4.832  0.5561 -3.0345  0.0385
  373SOL    HW2 1954   7.597   2.520   4.723  1.0466 -1.5711  0.7316
  374SOL     OW 1955   3.698   4.954   4.410  0.1953 -0.3291 -0.1316
  374SOL    HW1 1956   3.741   4.906   4.481  0.6146  1.1291  0.6281
  374SOL    HW2 1957   3.645   5.020   4.454 -2.7793 -1.9286 -1.0225
  375SOL     OW 1958   6.440   1.652   0.551  0.0983  0.0967 -0.0746
  375SOL    HW1 1959   6.419   1.669   0.643  0.2960 -0.4749  0.0795
  375SOL    HW2 1960   6.362   1.609   0.516  0.5158 -0.8687  0.1666
  376SOL     OW 1961   7.192   4.810   2.736 -0.6261  0.4700  0.3946
  376SOL    HW1 1962   7.211   4.862   2.814  1.9458  0.6746 -0.2728
  376SOL    HW2 1963   7.199   4.872   2.663 -1.3787 -0.0545 -0.1495
  377SOL     OW 1964   2.494   5.614   5.639 -0.5455 -0.0440  0.4894
  377SOL    HW1 1965   2.537   5.700   5.644 -0.1162 -0.2532  0.3930
  377SOL    HW2 1966   2.447   5.606   5.722 -0.5489  0.2635  0.5189
  378SOL     OW 1967   1.250   4.798   3.414 -0.0362  0.1025 -0.5262
  378SOL    HW1 1968   1.155   4.807   3.427  0.2661  0.8429  1.6087
  378SOL    HW2 1969   1.289   4.850   3.484  1.9632 -0.6739 -0.9924
  379SOL     OW 1970   0.180   4.842   7.742 -0.3739  0.5852  0.3282
  379SOL    HW1 1971   0.200   4.752   7.767  0.0905  0.9998  1.5805
  379SOL    HW2 1972   0.121   4.835   7.668  0.6106 -0.7362 -0.3600
  380SOL     OW 1973   7.827   5.044   4.740  0.1144 -0.3025 -0.5530
  380SOL    HW1 1974   7.832   5.134   4.772 -1.5693 -0.8336  1.4414
  380SOL    HW2 1975   7.739   5.036   4.703  0.5491 -0.9057 -1.4877
  381SOL     OW 1976   2.196   0.523   6.424  0.4131 -0.0112 -0.6624
  381SOL    HW1 1977   2.122   0.545   6.367  0.3653  1.0568 -0.2113
  381SOL    HW2 1978   2.185   0.580   6.500  1.3031 -0.3643 -0.2607
  382SOL     OW 1979   1.332   6.976   6.668  0.1268 -0.6807 -0.4851
  382SOL    HW1 1980   1.317   7.043   6.601 -2.2866  1.2633  1.7656
  382SOL    HW2 1981   1.374   7.022   6.740 -2.2437 -1.2676  1.4139
  383SOL     OW 1982   0.693   6.421   6.162 -0.7649  0.4402  0.4931
  383SOL    HW1 1983   0.642   6.502   6.164  0.7663  1.5942 -1.9451
  383SOL    HW2 1984   0.778   6.445   6.198  0.1729  0.3810 -1.5301
  384SOL     OW 1985   5.745   2.327   4.245  0.5807  0.2268  0.4934
  384SOL    HW1 1986   5.790   2.403   4.281  1.8624 -0.6671  0.8777
  384SOL    HW2 1987   5.655   2.356   4.231  1.0946  1.8796  0.3797
  385SOL     OW 1988   4.316   5.399   7.542 -0.1949 -0.1460 -0.0593
  385SOL    HW1 1989   4.330   5.492   7.524 -1.4376  0.2114  0.7114
  385SOL    HW2 1990   4.259   5.370   7.471 -1.5571  0.2230  0.8439
  386SOL     OW 1991   3.417   2.262   3.580 -0.1541 -0.4985 -0.6752
  386SOL    HW1 1992   3.495   2.311   3.604  0.6234 -1.8997 -0.2068
  386SOL    HW2 1993   3.345   2.310   3.621  0.6362 -0.0687  0.2599
  387SOL     OW 1994   6.638   0.731   3.299 -0.1658  0.1142 -0.2961
  387SOL    HW1 1995   6.647   0.681   3.380  0.5805  0.7518  0.0299
  387SOL    HW2 1996   6.567   0.688   3.251  0.3191 -1.1255  0.0656
  388SOL     OW 1997   0.580   0.893   5.191 -0.5749 -0.4582  0.0323
  388SOL    HW1 1998   0.494   0.934   5.189 -0.6515 -0.5878  0.5900
  388SOL    HW2 1999   0.586   0.844   5.109 -0.3214  1.0028 -0.8537
  389SOL     OW 2000   0.891   7.102   5.004  0.1723 -0.0860  0.4775
  389SOL    HW1 2001   0.958   7.044   5.040  0.2040  1.1350  2.6122
  389SOL    HW2 2002   0.808   7.062   5.029  0.0627 -1.2760 -1.6258
  390SOL     OW 2003   3.089   5.103   2.416  0.3156 -0.0918 -0.1433
  390SOL    HW1 2004   3.106   5.180   2.469 -0.1221  0.4134 -0.7186
  390SOL    HW2 2005   3.093   5.134   2.326  1.5471 -1.0372 -0.4429
  391SOL     OW 2006   3.069   1.240   5.246  0.0710 -0.0411  1.5760
  391SOL    HW1 2007   3.058   1.293   5.325 -0.8222  0.3297  1.2174
  391SOL    HW2 2008   2.982   1.238   5.207  0.4937 -0.2621  0.6272
  392SOL     OW 2009   6.592   5.696   5.685  0.0298  0.0568 -0.6519
  392SOL    HW1 2010   6.586   5.765   5.619  1.0701 -0.0068 -0.8329
  392SOL    HW2 2011   6.503   5.662   5.693 -0.2411  0.5497 -1.4968
  393SOL     OW 2012   0.348   6.575   1.856 -0.4927  0.2488  0.1505
  393SOL    HW1 2013   0.443   6.564   1.858 -0.3837  0.4201 -2.0659
  393SOL    HW2 2014   0.319   6.525   1.780 -1.9722  1.5810 -0.2254
  394SOL     OW 2015   4.082   6.520   6.007 -0.0857  0.0897  0.3020
  394SOL    HW1 2016   4.010   6.536   5.946 -0.7740 -1.4906  0.6572
  394SOL    HW2 2017   4.160   6.520   5.952 -0.6355 -0.6812 -0.5078
  395SOL     OW 2018   2.258   7.652   5.386 -0.0564  0.1426  0.1120
  395SOL    HW1 2019   2.230   7.632   5.296  1.1371 -2.2255  0.2022
  395SOL    HW2 2020   2.255   7.748   5.390 -2.7829  0.2713 -1.5476
  396SOL     OW 2021   7.920   1.161   4.319 -0.1413  0.5215  0.2182
  396SOL    HW1 2022   7.987   1.182   4.384 -0.3273  0.7206  0.3472
  396SOL    HW2 2023   7.969   1.123   4.246  0.1638  1.0813  0.1275
  397SOL     OW 2024   6.749   2.980   1.050  0.0295 -0.6019 -0.2182
  397SOL    HW1 2025   6.707   2.896   1.034  0.7403 -0.9724 -0.1665
  397SOL    HW2 2026   6.684   3.045   1.022 -0.1182 -1.1809 -1.2539
  398SOL     OW 2027   1.337   0.413   5.927 -0.3738  1.1582  0.5565
  398SOL    HW1 2028   1.416   0.398   5.876 -0.8086 -0.9756  0.4432
  398SOL    HW2 2029   1.269   0.428   5.862 -1.0496 -2.1456  0.3444
  399SOL     OW 2030   6.665   7.562   0.591  0.4742  0.4664  0.3568
  399SOL    HW1 2031   6.638   7.630   0.529 -0.2381  0.0216  0.1603
  399SOL    HW2 2032   6.604   7.490   0.575 -0.1832  0.5933  2.0611
  400SOL     OW 2033   1.686   1.475   5.127  0.2290 -0.0441 -0.3565
  400SOL    HW1 2034   1.666   1.486   5.220 -0.4686 -0.4422 -0.4515
  400SOL    HW2 2035   1.630   1.538   5.083 -0.7005 -1.0249 -0.6139
  401SOL     OW 2036   0.178   7.405   0.358 -0.3088 -0.5034  0.2774
  401SOL    HW1 2037   0.184   7.313   0.336  0.4663 -0.4585  0.2826
  401SOL    HW2 2038   0.260   7.425   0.403 -0.8909 -0.0581  1.1983
  402SOL     OW 2039   2.904   5.410   6.345  0.0686 -0.5602 -0.4172
  402SOL    HW1 2040   2.963   5.398   6.271  0.0130  0.5794 -0.6750
  402SOL    HW2 2041   2.929   5.496   6.381 -0.6685 -0.5817  0.1693
  403SOL     OW 2042   2.445   1.449   5.021 -0.0866  0.1640  0.4103
  403SOL    HW1 2043   2.420   1.358   5.039 -0.6252  0.4533  1.1943
  403SOL    HW2 2044   2.446   1.491   5.107 -1.1321  1.2195 -0.0585
  404SOL     OW 2045   5.647   1.031   7.736  0.1536  0.1128  0.0587
  404SOL    HW1 2046   5.691   1.036   7.651  0.7544 -0.0355  0.3562
  404SOL    HW2 2047   5.636   0.937   7.751 -0.4383  0.1544 -0.0977
  405SOL     OW 2048   7.042   0.824   1.687  0.4033  0.4915 -0.6883
  405SOL    HW1 2049   7.097   0.818   1.765  0.6604 -2.5049 -0.9792
  405SOL    HW2 2050   7.075   0.901   1.641  2.2494  0.5975  0.6860
  406SOL     OW 2051   2.373   6.184   1.244 -0.9701 -0.2265 -0.4570
  406SOL    HW1 2052   2.415   6.229   1.318 -2.0963  1.7258 -0.9315
  406SOL    HW2 2053   2.383   6.091   1.264  0.2900  0.2270  1.2677
  407SOL     OW 2054   6.370   6.831   1.124  0.3196  0.4251  0.0744
  407SOL    HW1 2055   6.316   6.790   1.192  2.8249 -1.5183  1.0685
  407SOL    HW2 2056   6.314   6.832   1.047 -1.5299 -0.3752  1.3355
  408SOL     OW 2057   4.438   7.250   5.376 -0.1491 -0.1313  0.0165
  408SOL    HW1 2058   4.345   7.230   5.387 -0.1666 -1.2166 -1.8011
  408SOL    HW2 2059   4.481   7.198   5.444 -0.8912  1.1389  1.5317
  409SOL     OW 2060   6.840   0.877   4.706  0.5217  0.0844 -0.0373
  409SOL    HW1 2061   6.760   0.883   4.759  0.2057  0.2586 -0.5272
  409SOL    HW2 2062   6.808   0.872   4.616  1.0987  1.1919 -0.3148
  410SOL     OW 2063   7.221   7.769   7.120 -0.1448 -0.1495  0.2155
  410SOL    HW1 2064   7.179   7.827   7.057  0.0323  0.1482  0.3740
  410SOL    HW2 2065   7.153   7.749   7.184 -0.2438 -0.2286  0.0879
  411SOL     OW 2066   4.718   3.433   6.173 -0.3284 -0.3429 -0.4605
  411SOL    HW1 2067   4.679   3.362   6.224 -1.0153  0.1975 -0.2136
  411SOL    HW2 2068   4.652   3.455   6.107  0.4500 -0.8705 -1.4538
  412SOL     OW 2069   6.976   1.120   2.503  0.1961 -0.3840 -0.5869
  412SOL    HW1 2070   6.975   1.182   2.430  0.1499 -1.9994 -2.0198
  412SOL    HW2 2071   6.963   1.035   2.462  1.5568 -1.4972  1.1702
  413SOL     OW 2072   0.762   1.012   7.082  0.4837 -0.3352 -0.0805
  413SOL    HW1 2073   0.710   0.934   7.061  0.2453  0.0582 -0.9792
  413SOL    HW2 2074   0.712   1.085   7.046  0.4103  0.3096  1.2748
  414SOL     OW 2075   2.282   1.339   0.189  0.2453  0.2744  0.2526
  414SOL    HW1 2076   2.261   1.310   0.100  1.9219  0.1753 -0.1603
  414SOL    HW2 2077   2.366   1.296   0.208  0.1912  0.7570  1.6618
  415SOL     OW 2078   2.982   7.437   4.355 -0.3927  0.0302 -0.1590
  415SOL    HW1 2079   2.940   7.514   4.316  2.4467  0.9211 -1.7253
  415SOL    HW2 2080   2.909   7.381   4.382 -2.5409  2.2940 -0.9284
  416SOL     OW 2081   6.486   3.795   5.370 -0.5028 -0.2327  0.5724
  416SOL    HW1 2082   6.488   3.699   5.366  0.5148 -0.1882 -0.8127
  416SOL    HW2 2083   6.429   3.820   5.297  1.2731  0.2568 -0.6959
  417SOL     OW 2084   0.822   1.716   3.809  0.2560  0.0921  0.0718
  417SOL    HW1 2085   0.801   1.784   3.872  1.7666 -0.3211  1.0777
  417SOL    HW2 2086   0.800   1.634   3.854 -1.6502 -0.1371 -1.1634
  418SOL     OW 2087   2.306   0.335   4.846 -0.3189 -0.0154 -0.2100
  418SOL    HW1 2088   2.392   0.330   4.886 -0.7840 -0.2510  0.7814
  418SOL    HW2 2089   2.290   0.248   4.810  0.0231  0.1451 -0.7579
  419SOL     OW 2090   1.177   7.675   5.634 -0.2755 -0.2340  0.3727
  419SOL    HW1 2091   1.114   7.606   5.615 -0.8664  0.0228  1.3108
  419SOL    HW2 2092   1.145   7.752   5.587  0.7130 -0.7166 -1.1709
  420SOL     OW 2093   3.415   3.010   7.054  0.1330  0.2082  0.0502
  420SOL    HW1 2094   3.429   2.936   7.113 -1.5142 -0.1785  0.0052
  420SOL    HW2 2095   3.482   3.074   7.079  1.2505 -1.0728  0.4341
  421SOL     OW 2096   3.379   3.962   0.676  0.1566 -0.0044 -0.2916
  421SOL    HW1 2097   3.350   4.053   0.671 -1.6363 -0.5461 -0.5626
  421SOL    HW2 2098   3.452   3.963   0.738 -0.2385  1.5183  0.1935
  422SOL     OW 2099   4.432   4.784   3.690 -0.3222 -0.2035 -0.0003
  422SOL    HW1 2100   4.424   4.870   3.732  0.5920  0.2980 -0.8141
  422SOL    HW2 2101   4.465   4.727   3.759  0.3884  0.4266  0.1970
  423SOL     OW 2102   2.405   0.162   1.624 -0.3125  0.1715  0.3070
  423SOL    HW1 2103   2.335   0.151   1.688 -0.7766 -1.8546 -0.4542
  423SOL    HW2 2104   2.414   0.075   1.583  1.9335  0.6358 -0.3491
  424SOL     OW 2105   4.479   2.270   6.465  0.0156 -0.0120 -0.7018
  424SOL    HW1 2106   4.474   2.228   6.379 -0.0806 -0.8565 -0.2876
  424SOL    HW2 2107   4.391   2.260   6.501  0.6217 -1.5879  0.3916
  425SOL     OW 2108   3.533   2.380   1.568 -0.3410 -0.1148  0.1739
  425SOL    HW1 2109   3.608   2.407   1.515 -2.0036  1.1855 -1.6641
  425SOL    HW2 2110   3.503   2.299   1.526 -1.9848  1.1999 -1.3165
  426SOL     OW 2111   7.907   1.726   3.725 -0.3030 -0.6337 -0.3708
  426SOL    HW1 2112   7.861   1.655   3.770  0.8831 -0.0680  1.8844
  426SOL    HW2 2113   7.905   1.701   3.633  1.1026 -4.2566  0.4193
  427SOL     OW 2114   4.267   2.748   2.677 -0.7750  0.1298 -0.4080
  427SOL    HW1 2115   4.325   2.762   2.752 -1.7474 -1.5422  0.7144
  427SOL    HW2 2116   4.327   2.731   2.604  0.1991  2.0741 -0.1191
  428SOL     OW 2117   7.768   2.630   5.495  0.0782 -0.5063  0.4572
  428SOL    HW1 2118   7.719   2.619   5.577 -0.0824  0.2899  0.4716
  428SOL    HW2 2119   7.727   2.568   5.434 -0.2797 -0.5786  0.7686
  429SOL     OW 2120   4.472   4.643   1.224 -0.4993  0.0856  0.1205
  429SOL    HW1 2121   4.438   4.724   1.261 -0.5839  0.0005  0.2299
  429SOL    HW2 2122   4.561   4.636   1.259 -0.5393  0.0629  0.2177
  430SOL     OW 2123   1.935   3.739   2.684 -0.2516 -0.8554 -0.0987
  430SOL    HW1 2124   1.854   3.691   2.667 -1.3081 -0.3436  2.8440
  430SOL    HW2 2125   1.971   3.699   2.763  0.0935  1.5352  1.0631
  431SOL     OW 2126   5.030   6.177   6.476 -0.8007 -0.1326 -0.5981
  431SOL    HW1 2127   5.108   6.223   6.506 -0.8744 -0.0001 -0.6102
  431SOL    HW2 2128   5.020   6.204   6.385 -2.4153  2.0137  0.1330
  432SOL     OW 2129   2.518   0.513   0.453 -0.3517  0.2592 -0.2496
  432SOL    HW1 2130   2.456   0.471   0.393 -0.7451 -1.1497  1.0927
  432SOL    HW2 2131   2.534   0.599   0.413 -1.5140 -0.1596 -1.7396
  433SOL     OW 2132   1.354   4.257   3.719 -0.3738  0.7271 -0.5362
  433SOL    HW1 2133   1.409   4.183   3.746  0.8794  1.3811 -1.2116
  433SOL    HW2 2134   1.266   4.220   3.711 -0.3908 -0.0029  2.1526
  434SOL     OW 2135   0.708   2.453   5.964 -0.3747 -0.3785  0.1783
  434SOL    HW1 2136   0.631   2.436   5.910 -0.4833 -0.9415  0.4981
  434SOL    HW2 2137   0.771   2.387   5.936  0.2139  0.4528 -0.4985
  435SOL     OW 2138   0.788   0.086   4.537 -0.0146  0.4334  0.5719
  435SOL    HW1 2139   0.845   0.012   4.558  0.6511  1.1189  1.2683
  435SOL    HW2 2140   0.802   0.101   4.443  0.5003  0.2084  0.6100
  436SOL     OW 2141   3.494   4.388   5.580 -0.2301  0.0776  0.1786
  436SOL    HW1 2142   3.480   4.306   5.628 -0.3870 -0.2593 -0.4262
  436SOL    HW2 2143   3.539   4.361   5.500 -1.2954  0.4151 -0.5684
  437SOL     OW 2144   6.523   6.368   3.102  0.1413  0.4672 -0.0458
  437SOL    HW1 2145   6.588   6.309   3.061 -1.2617 -0.7287 -0.6410
  437SOL    HW2 2146   6.485   6.316   3.172 -1.2257  0.5777 -0.6719
  438SOL     OW 2147   4.349   1.887   3.517 -0.0208  0.0110  0.2546
  438SOL    HW1 2148   4.263   1.856   3.489 -0.1204  0.5003  0.0109
  438SOL    HW2 2149   4.331   1.955   3.581  0.1182  1.6483 -1.3708
  439SOL     OW 2150   5.979   7.588   6.542 -0.1361 -0.2819 -0.2819
  439SOL    HW1 2151   5.970   7.676   6.580  0.6698 -0.3994  0.1916
  439SOL    HW2 2152   6.060   7.592   6.492  1.1275 -1.3734  1.5410
  440SOL     OW 2153   0.416   7.527   3.136 -0.2223 -0.4182 -0.0043
  440SOL    HW1 2154   0.455   7.443   3.161 -0.7306 -0.2120  1.6047
  440SOL    HW2 2155   0.364   7.507   3.058 -0.9576 -1.7755  0.7954
  441SOL     OW 2156   0.461   1.814   6.305 -0.3572  0.0854  0.3559
  441SOL    HW1 2157   0.512   1.803   6.226 -1.6468  0.9031 -0.6309
  441SOL    HW2 2158   0.522   1.796   6.376  0.9052 -0.3460 -0.8050
  442SOL     OW 2159   4.948   3.293   7.739  0.7744 -0.4139  0.4684
  442SOL    HW1 2160   5.043   3.286   7.750  0.6001 -1.8341  1.1650
  442SOL    HW2 2161   4.921   3.208   7.705 -0.2531  0.0194  0.1594
  443SOL     OW 2162   3.923   1.301   0.392 -0.7074 -0.0351 -0.1268
  443SOL    HW1 2163   3.907   1.214   0.427  1.2123  0.2866  1.8381
  443SOL    HW2 2164   3.837   1.335   0.368 -1.6131 -1.9888  0.2276
  444SOL     OW 2165   0.459   1.940   5.865 -0.4642 -0.3799 -0.5792
  444SOL    HW1 2166   0.402   1.997   5.915  0.7939  0.7605 -0.4006
  444SOL    HW2 2167   0.401   1.896   5.802 -1.5839  0.4064 -0.1074
  445SOL     OW 2168   2.641   2.188   2.420  0.0495 -0.3274 -0.1184
  445SOL    HW1 2169   2.708   2.202   2.486  1.3046  1.9515 -1.7078
  445SOL    HW2 2170   2.560   2.178   2.470  0.9673  1.0400  1.7920
  446SOL     OW 2171   0.021   3.476   4.357 -0.0605 -0.5996  0.1607
  446SOL    HW1 2172   0.080   3.537   4.313  0.6161 -2.4170 -1.6178
  446SOL    HW2 2173   0.038   3.489   4.450  0.8203  1.1623 -0.2100
  447SOL     OW 2174   2.421   3.436   6.741 -0.4105  0.4627 -0.5633
  447SOL    HW1 2175   2.423   3.522   6.700 -0.4189  0.6663 -0.1504
  447SOL    HW2 2176   2.330   3.406   6.732  0.0013 -0.3361 -2.3637
  448SOL     OW 2177   1.551   3.430   7.425 -0.0693 -0.0701 -0.0484
  448SOL    HW1 2178   1.484   3.397   7.484 -1.3417  2.4939  0.1173
  448SOL    HW2 2179   1.520   3.407   7.337 -0.3822 -0.2388  0.1079
  449SOL     OW 2180   2.709   7.930   3.231  0.2515 -0.1028 -0.0779
  449SOL    HW1 2181   2.669   7.879   3.301 -1.9315  1.4035 -0.1360
  449SOL    HW2 2182   2.665   8.015   3.235  2.3786  1.1298 -1.2220
  450SOL     OW 2183   6.481   4.416   2.004  0.8459  0.6281 -0.4626
  450SOL    HW1 2184   6.392   4.390   1.979  0.1738  1.2025  1.1960
  450SOL    HW2 2185   6.538   4.352   1.961 -0.4966 -1.0082  0.1078
  451SOL     OW 2186   5.203   3.521   0.332  0.3517 -0.1981 -0.6304
  451SOL    HW1 2187   5.168   3.605   0.303  0.3112 -0.4589 -1.3708
  451SOL    HW2 2188   5.290   3.541   0.365 -0.2977  0.3823  0.7746
  452SOL     OW 2189   0.358   0.030   0.054  0.0695  0.2243  0.2909
  452SOL    HW1 2190   0.361  -0.040  -0.010 -1.8639 -0.2556  0.6755
  452SOL    HW2 2191   0.400  -0.006   0.132  0.2872 -0.0106  0.0656
  453SOL     OW 2192   0.967   1.355   1.504 -0.2599  0.0927 -1.0633
  453SOL    HW1 2193   1.063   1.354   1.505 -0.1417  2.8571 -0.8725
  453SOL    HW2 2194   0.942   1.278   1.554  1.9565  0.7777  1.3317
  454SOL     OW 2195   6.380   6.661   7.237  0.3646  0.0619 -0.8989
  454SOL    HW1 2196   6.468   6.634   7.210  1.9253  0.4737  3.1481
  454SOL    HW2 2197   6.345   6.587   7.285 -0.1094  1.0649  0.3476
  455SOL     OW 2198   1.490   4.522   5.141 -0.1322  0.1896 -0.1094
  455SOL    HW1 2199   1.446   4.590   5.090 -0.0761  0.4201  0.1471
  455SOL    HW2 2200   1.545   4.570   5.203  0.6348 -0.0988 -0.5577
  456SOL     OW 2201   1.849   1.241   6.597  0.0411 -0.2677 -1.1234
  456SOL    HW1 2202   1.928   1.267   6.645 -0.3135 -0.4079 -0.4586
  456SOL    HW2 2203   1.856   1.287   6.513  0.8039 -0.2378 -1.0496
  457SOL     OW 2204   2.909   7.760   5.968  0.4010  0.2708  0.3707
  457SOL    HW1 2205   2.991   7.787   6.010  0.2524  1.1913  0.1009
  457SOL    HW2 2206   2.847   7.830   5.992 -0.8653 -1.3907  2.2537
  458SOL     OW 2207   3.617   2.042   5.277 -0.4028  0.0521  0.2695
  458SOL    HW1 2208   3.659   2.123   5.305  1.7965 -0.6015 -0.9399
  458SOL    HW2 2209   3.661   1.973   5.326 -0.6587 -0.6029 -0.4036
  459SOL     OW 2210   4.000   3.180   7.385 -0.1599  0.2241 -0.2543
  459SOL    HW1 2211   3.985   3.087   7.401  0.1930 -0.0201 -1.2388
  459SOL    HW2 2212   4.023   3.216   7.470 -0.8725 -0.4721  0.2453
  460SOL     OW 2213   1.234   5.664   2.356 -0.6537 -0.3512  0.1539
  460SOL    HW1 2214   1.170   5.721   2.315 -1.7155 -1.8430 -0.3511
  460SOL    HW2 2215   1.305   5.657   2.292 -0.6107  0.2043  0.1332
  461SOL     OW 2216   3.503   7.883   3.289  0.2353 -0.0437 -0.2261
  461SOL    HW1 2217   3.583   7.830   3.299  0.8757  0.8486 -0.5211
  461SOL    HW2 2218   3.533   7.964   3.247 -0.8384  0.2862 -0.3757
  462SOL     OW 2219   2.011   2.092   6.506 -0.0071  0.7898 -0.0723
  462SOL    HW1 2220   2.103   2.113   6.492  0.2013  2.2512  2.8254
  462SOL    HW2 2221   2.012   2.020   6.569 -0.8765  0.1296 -0.7807
  463SOL     OW 2222   6.146   0.339   7.306  0.1136 -0.1088 -0.2827
  463SOL    HW1 2223   6.201   0.409   7.271  0.3510 -0.1416  0.0206
  463SOL    HW2 2224   6.074   0.384   7.350  0.1510 -0.0587 -0.2721
  464SOL     OW 2225   4.164   2.767   1.175  0.0577  0.4678  0.1578
  464SOL    HW1 2226   4.127   2.702   1.116  1.1060 -0.2825  0.3204
  464SOL    HW2 2227   4.153   2.730   1.263  2.5983 -0.5261  0.1179
  465SOL     OW 2228   5.335   0.616   0.724 -0.4592  0.7779  0.1685
  465SOL    HW1 2229   5.240   0.627   0.722 -0.5555  0.5237  1.8740
  465SOL    HW2 2230   5.350   0.551   0.793  0.9085  0.1109 -0.7034
  466SOL     OW 2231   7.128   3.524   6.412  0.7252  0.2403  0.3969
  466SOL    HW1 2232   7.133   3.619   6.407  0.9349  0.1743 -0.9853
  466SOL    HW2 2233   7.140   3.494   6.322  0.3434 -1.0842  0.7578
  467SOL     OW 2234   2.895   4.410   3.829 -0.1190 -0.2659  0.2525
  467SOL    HW1 2235   2.803   4.420   3.855  0.3053  0.4682  1.5544
  467SOL    HW2 2236   2.944   4.426   3.909  1.1623 -0.4714 -0.4721
  468SOL     OW 2237   3.231   4.655   7.096 -0.2030 -0.0955 -0.2245
  468SOL    HW1 2238   3.234   4.689   7.185  2.9757  1.5136 -0.7820
  468SOL    HW2 2239   3.307   4.597   7.089 -0.1034  0.1707 -1.9594
  469SOL     OW 2240   4.345   2.283   2.090  0.1398  0.1196 -0.5595
  469SOL    HW1 2241   4.405   2.330   2.033 -0.9640  2.0517 -0.2184
  469SOL    HW2 2242   4.402   2.241   2.155  1.1725  2.6755  0.3348
  470SOL     OW 2243   0.287   4.663   3.316  0.0529 -0.5688  0.4387
  470SOL    HW1 2244   0.298   4.648   3.410  0.3512 -0.1287  0.4795
  470SOL    HW2 2245   0.197   4.692   3.306  0.4705  0.9215  0.8049
  471SOL     OW 2246   2.046   4.455   5.575  0.0806  0.4740  0.7195
  471SOL    HW1 2247   1.963   4.502   5.565 -0.4052 -0.4744  0.1145
  471SOL    HW2 2248   2.021   4.366   5.600  0.8368 -0.2144 -0.8470
  472SOL     OW 2249   6.597   3.005   2.514 -0.4376 -0.6898  0.1641
  472SOL    HW1 2250   6.521   3.006   2.572 -1.7327  1.6003 -1.3993
  472SOL    HW2 2251   6.563   2.979   2.429  0.7465 -0.7133 -0.3284
  473SOL     OW 2252   5.405   1.185   7.282 -0.1548 -0.4550  0.1223
  473SOL    HW1 2253   5.383   1.277   7.273 -0.6641 -0.3031  2.3844
  473SOL    HW2 2254   5.493   1.184   7.320 -0.2367 -0.9017  0.3074
  474SOL     OW 2255   4.183   6.419   6.240 -0.2472  0.0163  0.4949
  474SOL    HW1 2256   4.132   6.338   6.249  1.0810 -1.1579 -1.6383
  474SOL    HW2 2257   4.151   6.459   6.160 -0.4309  1.3160  1.1828
  475SOL     OW 2258   2.070   0.128   6.004 -0.2413 -0.0664  0.3528
  475SOL    HW1 2259   2.107   0.211   5.976  0.3208  0.0425  1.3627
  475SOL    HW2 2260   2.145   0.074   6.028 -0.6142 -0.7640 -0.0024
  476SOL     OW 2261   4.450   3.791   6.343 -0.2389  0.3651  0.1518
  476SOL    HW1 2262   4.463   3.702   6.310 -1.1636 -0.7317  2.4618
  476SOL    HW2 2263   4.356   3.807   6.331 -0.2100  0.7159  0.3915
  477SOL     OW 2264   7.012   0.926   5.447 -0.1202  0.2899  0.0420
  477SOL    HW1 2265   7.074   0.853   5.445 -2.1697 -1.7662  3.1116
  477SOL    HW2 2266   7.048   0.987   5.512  0.8924  1.4394 -1.5262
  478SOL     OW 2267   3.983   1.546   2.071  0.1512 -0.4041 -0.1106
  478SOL    HW1 2268   3.955   1.601   1.997 -0.0820  0.0361  0.2996
  478SOL    HW2 2269   3.916   1.477   2.076 -2.5428  2.0905  2.5139
  479SOL     OW 2270   1.248   1.411   7.011  0.1693 -0.0038  0.5955
  479SOL    HW1 2271   1.292   1.493   7.033 -1.4377  1.5366 -1.6413
  479SOL    HW2 2272   1.176   1.405   7.073 -0.3931  0.9019  0.0504
  480SOL     OW 2273   5.228   5.742   4.580 -0.0629 -0.1235 -0.8987
  480SOL    HW1 2274   5.291   5.712   4.516  1.1068  1.1857 -0.4183
  480SOL    HW2 2275   5.243   5.837   4.586  0.9826 -0.3488  2.3743
  481SOL     OW 2276   5.911   4.707   6.569 -0.1131  0.0884  0.1737
  481SOL    HW1 2277   5.921   4.624   6.522 -0.0924  0.6000 -0.7393
  481SOL    HW2 2278   5.828   4.698   6.617  0.6674 -1.0660  1.3774
  482SOL     OW 2279   0.352   1.491   7.703 -1.0047 -0.0959 -0.3560
  482SOL    HW1 2280   0.317   1.536   7.780  0.0162 -0.3179  0.2590
  482SOL    HW2 2281   0.343   1.555   7.632 -0.7867  0.5999  0.2272
  483SOL     OW 2282   1.148   0.483   2.404  0.6986  0.4428  0.2103
  483SOL    HW1 2283   1.216   0.536   2.445  1.8929 -0.1127 -0.9681
  483SOL    HW2 2284   1.134   0.524   2.318  1.2219 -0.8006 -0.4790
  484SOL     OW 2285   0.694   3.873   0.681 -0.3259 -0.1830  0.4889
  484SOL    HW1 2286   0.735   3.848   0.765 -1.9678 -1.7267  0.8948
  484SOL    HW2 2287   0.768   3.885   0.622  0.8289 -0.4544  1.8027
  485SOL     OW 2288   7.216   2.758   6.916  0.1737 -0.0907 -0.0706
  485SOL    HW1 2289   7.213   2.807   6.998 -1.4076 -1.3133  0.6596
  485SOL    HW2 2290   7.309   2.758   6.892  0.3328  2.4615  0.3361
  486SOL     OW 2291   7.509   5.324   6.995 -0.0093  0.5859 -0.0736
  486SOL    HW1 2292   7.561   5.366   6.926  2.2933  2.0336  2.3455
  486SOL    HW2 2293   7.574   5.287   7.055 -1.8733  0.0279  1.7187
  487SOL     OW 2294   0.452   0.646   6.619  0.2352  0.4616 -0.6141
  487SOL    HW1 2295   0.396   0.568   6.620  1.2860 -0.3250  0.3058
  487SOL    HW2 2296   0.407   0.707   6.561 -2.1706  0.3222  0.9595
  488SOL     OW 2297   4.992   0.923   6.697 -0.1092 -0.3051 -0.3267
  488SOL    HW1 2298   5.028   0.835   6.689 -0.1267 -0.3955  0.4301
  488SOL    HW2 2299   5.015   0.967   6.616 -1.2500 -1.4075 -1.2869
  489SOL     OW 2300   6.088   6.853   3.923 -0.1363  0.3733 -0.2724
  489SOL    HW1 2301   6.130   6.939   3.917 -0.1939  0.3991 -0.3004
  489SOL    HW2 2302   6.161   6.791   3.931  0.0350  0.1835 -2.6376
  490SOL     OW 2303   6.258   6.643   2.193  0.0225 -0.2257  0.1547
  490SOL    HW1 2304   6.184   6.584   2.205 -0.0253 -0.0380  0.8672
  490SOL    HW2 2305   6.219   6.728   2.172  0.0274 -0.1062  0.6177
  491SOL     OW 2306   0.230   0.431   4.523 -0.4096  0.3847 -0.0860
  491SOL    HW1 2307   0.143   0.471   4.530 -0.0318  0.9573  1.9870
  491SOL    HW2 2308   0.281   0.492   4.469 -1.2176  0.1293 -1.1725
  492SOL     OW 2309   7.841   0.636   5.244 -0.2925 -0.1836 -0.6509
  492SOL    HW1 2310   7.934   0.621   5.227 -0.1833  0.5422 -0.7475
  492SOL    HW2 2311   7.809   0.554   5.280  0.2821 -0.5885 -1.0503
  493SOL     OW 2312   3.562   6.513   4.551  1.1441  0.2783 -0.2943
  493SOL    HW1 2313   3.528   6.428   4.522  2.5850 -0.8828  1.1853
  493SOL    HW2 2314   3.563   6.506   4.647  2.6985  1.3738 -0.1958
  494SOL     OW 2315   4.631   0.847   1.450  0.3970  0.6738  0.5973
  494SOL    HW1 2316   4.679   0.926   1.475 -0.2914  0.8783  1.2976
  494SOL    HW2 2317   4.540   0.866   1.471  0.0111  0.2481 -0.6314
  495SOL     OW 2318   5.703   3.739   0.096 -0.2074 -0.5022  0.4128
  495SOL    HW1 2319   5.663   3.672   0.040  0.3234 -0.1396 -0.4143
  495SOL    HW2 2320   5.748   3.690   0.164  1.0765 -1.0388 -0.7962
  496SOL     OW 2321   4.183   3.875   2.201  0.0517 -0.0356 -0.6836
  496SOL    HW1 2322   4.113   3.941   2.198  0.0559  0.0088  0.0975
  496SOL    HW2 2323   4.235   3.893   2.123 -0.8433 -0.1070 -1.3091
  497SOL     OW 2324   0.148   1.375   0.635 -0.5938 -0.2935 -0.5940
  497SOL    HW1 2325   0.145   1.293   0.684  1.0359 -0.4729 -0.7421
  497SOL    HW2 2326   0.137   1.349   0.544 -1.1436 -0.2159 -0.5565
  498SOL     OW 2327   1.318   3.016   2.435 -0.2122 -0.2249  0.1845
  498SOL    HW1 2328   1.371   3.049   2.508 -1.2698  1.3031  0.3097
  498SOL    HW2 2329   1.307   2.922   2.454 -0.7400  0.1764  2.2054
  499SOL     OW 2330   5.277   0.277   5.729 -0.3502  0.1614  0.4940
  499SOL    HW1 2331   5.338   0.273   5.803 -0.9375 -2.5914  0.9103
  499SOL    HW2 2332   5.190   0.279   5.770 -0.6520 -0.2070 -0.1249
  500SOL     OW 2333   2.133   1.922   6.143 -0.1267  0.0308  0.1820
  500SOL    HW1 2334   2.108   1.902   6.053 -2.3362 -0.5103  0.8467
  500SOL    HW2 2335   2.082   2.000   6.165  0.0482 -0.1101  1.1114
  501SOL     OW 2336   0.607   5.272   5.888 -0.4830 -0.0897  0.1268
  501SOL    HW1 2337   0.642   5.211   5.823 -0.0069 -0.9290  1.1426
  501SOL    HW2 2338   0.530   5.311   5.845  0.3031  0.0333 -1.2543
  502SOL     OW 2339   7.320   1.243   3.224  0.3378 -0.4309 -0.8201
  502SOL    HW1 2340   7.397   1.275   3.269 -0.3105  0.1488 -0.0894
  502SOL    HW2 2341   7.256   1.226   3.293 -0.3255 -0.5082 -1.4316
  503SOL     OW 2342   6.950   7.256   0.426 -0.9957 -0.6133  0.2461
  503SOL    HW1 2343   6.989   7.173   0.453  0.5206  0.2298  0.8034
  503SOL    HW2 2344   6.875   7.232   0.373 -1.0083 -2.3269  1.0045
  504SOL     OW 2345   0.468   7.246   6.511  0.0331 -0.0782  0.1072
  504SOL    HW1 2346   0.466   7.153   6.534  0.8482  0.1561  1.2202
  504SOL    HW2 2347   0.400   7.286   6.565 -0.5471 -0.0696 -0.6182
  505SOL     OW 2348   0.122   3.269   5.533 -0.5739 -0.0047  0.6444
  505SOL    HW1 2349   0.135   3.351   5.581  1.7018  1.3841 -2.0615
  505SOL    HW2 2350   0.202   3.258   5.482 -1.9129 -2.5515 -1.1387
  506SOL     OW 2351   0.765   4.030   5.626  0.1191  0.0650 -0.5769
  506SOL    HW1 2352   0.770   3.973   5.704  3.1874  2.0254  0.8557
  506SOL    HW2 2353   0.768   4.119   5.662 -0.3340  1.0911 -2.9338
  507SOL     OW 2354   1.543   4.602   1.491  0.6512  0.4455 -0.1023
  507SOL    HW1 2355   1.457   4.629   1.524  0.0923  0.7868 -1.7407
  507SOL    HW2 2356   1.576   4.541   1.557 -1.3918 -0.6421 -0.0089
  508SOL     OW 2357   5.273   4.961   3.563  0.2358 -0.1914 -0.6124
  508SOL    HW1 2358   5.350   5.015   3.579  0.5861 -0.6315 -0.7914
  508SOL    HW2 2359   5.265   4.957   3.467  0.1152 -0.3251 -0.5980
  509SOL     OW 2360   6.734   1.276   3.171 -0.4777 -0.2181 -0.0006
  509SOL    HW1 2361   6.730   1.236   3.257  1.5030 -0.1017  0.2064
  509SOL    HW2 2362   6.695   1.363   3.182 -2.2722 -1.0069  0.1981
  510SOL     OW 2363   1.451   7.708   3.531 -0.4672  0.3893  0.6397
  510SOL    HW1 2364   1.384   7.693   3.598 -2.2839  1.4586 -0.8144
  510SOL    HW2 2365   1.415   7.668   3.452  0.9421  0.4358 -0.0542
  511SOL     OW 2366   3.947   3.590   5.948 -0.3182 -0.0268  0.2011
  511SOL    HW1 2367   3.973   3.656   5.883  1.1383 -0.2249  0.5539
  511SOL    HW2 2368   3.992   3.617   6.028  0.6226 -1.6690  0.2511
  512SOL     OW 2369   3.403   6.926   5.100  0.6809 -0.1013 -0.1334
  512SOL    HW1 2370   3.349   6.979   5.040 -0.1692  0.6752  1.2550
  512SOL    HW2 2371   3.340   6.887   5.160  1.6522  1.0182  1.6945
  513SOL     OW 2372   0.430   3.651   7.116  0.0929  0.0936 -0.0252
  513SOL    HW1 2373   0.475   3.583   7.165  0.9298  0.0957 -0.7671
  513SOL    HW2 2374   0.492   3.723   7.112 -0.1071  0.2359 -0.7568
  514SOL     OW 2375   4.866   1.620   4.712  0.1283  0.0475  0.1998
  514SOL    HW1 2376   4.911   1.698   4.681 -0.7342  0.5218  0.0923
  514SOL    HW2 2377   4.932   1.572   4.761  0.3495  1.4856  1.3854
  515SOL     OW 2378   6.170   7.091   5.016 -0.0101  0.2599  0.2127
  515SOL    HW1 2379   6.175   6.996   5.010  3.0568  0.2644  0.7565
  515SOL    HW2 2380   6.081   7.113   4.991 -0.3244 -2.6226 -1.5664
  516SOL     OW 2381   4.369   6.851   7.752 -1.1153  0.6587  0.0745
  516SOL    HW1 2382   4.347   6.899   7.831 -0.5609 -0.0694  0.6942
  516SOL    HW2 2383   4.361   6.915   7.681  0.7803  2.0027  0.9881
  517SOL     OW 2384   7.507   1.506   5.496  1.0445  0.3578  0.0183
  517SOL    HW1 2385   7.521   1.423   5.540 -1.3872 -0.6318 -0.8870
  517SOL    HW2 2386   7.448   1.485   5.423 -1.0464  3.0886  0.7334
  518SOL     OW 2387   6.025   6.956   6.737 -0.2162  0.4981  0.3578
  518SOL    HW1 2388   5.953   7.017   6.754  1.6656  2.3912  1.9895
  518SOL    HW2 2389   6.017   6.889   6.805  0.1668  1.3186  1.2330
  519SOL     OW 2390   7.598   6.310   4.644 -0.2261  0.6532  0.4350
  519SOL    HW1 2391   7.678   6.330   4.693  0.1018 -0.1291  0.2230
  519SOL    HW2 2392   7.581   6.218   4.662  0.3634  0.1067 -1.5623
  520SOL     OW 2393   3.341   7.862   1.387  0.5309  0.8505  0.4046
  520SOL    HW1 2394   3.428   7.897   1.409  1.3482 -0.2048 -0.9340
  520SOL    HW2 2395   3.337   7.778   1.431  0.1088  0.9609  0.5828
  521SOL     OW 2396   2.078   2.414   6.546  0.1916 -0.1025  0.0868
  521SOL    HW1 2397   2.042   2.393   6.460 -0.0355  0.8745 -0.0640
  521SOL    HW2 2398   2.046   2.502   6.565  0.1234 -0.3572  1.2368
  522SOL     OW 2399   4.203   1.092   0.497  0.2200  0.1793 -0.2548
  522SOL    HW1 2400   4.114   1.087   0.462 -0.2865 -0.9715  1.1126
  522SOL    HW2 2401   4.236   1.177   0.466 -1.2129  0.4651 -1.0819
  523SOL     OW 2402   2.121   7.180   2.012 -0.4944  0.2700  0.2555
  523SOL    HW1 2403   2.100   7.221   1.928  0.4940  1.0454  0.3683
  523SOL    HW2 2404   2.145   7.253   2.069  1.0151 -0.4227  0.5580
  524SOL     OW 2405   0.117   5.697   2.247 -0.2838  0.3507 -0.6040
  524SOL    HW1 2406   0.195   5.702   2.191 -1.3023  1.2746 -2.0057
  524SOL    HW2 2407   0.056   5.641   2.198 -0.1163 -1.3516  1.0225
  525SOL     OW 2408   6.912   7.922   3.890  0.3637  0.2094 -0.0577
  525SOL    HW1 2409   6.906   7.917   3.985 -0.3720 -0.5207 -0.1309
  525SOL    HW2 2410   6.964   8.001   3.873  1.1666 -0.0780  0.9577
  526SOL     OW 2411   1.241   5.939   1.332  0.0584  0.0206 -0.4486
  526SOL    HW1 2412   1.185   5.867   1.303 -1.1461  0.6648  0.1888
  526SOL    HW2 2413   1.185   6.016   1.327  1.3935  0.9634 -1.3289
  527SOL     OW 2414   4.103   1.826   1.931 -0.1417 -0.0088 -0.5493
  527SOL    HW1 2415   4.083   1.843   2.023  1.4833  0.2417 -0.2166
  527SOL    HW2 2416   4.198   1.821   1.927 -0.2504 -2.7966 -1.7635
  528SOL     OW 2417   7.042   4.877   3.990  0.2994  0.2452  0.3028
  528SOL    HW1 2418   6.953   4.867   3.955  0.2494  0.5613  0.3304
  528SOL    HW2 2419   7.063   4.793   4.030 -0.4408  0.5367  1.3381
  529SOL     OW 2420   6.259   6.625   4.356 -0.0971  0.2130  0.0151
  529SOL    HW1 2421   6.231   6.716   4.349  1.3437  0.6913  0.0310
  529SOL    HW2 2422   6.311   6.623   4.436  1.2073 -0.2381 -0.8162
  530SOL     OW 2423   4.353   6.159   6.526  0.1852 -0.3291 -0.3148
  530SOL    HW1 2424   4.373   6.075   6.567 -0.3988 -0.4596 -0.2878
  530SOL    HW2 2425   4.303   6.207   6.593 -0.4863 -0.4157 -0.7489
  531SOL     OW 2426   4.741   5.650   3.120 -0.5252 -0.2630  0.6794
  531SOL    HW1 2427   4.786   5.594   3.184  2.8706  0.3997 -0.9017
  531SOL    HW2 2428   4.667   5.597   3.090  0.8510 -2.7469  1.3469
  532SOL     OW 2429   5.083   0.712   0.148  0.4738  0.3330  0.4350
  532SOL    HW1 2430   5.170   0.741   0.173  0.3256  1.2547 -0.0777
  532SOL    HW2 2431   5.039   0.791   0.116  1.0273 -0.8371 -3.8294
  533SOL     OW 2432   3.320   3.533   5.935  0.2764  0.5191  0.6835
  533SOL    HW1 2433   3.325   3.628   5.927  0.7361  0.3898 -0.9565
  533SOL    HW2 2434   3.410   3.505   5.952  0.4060  0.2926 -0.2956
  534SOL     OW 2435   4.116   2.549   1.010 -0.2116 -0.0789 -0.0928
  534SOL    HW1 2436   4.060   2.471   1.016 -1.0726  0.5103 -0.2925
  534SOL    HW2 2437   4.101   2.582   0.922 -0.2781  0.6272  0.1822
  535SOL     OW 2438   3.446   6.071   6.176 -0.0037  0.1919  0.7715
  535SOL    HW1 2439   3.530   6.038   6.145 -1.1388 -1.0814 -1.1463
  535SOL    HW2 2440   3.469   6.136   6.242  2.6305  2.6707 -2.2551
  536SOL     OW 2441   2.288   3.171   5.717 -0.0238 -0.6022 -0.0918
  536SOL    HW1 2442   2.371   3.216   5.700  0.0916 -1.3802 -1.7706
  536SOL    HW2 2443   2.309   3.103   5.781  1.0269 -1.8611 -1.7094
  537SOL     OW 2444   6.777   1.383   0.399  0.3365 -0.1207  0.3989
  537SOL    HW1 2445   6.700   1.339   0.436  1.2489  1.1318  4.1500
  537SOL    HW2 2446   6.836   1.311   0.376 -0.1952 -0.9901  1.6359
  538SOL     OW 2447   0.217   0.713   7.461 -0.0633  0.3171 -0.1311
  538SOL    HW1 2448   0.201   0.804   7.437  1.4657  0.4803 -0.6682
  538SOL    HW2 2449   0.265   0.718   7.544 -0.5238 -0.0279  0.1602
  539SOL     OW 2450   1.016   4.460   6.281 -0.1683 -1.2683  0.1318
  539SOL    HW1 2451   0.980   4.374   6.303  0.2710 -1.2980  0.7639
  539SOL    HW2 2452   1.107   4.444   6.257 -0.0339 -0.9589  0.4235
  540SOL     OW 2453   5.287   7.293   3.657  0.3180  0.2003 -0.5245
  540SOL    HW1 2454   5.244   7.370   3.620 -0.0548 -0.2036 -0.9513
  540SOL    HW2 2455   5.244   7.279   3.742  0.1834  0.2939 -0.5773
  541SOL     OW 2456   3.790   0.963   6.666 -0.1669  0.5620 -0.3380
  541SOL    HW1 2457   3.794   1.005   6.752  1.3680 -1.2765  0.5658
  541SOL    HW2 2458   3.882   0.944   6.645 -0.7426 -2.0840 -0.7774
  542SOL     OW 2459   2.299   1.940   7.495 -0.0995 -0.8245  0.1065
  542SOL    HW1 2460   2.304   1.942   7.399 -0.5346 -0.8869  0.0800
  542SOL    HW2 2461   2.230   2.004   7.516  1.7385  1.1265  0.5128
  543SOL     OW 2462   6.792   4.628   0.866 -0.1828  0.6655 -0.1239
  543SOL    HW1 2463   6.866   4.570   0.884  0.6619  2.1729  1.6813
  543SOL    HW2 2464   6.718   4.569   0.853  1.0127 -0.8524 -0.3604
  544SOL     OW 2465   5.576   3.633   5.241 -0.2409  0.3333 -0.3384
  544SOL    HW1 2466   5.520   3.583   5.181  0.9115 -0.4587 -0.7958
  544SOL    HW2 2467   5.515   3.683   5.295 -1.3357  1.2194 -2.2796
  545SOL     OW 2468   0.774   7.656   5.517  0.5199 -0.3008  0.3975
  545SOL    HW1 2469   0.817   7.719   5.460  1.5635 -0.1442  1.3252
  545SOL    HW2 2470   0.829   7.653   5.596 -0.4233 -1.1235  1.0533
  546SOL     OW 2471   6.031   2.951   6.518  0.6641  0.1656 -0.3916
  546SOL    HW1 2472   6.058   2.878   6.461 -0.0334  1.1842 -2.1128
  546SOL    HW2 2473   6.083   2.940   6.597 -0.2397 -2.8587 -0.1008
  547SOL     OW 2474   0.156   4.242   2.438  0.9848 -0.0773  0.0662
  547SOL    HW1 2475   0.211   4.172   2.474 -0.9011 -1.5676  0.2507
  547SOL    HW2 2476   0.115   4.282   2.514  2.6339  1.8231  0.0195
  548SOL     OW 2477   3.213   7.891   5.694 -0.0510  0.0092  0.0871
  548SOL    HW1 2478   3.270   7.816   5.678 -1.5715 -1.1114 -0.2517
  548SOL    HW2 2479   3.124   7.856   5.693 -0.7240  1.3401  2.5154
  549SOL     OW 2480   3.531   6.215   6.724 -0.3177  0.2153 -0.2555
  549SOL    HW1 2481   3.569   6.144   6.672 -0.7193  0.3685 -0.7632
  549SOL    HW2 2482   3.594   6.286   6.717  0.0610 -0.0723  0.2115
  550SOL     OW 2483   4.060   7.479   6.887 -0.1741 -0.2685  0.0406
  550SOL    HW1 2484   4.149   7.482   6.853  0.3711  1.3565  1.4440
  550SOL    HW2 2485   4.010   7.535   6.827  0.3297  0.8934  0.6724
  551SOL     OW 2486   3.202   4.962   0.367  0.2451  0.3020  0.2512
  551SOL    HW1 2487   3.125   5.010   0.397 -1.0488 -1.0933 -0.6867
  551SOL    HW2 2488   3.223   5.001   0.282  1.7285  1.8830  1.2905
  552SOL     OW 2489   1.138   4.080   5.609  0.0593  0.0051  0.3784
  552SOL    HW1 2490   1.072   4.052   5.545  0.5554 -1.1268  0.3370
  552SOL    HW2 2491   1.088   4.092   5.690 -0.1998 -1.0730  0.4052
  553SOL     OW 2492   5.249   4.528   5.125 -0.2005 -0.6778 -0.5867
  553SOL    HW1 2493   5.190   4.536   5.200 -1.3969  0.8610 -1.6337
  553SOL    HW2 2494   5.324   4.584   5.147 -0.1760 -0.8607 -0.2072
  554SOL     OW 2495   6.922   2.940   7.214  0.7033  0.1182  0.7152
  554SOL    HW1 2496   6.892   3.006   7.151 -0.8412 -0.4699  0.7849
  554SOL    HW2 2497   6.910   2.981   7.300 -0.0922 -0.1592  0.7496
  555SOL     OW 2498   6.617   7.188   1.609 -0.4581 -0.7388  0.5350
  555SOL    HW1 2499   6.701   7.143   1.611 -0.6022 -1.0622 -0.1939
  555SOL    HW2 2500   6.565   7.139   1.545 -1.6342 -1.2951  1.8685
  556SOL     OW 2501   1.054   1.817   0.541  0.0616 -0.2086  0.1308
  556SOL    HW1 2502   0.967   1.850   0.562 -0.4726 -1.2449 -0.3942
  556SOL    HW2 2503   1.103   1.825   0.623 -0.3054  1.0425  0.2402
  557SOL     OW 2504   4.481   0.143   2.114  0.1133  0.1775  0.4301
  557SOL    HW1 2505   4.466   0.050   2.099 -0.6676  0.6682 -2.3262
  557SOL    HW2 2506   4.395   0.180   2.131 -0.3592  0.9768 -2.8604
  558SOL     OW 2507   6.444   6.231   3.322 -0.2623 -0.0413 -0.2138
  558SOL    HW1 2508   6.489   6.250   3.404  0.3179 -2.5343  0.1545
  558SOL    HW2 2509   6.353   6.258   3.337 -0.0673 -0.0437  1.1132
  559SOL     OW 2510   7.051   4.635   2.583  0.2258 -0.4778 -0.3416
  559SOL    HW1 2511   7.118   4.684   2.632 -2.1832  0.9697  1.7669
  559SOL    HW2 2512   7.027   4.694   2.511 -0.9256  0.4615  0.7566
  560SOL     OW 2513   6.985   1.990   3.650  0.2240 -0.1900  0.7425
  560SOL    HW1 2514   7.043   1.948   3.587 -0.1991  0.9273 -0.4347
  560SOL    HW2 2515   6.972   2.078   3.616 -1.3619 -0.0906  1.5027
  561SOL     OW 2516   7.776   7.013   5.957 -0.0632 -0.2554 -0.2656
  561SOL    HW1 2517   7.822   7.093   5.931  2.1302 -1.4041 -0.1924
  561SOL    HW2 2518   7.724   7.038   6.034 -1.2500  1.5815 -1.5872
  562SOL     OW 2519   2.564   4.819   2.126 -0.1193  0.6855  0.1341
  562SOL    HW1 2520   2.643   4.806   2.179 -0.9675 -1.0161  1.0490
  562SOL    HW2 2521   2.585   4.894   2.071  1.5280  1.3056  1.5078
  563SOL     OW 2522   5.207   2.804   4.007 -0.2969 -0.1814 -0.0164
  563SOL    HW1 2523   5.238   2.895   4.005  2.4854 -1.0460 -1.2313
  563SOL    HW2 2524   5.152   2.796   3.930  0.5088  0.1784 -0.6462
  564SOL     OW 2525   7.251   0.052   5.388 -0.1289  0.0315 -0.4199
  564SOL    HW1 2526   7.231   0.144   5.404 -0.9374 -0.3599  1.1243
  564SOL    HW2 2527   7.167   0.007   5.401  0.3396 -0.9550 -0.7057
  565SOL     OW 2528   0.908   3.549   7.342  0.1725  0.1475 -0.2522
  565SOL    HW1 2529   0.907   3.495   7.264  1.5570  1.4405 -1.2144
  565SOL    HW2 2530   0.883   3.636   7.312 -0.3427  0.4486  0.9565
  566SOL     OW 2531   1.569   2.903   2.806 -0.5988 -0.0190 -0.7461
  566SOL    HW1 2532   1.483   2.929   2.773  0.2135 -0.1395 -3.1318
  566SOL    HW2 2533   1.607   2.984   2.840 -0.8706  0.4519 -1.5389
  567SOL     OW 2534   2.583   2.861   3.197  0.1809 -0.5731 -0.4552
  567SOL    HW1 2535   2.499   2.842   3.238  1.3410 -0.0340  2.4119
  567SOL    HW2 2536   2.582   2.955   3.181  0.7142 -0.3081  0.9136
  568SOL     OW 2537   1.051   4.784   2.728  0.0453 -0.2016 -0.0420
  568SOL    HW1 2538   1.032   4.840   2.803 -1.5506 -2.5536  1.4652
  568SOL    HW2 2539   1.054   4.844   2.653 -1.0592  1.9340  1.5118
  569SOL     OW 2540   3.393   2.512   4.546 -0.7403 -0.6709  0.1613
  569SOL    HW1 2541   3.351   2.526   4.461  0.1582  0.9726 -0.0451
  569SOL    HW2 2542   3.484   2.539   4.533 -0.8367  0.6469  1.9117
  570SOL     OW 2543   6.172   0.846   6.673 -0.1759 -0.0664  0.6600
  570SOL    HW1 2544   6.168   0.917   6.737 -1.0385 -0.9578  1.6490
  570SOL    HW2 2545   6.114   0.874   6.602 -1.0102 -0.0427  1.3369
  571SOL     OW 2546   7.862   7.545   3.409  0.1841  0.0216  0.2661
  571SOL    HW1 2547   7.904   7.630   3.395  1.3655 -0.5680  0.0936
  571SOL    HW2 2548   7.775   7.555   3.370  0.9865  0.5717 -1.4980
  572SOL     OW 2549   3.334   2.718   0.447 -0.0440 -0.0240 -0.1217
  572SOL    HW1 2550   3.360   2.807   0.473  0.0363 -0.0426 -0.1390
  572SOL    HW2 2551   3.370   2.708   0.359  1.6048 -0.7734  0.5884
  573SOL     OW 2552   2.433   1.226   4.216  0.2656  0.3101 -0.1110
  573SOL    HW1 2553   2.380   1.299   4.247 -1.2074 -0.5502 -0.4734
  573SOL    HW2 2554   2.370   1.156   4.200  1.3525 -0.3426 -1.8568
  574SOL     OW 2555   7.926   7.819   3.326  0.0982 -0.9674  0.0964
  574SOL    HW1 2556   7.868   7.890   3.351 -1.4299 -2.0482 -0.2579
  574SOL    HW2 2557   7.961   7.845   3.240 -3.1068 -2.0794 -1.6965
  575SOL     OW 2558   5.734   5.311   1.313 -0.1736 -0.0284 -0.4851
  575SOL    HW1 2559   5.780   5.374   1.258 -0.7482  0.1074 -0.8254
  575SOL    HW2 2560   5.732   5.351   1.400  1.1197 -0.4391 -0.2527
  576SOL     OW 2561   7.136   7.232   6.394  0.2429  0.2130  0.1008
  576SOL    HW1 2562   7.070   7.163   6.384  0.8573 -0.8485  2.5815
  576SOL    HW2 2563   7.127   7.260   6.485  0.6285  2.8286 -0.6127
  577SOL     OW 2564   5.722   5.926   6.498 -0.1724  0.5372  0.1278
  577SOL    HW1 2565   5.678   5.890   6.420 -1.5574  1.3849  0.4818
  577SOL    HW2 2566   5.765   6.006   6.466  0.7874 -0.0639 -0.1267
  578SOL     OW 2567   5.684   5.349   0.520  0.1117 -0.0925 -0.0599
  578SOL    HW1 2568   5.614   5.386   0.573 -0.1951 -1.8471  0.8511
  578SOL    HW2 2569   5.677   5.393   0.436 -1.6062  0.3118  0.2693
  579SOL     OW 2570   0.940   5.061   6.639  0.3131  0.0007 -0.2081
  579SOL    HW1 2571   0.863   5.112   6.612  1.8928  1.4094 -2.3785
  579SOL    HW2 2572   0.958   5.091   6.728 -0.8708  0.6485 -0.1605
  580SOL     OW 2573   3.404   7.528   5.444  0.2735  0.3027  0.2837
  580SOL    HW1 2574   3.489   7.485   5.435  0.6444  1.0486  0.1092
  580SOL    HW2 2575   3.414   7.586   5.520 -0.6091 -0.7911  1.2864
  581SOL     OW 2576   3.146   7.398   0.838 -0.3046  0.1491  0.4172
  581SOL    HW1 2577   3.132   7.353   0.921  1.0295  2.0042  1.7229
  581SOL    HW2 2578   3.109   7.486   0.852  1.3984  1.0342 -0.3391
  582SOL     OW 2579   6.904   0.871   3.844  0.6776 -0.0259 -0.2099
  582SOL    HW1 2580   6.983   0.877   3.899  0.4121 -2.6602  0.6216
  582SOL    HW2 2581   6.904   0.951   3.792  2.8759  0.9217  1.1205
  583SOL     OW 2582   6.701   1.745   6.578  0.1074 -0.0940 -0.8416
  583SOL    HW1 2583   6.792   1.774   6.585  1.1811 -2.8338 -2.1172
  583SOL    HW2 2584   6.696   1.697   6.495 -1.6564 -2.6138  0.5544
  584SOL     OW 2585   0.619   6.673   5.244 -0.2385  0.2008 -0.1571
  584SOL    HW1 2586   0.619   6.669   5.149 -0.4883  1.0149 -0.2041
  584SOL    HW2 2587   0.603   6.583   5.272 -2.8511  0.3339 -0.9400
  585SOL     OW 2588   4.973   5.918   5.067 -0.4763 -0.1197  0.2774
  585SOL    HW1 2589   4.890   5.961   5.084 -1.0391 -1.4797  1.1314
  585SOL    HW2 2590   5.033   5.989   5.043 -1.4154  1.0849  1.3800
  586SOL     OW 2591   1.173   1.349   5.598 -0.3462  0.5424  0.3372
  586SOL    HW1 2592   1.084   1.313   5.603 -0.6722  1.4930  2.3215
  586SOL    HW2 2593   1.161   1.443   5.606  0.8341  0.7040  0.3349
  587SOL     OW 2594   7.622   0.609   4.370  0.0674 -0.2285  0.0296
  587SOL    HW1 2595   7.651   0.569   4.288 -0.6321  1.5127 -1.1202
  587SOL    HW2 2596   7.626   0.703   4.354  2.3660  0.3118  2.8581
  588SOL     OW 2597   4.908   1.482   3.798  0.0045  0.1279  0.2131
  588SOL    HW1 2598   4.858   1.511   3.875 -0.8402  0.0889 -0.3101
  588SOL    HW2 2599   4.875   1.536   3.727 -0.6102 -1.1378 -0.5038
  589SOL     OW 2600   1.747   0.590   3.363  0.0416  0.8090  0.1203
  589SOL    HW1 2601   1.720   0.581   3.271  0.4362  2.0724 -0.1405
  589SOL    HW2 2602   1.770   0.682   3.372  2.9977  0.1123  0.6653
  590SOL     OW 2603   6.211   5.502   1.840  0.5642 -0.7019  0.5623
  590SOL    HW1 2604   6.136   5.445   1.856 -0.3952  0.7480  1.5550
  590SOL    HW2 2605   6.240   5.480   1.752 -1.7777 -0.5339 -0.3290
  591SOL     OW 2606   2.025   6.520   2.725  0.5747 -0.2764 -0.2335
  591SOL    HW1 2607   1.999   6.429   2.741  0.6008 -0.0606  1.2314
  591SOL    HW2 2608   1.948   6.571   2.749  0.3665  0.0799 -1.5918
  592SOL     OW 2609   0.476   7.251   3.242 -0.2100 -0.5661 -0.0577
  592SOL    HW1 2610   0.403   7.280   3.297  0.5691 -1.3204  1.4294
  592SOL    HW2 2611   0.548   7.239   3.303  1.1026 -0.0837 -1.4636
  593SOL     OW 2612   2.883   0.801   2.173 -0.0112 -0.2151 -0.0496
  593SOL    HW1 2613   2.796   0.840   2.183  0.1637 -0.0690  1.0238
  593SOL    HW2 2614   2.895   0.749   2.252  1.0487  0.1152  0.0162
  594SOL     OW 2615   1.058   5.958   0.885 -0.0015 -0.3232 -0.5407
  594SOL    HW1 2616   0.985   5.900   0.864  1.2243 -1.7902 -0.9174
  594SOL    HW2 2617   1.119   5.949   0.811  1.9455 -1.4716  1.1028
  595SOL     OW 2618   5.428   0.049   3.253 -0.3769  0.1076  0.2476
  595SOL    HW1 2619   5.495   0.112   3.226  0.0148 -1.1662 -2.0398
  595SOL    HW2 2620   5.477  -0.033   3.265 -1.1976 -0.2873  0.9799
  596SOL     OW 2621   5.680   5.295   4.711  0.1938  0.0596  0.4051
  596SOL    HW1 2622   5.719   5.277   4.797  0.6768  0.4644  0.2729
  596SOL    HW2 2623   5.726   5.372   4.679 -1.6093  1.3699  0.8187
  597SOL     OW 2624   5.418   6.614   2.804  0.0187  0.3875 -0.0953
  597SOL    HW1 2625   5.411   6.708   2.786  0.1034  0.5945  0.8888
  597SOL    HW2 2626   5.429   6.609   2.899  0.4283 -0.5981 -0.1869
  598SOL     OW 2627   3.075   2.677   0.233 -0.4413 -0.3367 -0.1896
  598SOL    HW1 2628   3.131   2.599   0.240  0.5036  0.4418  1.8434
  598SOL    HW2 2629   3.109   2.725   0.158  1.2173 -0.2432  0.5740
  599SOL     OW 2630   1.320   2.162   3.361  0.2482 -0.0909  0.3929
  599SOL    HW1 2631   1.306   2.073   3.330  1.3734  0.5338 -2.2631
  599SOL    HW2 2632   1.410   2.163   3.393  0.3197  0.1410  0.1887
  600SOL     OW 2633   5.432   7.305   6.337  0.7543  0.0796 -0.1894
  600SOL    HW1 2634   5.484   7.272   6.263 -0.9531 -0.7790 -1.0675
  600SOL    HW2 2635   5.463   7.394   6.350  2.2396 -0.3104 -0.8573
  601SOL     OW 2636   5.392   0.128   0.793 -0.1973 -0.9056  0.0032
  601SOL    HW1 2637   5.314   0.072   0.795  0.2211 -1.6765 -2.0849
  601SOL    HW2 2638   5.444   0.094   0.720  2.4986 -0.9125  1.7792
  602SOL     OW 2639   3.026   3.623   2.462 -0.2276  0.2721  0.4108
  602SOL    HW1 2640   3.050   3.562   2.393  0.1425  1.9305 -1.0062
  602SOL    HW2 2641   3.057   3.708   2.431 -1.3409  1.3169  1.9727
  603SOL     OW 2642   7.141   6.136   6.011  0.9081  0.4882  0.3805
  603SOL    HW1 2643   7.127   6.227   5.985  0.4582  0.4651  0.5385
  603SOL    HW2 2644   7.213   6.106   5.956  0.1023  0.5003 -0.6934
  604SOL     OW 2645   1.528   0.427   2.894  0.7611  0.1313 -0.0667
  604SOL    HW1 2646   1.602   0.398   2.841  0.8709 -0.6876  0.5188
  604SOL    HW2 2647   1.451   0.413   2.838  0.8956 -0.5284 -0.0982
  605SOL     OW 2648   0.550   1.475   4.609  0.3170 -0.2343 -0.2907
  605SOL    HW1 2649   0.640   1.443   4.604  0.4557  0.2584 -1.4223
  605SOL    HW2 2650   0.497   1.404   4.572  0.5542  0.4901 -2.1597
  606SOL     OW 2651   2.265   3.577   4.102 -0.4643  0.1362  0.5479
  606SOL    HW1 2652   2.267   3.645   4.034  0.8366 -1.6964 -1.3561
  606SOL    HW2 2653   2.236   3.498   4.057 -0.8968 -0.8591  2.4705
  607SOL     OW 2654   0.539   2.711   6.349  0.3736  0.0931  0.4376
  607SOL    HW1 2655   0.483   2.736   6.422 -0.6224 -0.7537 -0.0171
  607SOL    HW2 2656   0.627   2.735   6.377  0.3259 -2.1774  2.8180
  608SOL     OW 2657   6.440   1.369   2.830  0.1126  0.1118 -0.1364
  608SOL    HW1 2658   6.408   1.445   2.879 -1.8994 -0.4704 -0.4419
  608SOL    HW2 2659   6.466   1.307   2.898 -2.0916 -0.4537  0.2899
  609SOL     OW 2660   7.849   7.259   2.371  0.6364  0.3230 -0.6498
  609SOL    HW1 2661   7.929   7.279   2.323  0.4017 -1.8139 -2.0458
  609SOL    HW2 2662   7.784   7.321   2.336  1.6157  2.0994  0.5246
  610SOL     OW 2663   2.793   4.099   5.412  0.1687 -0.0171  0.2118
  610SOL    HW1 2664   2.749   4.026   5.368  0.6741  0.3293 -0.9088
  610SOL    HW2 2665   2.732   4.173   5.401  1.0888  0.5380 -1.6009
  611SOL     OW 2666   0.876   4.668   2.266 -0.2726 -0.3379 -0.0041
  611SOL    HW1 2667   0.926   4.589   2.247 -0.1780 -0.5798  1.1636
  611SOL    HW2 2668   0.839   4.694   2.182  0.6300 -0.9724 -0.6146
  612SOL     OW 2669   7.076   7.764   2.581 -0.5719  0.4982  0.2400
  612SOL    HW1 2670   6.996   7.721   2.610  0.2447 -0.2448  1.4792
  612SOL    HW2 2671   7.097   7.723   2.496 -0.7579 -0.2887  0.5697
  613SOL     OW 2672   3.929   6.427   6.894  0.6394  0.2490  0.3284
  613SOL    HW1 2673   3.850   6.464   6.857  0.9100  0.2893 -0.2202
  613SOL    HW2 2674   3.980   6.503   6.923  0.0323  0.1839  1.6297
  614SOL     OW 2675   4.164   5.907   1.011 -0.0165 -0.0077 -0.4512
  614SOL    HW1 2676   4.107   5.832   0.993 -1.7922  1.1938 -0.1474
  614SOL    HW2 2677   4.253   5.873   1.001 -0.7770 -1.8149 -1.5814
  615SOL     OW 2678   4.651   4.468   6.406  0.1355 -0.9023 -0.3908
  615SOL    HW1 2679   4.687   4.521   6.335  2.1072  1.3158  2.0424
  615SOL    HW2 2680   4.578   4.519   6.441  0.3720 -1.0369  0.3284
  616SOL     OW 2681   5.961   3.549   6.610  0.3133 -0.2508 -0.8827
  616SOL    HW1 2682   5.897   3.521   6.545  0.0326  0.4290 -0.9043
  616SOL    HW2 2683   6.046   3.532   6.570  0.2471 -3.2806 -0.0028
  617SOL     OW 2684   3.105   3.436   5.793  0.0710  0.2185  0.3087
  617SOL    HW1 2685   3.174   3.465   5.852 -1.6162  1.8593  1.5825
  617SOL    HW2 2686   3.144   3.361   5.746  2.5412  0.8393  1.2019
  618SOL     OW 2687   6.468   5.079   4.200  0.3563  0.5213  0.4236
  618SOL    HW1 2688   6.493   5.140   4.131 -1.2477  0.6223 -0.1193
  618SOL    HW2 2689   6.378   5.054   4.178 -0.5695  1.2715  2.9356
  619SOL     OW 2690   7.742   2.361   2.380 -0.1017  0.0995 -0.3824
  619SOL    HW1 2691   7.744   2.429   2.313  0.0971 -1.0129 -1.5502
  619SOL    HW2 2692   7.649   2.345   2.396 -0.1970  1.9584  1.3470
  620SOL     OW 2693   2.862   2.895   3.206  0.6800 -0.1326  0.0129
  620SOL    HW1 2694   2.881   2.924   3.116 -0.0779  1.6725  0.3932
  620SOL    HW2 2695   2.769   2.872   3.204  0.5590  0.3042  0.4159
  621SOL     OW 2696   0.344   4.276   2.210 -0.6458 -0.0507 -0.0313
  621SOL    HW1 2697   0.279   4.237   2.268  0.1515  0.3351  1.1521
  621SOL    HW2 2698   0.412   4.209   2.202 -0.8266 -0.1658 -0.6674
  622SOL     OW 2699   3.090   0.583   3.555  0.0526 -0.1917 -0.2207
  622SOL    HW1 2700   3.116   0.493   3.577 -0.1877 -0.3628 -0.6356
  622SOL    HW2 2701   3.025   0.605   3.622 -0.1309 -0.4466 -0.3115
  623SOL     OW 2702   6.777   2.539   2.500 -0.5086  0.9767  0.1646
  623SOL    HW1 2703   6.840   2.607   2.524 -1.3357  2.5925 -1.8139
  623SOL    HW2 2704   6.703   2.588   2.464 -1.3278 -0.9781 -0.9767
  624SOL     OW 2705   6.978   6.134   4.289 -0.2589 -0.4928 -0.2450
  624SOL    HW1 2706   6.887   6.153   4.309 -0.3090 -1.1395  0.1615
  624SOL    HW2 2707   7.000   6.195   4.218 -0.2765  1.3450  1.2687
  625SOL     OW 2708   3.690   1.839   4.377  0.0855 -0.2209 -0.8176
  625SOL    HW1 2709   3.753   1.768   4.393  0.1189 -0.0763 -0.2721
  625SOL    HW2 2710   3.725   1.886   4.302  1.1931  0.4790  0.1123
  626SOL     OW 2711   4.355   2.127   2.431 -0.2392  0.1175 -0.1941
  626SOL    HW1 2712   4.445   2.159   2.427 -0.0959 -0.0769  1.0643
  626SOL    HW2 2713   4.301   2.203   2.412  0.1894  0.1188 -1.4964
  627SOL     OW 2714   7.084   6.816   2.953  0.0666  0.3001  0.4253
  627SOL    HW1 2715   7.025   6.798   3.026 -0.8455  1.4369 -0.0130
  627SOL    HW2 2716   7.159   6.861   2.992 -0.7636  1.5891  0.5856
  628SOL     OW 2717   0.479   4.152   2.741  0.4732 -0.8558 -0.5020
  628SOL    HW1 2718   0.560   4.120   2.702  0.5576 -2.0374  0.5429
  628SOL    HW2 2719   0.499   4.240   2.772  2.0752 -1.8506  1.5999
  629SOL     OW 2720   6.364   5.105   3.510 -0.3709 -0.0642  0.2349
  629SOL    HW1 2721   6.271   5.097   3.489 -0.0007 -1.1339 -1.1153
  629SOL    HW2 2722   6.410   5.085   3.429  1.0635  0.0812  0.9649
  630SOL     OW 2723   3.592   3.954   2.080  0.0836  0.1114  0.2857
  630SOL    HW1 2724   3.516   3.962   2.022 -0.9487  0.9291  1.6723
  630SOL    HW2 2725   3.588   3.864   2.112 -2.2702  0.9610  2.7938
  631SOL     OW 2726   5.397   0.261   2.798 -0.1380  0.5091 -0.3806
  631SOL    HW1 2727   5.348   0.224   2.724 -2.4978  2.0651  0.3159
  631SOL    HW2 2728   5.414   0.351   2.772 -0.3194  0.8480  0.6725
  632SOL     OW 2729   0.955   3.936   7.641 -0.2179 -0.1906 -0.1073
  632SOL    HW1 2730   0.980   4.017   7.597 -0.0878 -1.0231 -1.6421
  632SOL    HW2 2731   0.972   3.867   7.576  0.2496 -1.5184  1.3617
  633SOL     OW 2732   5.242   1.916   7.618 -0.1338 -0.7906 -0.0610
  633SOL    HW1 2733   5.274   1.887   7.704 -0.0245 -1.5360 -0.3370
  633SOL    HW2 2734   5.150   1.891   7.618 -0.1660 -0.6689 -0.1095
  634SOL     OW 2735   7.369   7.127   2.218 -0.1107  0.1200  0.0494
  634SOL    HW1 2736   7.286   7.106   2.176 -0.8005  1.5105  0.6489
  634SOL    HW2 2737   7.399   7.207   2.173  0.7537 -0.1865  0.0559
  635SOL     OW 2738   7.264   4.938   0.895 -0.1084 -0.0083 -0.6357
  635SOL    HW1 2739   7.266   5.033   0.910 -1.5460 -0.0472 -0.0090
  635SOL    HW2 2740   7.195   4.926   0.830 -1.1716 -0.7503  0.5939
  636SOL     OW 2741   2.759   2.035   2.655 -0.3319  0.5667  0.3716
  636SOL    HW1 2742   2.834   1.992   2.613 -0.3478  1.0757 -0.1926
  636SOL    HW2 2743   2.682   1.996   2.613 -0.3359  1.7178 -0.7564
  637SOL     OW 2744   3.161   5.697   0.455 -0.2856 -0.0281  0.1282
  637SOL    HW1 2745   3.185   5.662   0.369  1.2751  0.2380  0.4378
  637SOL    HW2 2746   3.145   5.619   0.509  1.7317 -0.2961  0.4076
  638SOL     OW 2747   5.544   0.277   6.372  0.1626 -0.0849 -0.4675
  638SOL    HW1 2748   5.546   0.188   6.337 -0.9167  0.7689 -2.8901
  638SOL    HW2 2749   5.631   0.290   6.410  0.4486 -2.0395 -0.3388
  639SOL     OW 2750   3.506   6.609   1.972 -0.5282 -0.0927  0.0910
  639SOL    HW1 2751   3.489   6.658   1.892 -0.4249  0.6544  0.5234
  639SOL    HW2 2752   3.557   6.533   1.943 -1.5589 -0.4990 -0.7212
  640SOL     OW 2753   1.715   7.324   1.915  0.0137 -0.3500  0.7608
  640SOL    HW1 2754   1.747   7.361   1.833 -0.5760 -0.3310  0.5350
  640SOL    HW2 2755   1.677   7.399   1.962  0.3706 -0.3564  1.0636
  641SOL     OW 2756   5.859   2.307   7.349  0.0221 -0.0494  0.3598
  641SOL    HW1 2757   5.880   2.297   7.256 -1.7715 -1.0941  0.0305
  641SOL    HW2 2758   5.852   2.218   7.382 -0.7561  0.2947  1.1673
  642SOL     OW 2759   6.083   6.230   1.745 -0.2571 -1.2455 -0.3956
  642SOL    HW1 2760   5.998   6.204   1.709 -0.1104 -0.7693 -1.1057
  642SOL    HW2 2761   6.140   6.155   1.729 -0.2588 -1.1339 -0.9368
  643SOL     OW 2762   7.134   4.532   0.229 -0.0097 -0.0971 -0.3671
  643SOL    HW1 2763   7.073   4.607   0.233 -0.8727 -0.8311  2.1239
  643SOL    HW2 2764   7.219   4.570   0.252 -0.7595 -0.0353  2.9058
  644SOL     OW 2765   6.638   1.094   0.561  0.3235  0.5911 -0.0486
  644SOL    HW1 2766   6.725   1.096   0.520  1.0091  1.9993  1.3633
  644SOL    HW2 2767   6.604   1.006   0.541  2.4640 -0.3468  0.1453
  645SOL     OW 2768   1.557   7.536   3.179  0.7055 -0.5213 -0.5698
  645SOL    HW1 2769   1.607   7.550   3.099  0.4059 -2.0124 -1.0298
  645SOL    HW2 2770   1.596   7.458   3.219  0.1247 -0.4469  0.1655
  646SOL     OW 2771   2.547   0.629   2.831  0.4299  0.1222  0.5630
  646SOL    HW1 2772   2.583   0.715   2.811  1.1419 -0.0384  1.0749
  646SOL    HW2 2773   2.615   0.568   2.801  0.4683 -0.2022  1.2738
  647SOL     OW 2774   6.612   2.546   5.134 -0.0748  0.6222  0.0928
  647SOL    HW1 2775   6.626   2.469   5.079  0.4248  1.6541 -1.2759
  647SOL    HW2 2776   6.528   2.529   5.178  0.1847 -0.8332  0.0814
  648SOL     OW 2777   1.332   2.845   3.814  0.1272  0.1131  0.1057
  648SOL    HW1 2778   1.364   2.852   3.904 -0.2132  2.3990  0.1054
  648SOL    HW2 2779   1.405   2.878   3.760  0.1338 -0.7460 -0.4287
  649SOL     OW 2780   6.053   6.121   0.997 -0.3305  0.2967 -0.5875
  649SOL    HW1 2781   6.011   6.036   0.987  0.7932 -0.1912 -1.3278
  649SOL    HW2 2782   6.103   6.114   1.078 -1.3039  0.7294  0.0648
  650SOL     OW 2783   5.731   7.024   0.250 -0.2432  0.5005  0.0775
  650SOL    HW1 2784   5.648   6.978   0.248  0.0103 -0.0259  1.0342
  650SOL    HW2 2785   5.762   7.015   0.340  1.0953  0.2263 -0.3755
  651SOL     OW 2786   5.759   0.964   0.885  0.0832  0.2754  0.3619
  651SOL    HW1 2787   5.735   1.014   0.963  0.0743  0.7688  0.0464
  651SOL    HW2 2788   5.680   0.912   0.864  0.3074 -0.3666  1.0623
  652SOL     OW 2789   3.919   3.117   5.663 -0.2432 -0.1676  0.2881
  652SOL    HW1 2790   4.012   3.117   5.641  0.0462 -0.3673  1.4425
  652SOL    HW2 2791   3.896   3.209   5.672 -0.6852 -0.0051 -2.0127
  653SOL     OW 2792   2.382   3.322   7.861 -0.3791  0.4540 -0.0437
  653SOL    HW1 2793   2.316   3.255   7.874 -1.4106  1.8507  3.2137
  653SOL    HW2 2794   2.465   3.277   7.877 -0.7969 -0.6434 -0.8881
  654SOL     OW 2795   7.492   7.665   2.094  0.8405 -0.7326 -0.5953
  654SOL    HW1 2796   7.427   7.721   2.135  1.9159 -0.5628  0.9357
  654SOL    HW2 2797   7.549   7.725   2.045 -0.0038 -0.8675 -1.8073
  655SOL     OW 2798   1.447   5.215   3.988  0.2386  0.4341 -0.4888
  655SOL    HW1 2799   1.357   5.187   3.969  0.1255  1.7577 -2.1313
  655SOL    HW2 2800   1.479   5.150   4.051 -1.6342 -0.4496 -0.3600
  656SOL     OW 2801   2.007   6.372   1.503  0.1227  0.5543 -0.4731
  656SOL    HW1 2802   2.075   6.363   1.436 -0.0514  1.0320 -0.7171
  656SOL    HW2 2803   2.002   6.466   1.519 -0.1815  0.4827 -0.1444
  657SOL     OW 2804   4.804   5.400   4.681  0.0196 -0.1851  0.0486
  657SOL    HW1 2805   4.733   5.380   4.742 -0.8934 -1.8256 -1.4433
  657SOL    HW2 2806   4.862   5.324   4.686  0.3654  0.0348 -0.5255
  658SOL     OW 2807   7.190   5.799   7.220 -0.6492 -0.6466 -0.0520
  658SOL    HW1 2808   7.172   5.833   7.132  0.6665 -0.3133 -0.2082
  658SOL    HW2 2809   7.285   5.797   7.226 -0.7228 -0.8399  1.3141
  659SOL     OW 2810   4.590   5.724   3.367 -0.3022 -0.2784  0.4874
  659SOL    HW1 2811   4.668   5.710   3.314 -1.2782 -0.7942 -0.8577
  659SOL    HW2 2812   4.622   5.773   3.443  0.8719  2.2044 -1.4427
  660SOL     OW 2813   2.633   1.522   5.704 -0.7019 -0.7680 -0.2952
  660SOL    HW1 2814   2.635   1.483   5.616  0.6215 -0.8488 -0.2503
  660SOL    HW2 2815   2.725   1.534   5.727 -1.0468  0.9305  0.3530
  661SOL     OW 2816   6.378   2.708   0.825  0.1620 -0.2971 -0.5299
  661SOL    HW1 2817   6.390   2.761   0.746 -0.1460  0.8183  0.1556
  661SOL    HW2 2818   6.380   2.618   0.794  1.8129  0.0606 -1.5855
  662SOL     OW 2819   2.518   0.175   4.955 -0.6407  0.3920  0.3397
  662SOL    HW1 2820   2.453   0.122   5.002 -0.2046 -1.7479 -1.2948
  662SOL    HW2 2821   2.598   0.165   5.007 -0.4936 -0.8523 -0.0959
  663SOL     OW 2822   7.435   7.405   2.070 -0.1959  0.1663 -0.4228
  663SOL    HW1 2823   7.443   7.500   2.066  0.9457  0.0391 -1.6523
  663SOL    HW2 2824   7.472   7.374   1.988 -1.1765 -1.3224 -0.3476
  664SOL     OW 2825   3.308   2.092   5.849  0.1277  0.2720 -0.1908
  664SOL    HW1 2826   3.385   2.133   5.889 -0.3741  0.3387  0.7291
  664SOL    HW2 2827   3.242   2.091   5.918 -1.9407  3.4355 -1.8764
  665SOL     OW 2828   1.531   3.787   0.810  0.3862 -0.5756  0.2154
  665SOL    HW1 2829   1.494   3.707   0.847 -1.6647  0.4428  0.4873
  665SOL    HW2 2830   1.524   3.776   0.715  0.9710 -1.0881  0.2282
  666SOL     OW 2831   2.818   1.278   4.285 -0.3190  0.3302 -0.4013
  666SOL    HW1 2832   2.810   1.189   4.252 -0.0769 -0.1669  0.8203
  666SOL    HW2 2833   2.825   1.333   4.206 -0.5939 -0.7082 -1.1633
  667SOL     OW 2834   7.063   5.123   7.728  0.5024  0.2626 -0.4419
  667SOL    HW1 2835   7.104   5.084   7.651 -0.9050 -1.8964 -0.1663
  667SOL    HW2 2836   7.096   5.071   7.802 -2.7693 -1.7231 -0.2289
  668SOL     OW 2837   6.633   0.953   1.915  0.0814  0.6613 -0.8257
  668SOL    HW1 2838   6.661   1.044   1.906  0.3143  0.8059  0.9589
  668SOL    HW2 2839   6.713   0.907   1.942 -0.3056  0.1709 -0.5010
  669SOL     OW 2840   1.989   2.311   4.206  0.0118 -0.0926  0.3710
  669SOL    HW1 2841   1.953   2.360   4.133 -0.5564  0.4732  1.0075
  669SOL    HW2 2842   2.082   2.304   4.187 -0.2881 -0.9021 -0.9289
  670SOL     OW 2843   2.830   7.787   2.221  0.1677  0.4440  0.0046
  670SOL    HW1 2844   2.827   7.883   2.222  0.7031  0.4748 -0.5308
  670SOL    HW2 2845   2.836   7.762   2.313  0.0633  0.9304  0.1468
  671SOL     OW 2846   0.219   2.442   3.587  0.2664  0.2084 -0.4231
  671SOL    HW1 2847   0.244   2.369   3.643  0.9722 -0.0248 -1.0259
  671SOL    HW2 2848   0.298   2.495   3.579 -0.0214  0.6137 -0.6333
  672SOL     OW 2849   4.418   6.392   2.312  0.4621 -0.7015 -0.5911
  672SOL    HW1 2850   4.362   6.469   2.298 -1.0283 -0.6791  3.9711
  672SOL    HW2 2851   4.492   6.425   2.363  0.0459 -2.1333  1.0217
  673SOL     OW 2852   4.769   4.551   1.777  0.1729 -0.1177 -0.1233
  673SOL    HW1 2853   4.781   4.503   1.858  0.7941 -0.4118 -0.3864
  673SOL    HW2 2854   4.847   4.533   1.726  0.2751  0.9227 -0.3583
  674SOL     OW 2855   4.742   3.768   3.132 -0.1773 -0.2976  0.5587
  674SOL    HW1 2856   4.814   3.782   3.071 -1.2912 -1.9127 -1.2789
  674SOL    HW2 2857   4.781   3.725   3.207  1.1422  1.1453  0.7346
  675SOL     OW 2858   4.692   0.167   3.649  0.1073 -0.0907 -0.1179
  675SOL    HW1 2859   4.605   0.189   3.614  0.5928  0.4666 -1.0220
  675SOL    HW2 2860   4.676   0.097   3.712 -0.7890 -1.3685 -1.6857
  676SOL     OW 2861   4.145   4.651   7.447  0.6618 -0.2620  0.4829
  676SOL    HW1 2862   4.171   4.636   7.356  0.0180  0.8854  0.0886
  676SOL    HW2 2863   4.215   4.613   7.499  0.3348 -2.2588 -0.4619
  677SOL     OW 2864   0.197   5.968   7.755 -0.0226  0.5334 -0.6662
  677SOL    HW1 2865   0.193   5.953   7.850 -0.5285  0.7973 -0.6469
  677SOL    HW2 2866   0.188   5.881   7.717  0.6579  0.3679 -0.4644
  678SOL     OW 2867   7.465   5.139   0.128  0.6030 -0.0467 -0.0643
  678SOL    HW1 2868   7.426   5.083   0.061  1.5709 -1.6559  0.6643
  678SOL    HW2 2869   7.390   5.177   0.175 -0.1176  1.6004 -2.3636
  679SOL     OW 2870   5.063   6.311   0.828  0.2790 -0.0080 -0.2763
  679SOL    HW1 2871   4.971   6.333   0.843  0.4372 -0.5651  1.7177
  679SOL    HW2 2872   5.112   6.375   0.880  0.9736 -0.5565 -0.2354
  680SOL     OW 2873   1.619   2.873   1.646 -0.5100  0.4227 -0.1962
  680SOL    HW1 2874   1.690   2.896   1.587  1.8784 -1.8909  1.5546
  680SOL    HW2 2875   1.589   2.787   1.617  0.2519 -0.4479  1.4512
  681SOL     OW 2876   3.567   1.147   6.849  0.1698 -0.2367 -0.3299
  681SOL    HW1 2877   3.550   1.080   6.784 -0.2973  0.5839 -1.0642
  681SOL    HW2 2878   3.651   1.186   6.822  0.5829 -0.7005  0.2548
  682SOL     OW 2879   0.003   7.491   4.533 -0.1818 -0.0312 -0.1444
  682SOL    HW1 2880  -0.054   7.523   4.603 -0.3596  0.3992 -0.4761
  682SOL    HW2 2881   0.028   7.570   4.485  0.3614 -0.2636 -0.2507
  683SOL     OW 2882   5.869   6.134   3.919  0.1630 -0.0255 -0.1739
  683SOL    HW1 2883   5.796   6.132   3.980 -0.4334  2.7248 -0.6529
  683SOL    HW2 2884   5.900   6.043   3.915 -1.8041 -0.8647  1.7009
  684SOL     OW 2885   1.989   7.504   1.756 -0.2281 -0.0051  0.0230
  684SOL    HW1 2886   1.961   7.561   1.828 -1.3684  0.5014 -0.7898
  684SOL    HW2 2887   2.011   7.564   1.686 -0.6184 -0.5378 -0.5653
  685SOL     OW 2888   2.390   1.219   3.225  0.4127  0.1947 -0.0047
  685SOL    HW1 2889   2.451   1.179   3.163  0.9285  1.3501 -0.2767
  685SOL    HW2 2890   2.440   1.226   3.307  0.4813  0.6585 -0.0810
  686SOL     OW 2891   5.191   7.243   6.203 -0.3348  0.2465  0.2258
  686SOL    HW1 2892   5.200   7.153   6.173  0.7818  0.1264  0.8800
  686SOL    HW2 2893   5.263   7.256   6.264  0.6783  2.1384 -1.2283
  687SOL     OW 2894   0.199   5.402   4.208 -0.9518 -0.0967 -0.5967
  687SOL    HW1 2895   0.195   5.439   4.296  0.8681 -2.1216  0.4212
  687SOL    HW2 2896   0.135   5.331   4.208  1.7687 -2.7612  0.5779
  688SOL     OW 2897   4.057   2.661   6.523 -0.2386 -0.2291 -0.1949
  688SOL    HW1 2898   3.980   2.715   6.503  0.1371  0.1295 -0.6990
  688SOL    HW2 2899   4.128   2.701   6.473  1.1140  1.5998  2.8960
  689SOL     OW 2900   2.604   5.948   5.435  0.0221 -0.2946  0.1046
  689SOL    HW1 2901   2.681   6.003   5.423  0.3365 -0.8838 -0.6539
  689SOL    HW2 2902   2.617   5.907   5.520  0.3459 -0.0803  0.1599
  690SOL     OW 2903   6.001   5.739   4.597 -0.0924  0.0949 -0.1857
  690SOL    HW1 2904   5.995   5.834   4.610 -1.0322 -0.3930  4.7064
  690SOL    HW2 2905   6.076   5.712   4.649  0.4886 -1.9212 -1.9014
  691SOL     OW 2906   0.529   4.377   2.860 -0.2450 -0.5728  0.5163
  691SOL    HW1 2907   0.549   4.471   2.864 -1.6119 -0.3002  2.1897
  691SOL    HW2 2908   0.572   4.340   2.936 -2.0325 -0.7830  1.4673
  692SOL     OW 2909   1.117   5.438   3.766  0.3616  0.2106  0.1690
  692SOL    HW1 2910   1.210   5.458   3.753  0.1538 -0.0811 -2.3085
  692SOL    HW2 2911   1.110   5.345   3.745 -0.1534 -0.4122  2.7428
  693SOL     OW 2912   0.183   7.136   6.436 -0.0993  0.2562 -0.4254
  693SOL    HW1 2913   0.220   7.201   6.495  1.3782  0.0999 -1.1263
  693SOL    HW2 2914   0.142   7.072   6.494  1.0620  0.2521  0.4384
  694SOL     OW 2915   1.351   3.972   0.890 -0.4356  0.5567 -0.1207
  694SOL    HW1 2916   1.363   3.959   0.984  0.1068  0.2196 -0.2288
  694SOL    HW2 2917   1.420   3.919   0.850 -0.8239  0.4896 -0.7167
  695SOL     OW 2918   0.718   4.095   2.643 -0.0401 -0.3993  0.3209
  695SOL    HW1 2919   0.696   4.028   2.578 -0.9949 -1.8467  2.0749
  695SOL    HW2 2920   0.783   4.150   2.599  2.5361 -3.7800 -0.4693
  696SOL     OW 2921   1.833   3.049   0.814  0.0339  0.1355 -0.4242
  696SOL    HW1 2922   1.886   3.109   0.762 -0.3325 -0.2904 -1.3058
  696SOL    HW2 2923   1.831   2.968   0.763  0.2612 -0.5356  0.5962
  697SOL     OW 2924   7.533   2.779   6.017 -0.7935 -0.1933 -0.0741
  697SOL    HW1 2925   7.543   2.835   6.094  2.1406 -0.5356 -0.0926
  697SOL    HW2 2926   7.532   2.690   6.051 -1.2065 -0.2825 -0.3149
  698SOL     OW 2927   5.450   2.865   4.780  0.5490  0.0333 -0.1035
  698SOL    HW1 2928   5.465   2.878   4.873 -1.0381  0.7507  0.0781
  698SOL    HW2 2929   5.444   2.770   4.770  1.3053 -0.0824  0.4037
  699SOL     OW 2930   4.809   5.057   2.077 -0.0042 -0.0434  0.1944
  699SOL    HW1 2931   4.888   5.033   2.125 -0.0138  0.3136  0.3879
  699SOL    HW2 2932   4.805   4.994   2.005  0.9188  0.4425 -0.3059
  700SOL     OW 2933   7.554   2.826   7.553  0.3389  0.5558 -0.0447
  700SOL    HW1 2934   7.623   2.760   7.543  1.3710  1.3106  1.5931
  700SOL    HW2 2935   7.496   2.812   7.478  2.1194 -0.3096 -1.3441
  701SOL     OW 2936   6.848   7.100   3.418 -0.5005 -0.5233  0.0078
  701SOL    HW1 2937   6.820   7.012   3.445  1.6624 -1.4246 -0.4679
  701SOL    HW2 2938   6.899   7.133   3.491 -1.0515  0.2431  0.0604
  702SOL     OW 2939   5.136   3.344   5.456  0.5690 -0.0516  0.0367
  702SOL    HW1 2940   5.141   3.332   5.551  0.9923  0.5210  0.0895
  702SOL    HW2 2941   5.070   3.280   5.428 -0.7229  0.8500  0.9028
  703SOL     OW 2942   4.809   6.930   1.784  0.1148  0.0257 -0.1197
  703SOL    HW1 2943   4.828   7.024   1.792  0.2214  0.0079 -0.1723
  703SOL    HW2 2944   4.719   6.922   1.816  0.2629  0.0767  0.3213
  704SOL     OW 2945   3.855   7.517   3.077 -0.0089 -0.4312  0.1401
  704SOL    HW1 2946   3.908   7.460   3.133  2.0271 -0.6230 -1.8389
  704SOL    HW2 2947   3.819   7.459   3.011 -0.4046  0.1337 -0.1506
  705SOL     OW 2948   6.218   7.711   5.469  0.1581  0.7450  0.2473
  705SOL    HW1 2949   6.130   7.750   5.469 -0.4361 -0.4886 -1.2044
  705SOL    HW2 2950   6.244   7.711   5.377  0.7477 -0.8614  0.3789
  706SOL     OW 2951   2.744   5.101   3.496  0.2363 -0.4500  0.5138
  706SOL    HW1 2952   2.808   5.169   3.476  1.6360 -1.3960  1.5874
  706SOL    HW2 2953   2.659   5.146   3.492  0.6493  0.3721 -3.2015
  707SOL     OW 2954   6.663   1.169   5.066  0.3045 -0.2849 -0.2395
  707SOL    HW1 2955   6.677   1.080   5.034 -2.8712 -0.9812 -0.0277
  707SOL    HW2 2956   6.743   1.216   5.044  1.2602 -2.6648 -2.2149
  708SOL     OW 2957   6.500   7.542   3.003  0.5104 -0.4309 -0.1076
  708SOL    HW1 2958   6.495   7.446   3.010  1.0621 -0.6022 -1.6739
  708SOL    HW2 2959   6.428   7.574   3.058  0.1720 -1.7477  0.2517
  709SOL     OW 2960   4.841   3.500   2.990  0.3998  0.0563 -0.1237
  709SOL    HW1 2961   4.751   3.495   2.959  0.2692  1.7445 -0.1260
  709SOL    HW2 2962   4.894   3.473   2.915 -0.0800 -0.4788 -0.2747
  710SOL     OW 2963   1.660   1.250   4.017 -0.0135 -0.1402  0.6227
  710SOL    HW1 2964   1.643   1.244   4.112  0.5712 -0.5660  0.7023
  710SOL    HW2 2965   1.752   1.225   4.008 -0.3076 -0.9600 -0.1582
  711SOL     OW 2966   2.829   6.100   7.229  0.0632  0.3663 -0.3531
  711SOL    HW1 2967   2.779   6.026   7.263  1.2740  0.0945  0.9084
  711SOL    HW2 2968   2.765   6.151   7.180 -0.9183 -1.2012 -0.7669
  712SOL     OW 2969   2.919   7.813   4.469 -0.0365  0.3122  0.3567
  712SOL    HW1 2970   2.846   7.776   4.420  0.3121  1.3439 -0.9999
  712SOL    HW2 2971   2.935   7.750   4.540 -2.4981  0.2794  0.9546
  713SOL     OW 2972   0.666   6.239   4.367 -0.2941 -0.4540 -0.2080
  713SOL    HW1 2973   0.682   6.193   4.285  0.7849  0.2810 -0.4299
  713SOL    HW2 2974   0.676   6.332   4.345 -0.7016 -0.2073  0.6032
  714SOL     OW 2975   5.047   1.863   1.153  0.0628  0.1016 -0.2560
  714SOL    HW1 2976   5.080   1.805   1.084  0.6447 -0.0609  0.1521
  714SOL    HW2 2977   4.982   1.810   1.200 -0.0078  0.0598 -0.4011
  715SOL     OW 2978   1.895   4.136   2.350  0.2526  0.4626 -0.4880
  715SOL    HW1 2979   1.950   4.059   2.339  0.7277  0.5462  1.0596
  715SOL    HW2 2980   1.848   4.120   2.432 -1.3413  0.8227 -1.2862
  716SOL     OW 2981   5.006   5.077   5.394 -0.5940 -0.1905 -0.3809
  716SOL    HW1 2982   4.960   5.139   5.451 -0.1493 -1.7339  1.7952
  716SOL    HW2 2983   5.096   5.109   5.392 -0.1825 -1.0746  1.3755
  717SOL     OW 2984   0.638   0.076   4.135  0.3929 -0.0455 -0.8606
  717SOL    HW1 2985   0.720   0.048   4.175  0.4045 -0.4735 -1.1711
  717SOL    HW2 2986   0.648   0.170   4.121  1.3030 -0.2934 -1.9862
  718SOL     OW 2987   1.160   6.054   7.302 -0.1283 -0.0784  0.0248
  718SOL    HW1 2988   1.203   6.034   7.218 -1.0281 -1.1774 -0.2039
  718SOL    HW2 2989   1.162   6.149   7.308  2.2807 -0.0800  0.0150
  719SOL     OW 2990   4.341   4.377   4.150 -0.0955 -0.2256 -0.0097
  719SOL    HW1 2991   4.248   4.359   4.148 -0.5927  1.8469  0.9839
  719SOL    HW2 2992   4.368   4.359   4.240  0.2022  0.1952 -0.0049
  720SOL     OW 2993   6.065   6.613   1.909  0.1445 -0.1610  0.1049
  720SOL    HW1 2994   6.126   6.572   1.848 -0.2618  2.0992 -2.0017
  720SOL    HW2 2995   5.995   6.549   1.920  0.2895 -0.7162 -1.7948
  721SOL     OW 2996   6.167   3.917   3.220  0.0734 -0.1289 -0.6401
  721SOL    HW1 2997   6.127   3.992   3.175 -2.4287 -1.0765 -0.1607
  721SOL    HW2 2998   6.161   3.846   3.156  0.3247 -0.4721 -0.2851
  722SOL     OW 2999   3.357   5.924   4.176 -0.8515 -0.2733  0.1528
  722SOL    HW1 3000   3.395   5.981   4.109  1.1920 -1.4240  0.2205
  722SOL    HW2 3001   3.283   5.882   4.133 -0.6972  0.3941 -0.7831
  723SOL     OW 3002   5.633   5.704   7.216 -0.1838 -0.8285 -0.4608
  723SOL    HW1 3003   5.587   5.787   7.225 -1.3480 -1.3873 -1.0500
  723SOL    HW2 3004   5.720   5.727   7.185  0.1287  0.2898  1.1437
  724SOL     OW 3005   5.939   3.779   2.709 -0.4504  0.0601  0.4542
  724SOL    HW1 3006   5.891   3.738   2.781  0.6398 -1.9870  0.0946
  724SOL    HW2 3007   5.879   3.773   2.634 -0.2494 -1.1362  0.3608
  725SOL     OW 3008   7.938   4.726   3.297 -0.0736  0.0281  0.0573
  725SOL    HW1 3009   7.846   4.702   3.290 -0.6030  1.8398  0.1370
  725SOL    HW2 3010   7.950   4.746   3.390 -0.3104  2.1529 -0.3001
  726SOL     OW 3011   5.872   5.041   4.453 -0.0541 -0.7137  0.3849
  726SOL    HW1 3012   5.964   5.046   4.427 -0.0465 -2.0980  0.1082
  726SOL    HW2 3013   5.846   5.133   4.465  1.3854 -0.3080  0.5988
  727SOL     OW 3014   6.703   3.470   2.962  0.4119 -0.3148  0.2180
  727SOL    HW1 3015   6.761   3.484   2.888 -0.0109 -0.0825 -0.0770
  727SOL    HW2 3016   6.734   3.531   3.029  0.3776 -0.0407 -0.0144
  728SOL     OW 3017   2.228   3.812   3.536 -0.8657 -0.7399  0.5465
  728SOL    HW1 3018   2.258   3.876   3.601 -2.6439  1.7406 -0.8826
  728SOL    HW2 3019   2.308   3.782   3.493  0.0491  0.7097  1.1406
  729SOL     OW 3020   2.712   0.849   2.744 -0.1427  0.0647  0.4224
  729SOL    HW1 3021   2.685   0.939   2.727 -0.5310 -0.1305 -0.0269
  729SOL    HW2 3022   2.791   0.857   2.797  1.3284  0.7576 -1.7107
  730SOL     OW 3023   6.762   4.924   3.051  0.1862 -0.5646 -0.3711
  730SOL    HW1 3024   6.673   4.898   3.028  0.0257 -0.8650  0.5306
  730SOL    HW2 3025   6.811   4.842   3.056  0.5545 -0.3911 -0.9851
  731SOL     OW 3026   2.596   5.307   6.952 -0.3593  0.0708  0.2200
  731SOL    HW1 3027   2.541   5.282   6.878  0.6034 -1.4737 -0.0234
  731SOL    HW2 3028   2.644   5.383   6.921 -1.6263  0.8514  0.0989
  732SOL     OW 3029   1.060   3.481   0.167  0.1652 -0.2552  0.4691
  732SOL    HW1 3030   0.969   3.488   0.139  0.0142  0.1190  1.0330
  732SOL    HW2 3031   1.068   3.543   0.239  1.0357  0.1907  0.0078
  733SOL     OW 3032   4.061   4.494   4.131  0.4076  0.1284  0.2111
  733SOL    HW1 3033   3.980   4.497   4.181  0.2382  2.4966 -0.0716
  733SOL    HW2 3034   4.036   4.456   4.047 -0.8973  2.3991 -0.5314
  734SOL     OW 3035   1.850   7.688   4.243 -0.3034  0.7020 -0.0135
  734SOL    HW1 3036   1.770   7.639   4.262 -0.4955  0.9929 -0.0619
  734SOL    HW2 3037   1.891   7.640   4.171  0.1857 -0.1320  0.8000
  735SOL     OW 3038   1.602   2.485   3.947  0.8898 -0.6819  0.2665
  735SOL    HW1 3039   1.579   2.417   3.884  0.1173  0.1731 -0.3967
  735SOL    HW2 3040   1.534   2.478   4.014  0.5850 -0.3164 -0.0013
  736SOL     OW 3041   0.758   1.425   7.054 -0.1332 -0.0461 -0.2189
  736SOL    HW1 3042   0.797   1.489   6.994 -0.0431 -0.3463 -0.4851
  736SOL    HW2 3043   0.833   1.377   7.089 -0.1615  0.3176  0.3633
  737SOL     OW 3044   1.725   4.950   5.105 -0.0890  0.1118 -0.1416
  737SOL    HW1 3045   1.775   5.009   5.163  0.2490  0.6021 -0.9217
  737SOL    HW2 3046   1.650   5.001   5.077 -1.7907 -1.0290  2.0236
  738SOL     OW 3047   4.898   0.374   3.611 -0.2359 -0.1760  0.2604
  738SOL    HW1 3048   4.858   0.390   3.526  0.4628  0.7307  0.0920
  738SOL    HW2 3049   4.824   0.347   3.667 -1.2554  2.0723  0.1273
  739SOL     OW 3050   1.396   1.293   3.915  0.2118  0.4445 -0.6137
  739SOL    HW1 3051   1.481   1.273   3.955  0.0487 -0.7817 -0.8268
  739SOL    HW2 3052   1.341   1.218   3.937 -0.7424  1.1134 -0.6952
  740SOL     OW 3053   0.161   0.942   6.562 -0.6723 -0.0698 -0.1860
  740SOL    HW1 3054   0.135   1.032   6.544  1.5113  0.5726 -0.3131
  740SOL    HW2 3055   0.231   0.923   6.500  1.0333 -0.7726  1.8267
  741SOL     OW 3056   5.797   0.813   3.111 -0.2032 -0.1176  0.1068
  741SOL    HW1 3057   5.810   0.764   3.192  2.5391 -1.2529 -0.9241
  741SOL    HW2 3058   5.867   0.878   3.110 -0.5438  0.2642 -1.0730
  742SOL     OW 3059   1.111   5.351   5.591 -0.1746 -0.3054 -0.6369
  742SOL    HW1 3060   1.202   5.339   5.562  0.0607  1.8395 -0.9590
  742SOL    HW2 3061   1.109   5.440   5.626 -1.3791 -1.4307  2.5383
  743SOL     OW 3062   6.507   1.299   4.478  0.3261  0.1097  0.0646
  743SOL    HW1 3063   6.548   1.236   4.418 -1.4584 -0.7639 -0.2857
  743SOL    HW2 3064   6.531   1.268   4.565 -0.9153 -1.3877 -0.0855
  744SOL     OW 3065   5.271   2.548   4.113 -0.1198  0.7459 -0.0948
  744SOL    HW1 3066   5.252   2.637   4.082 -1.0261  0.2060 -1.2037
  744SOL    HW2 3067   5.186   2.504   4.109  0.1994  0.0028  1.0614
  745SOL     OW 3068   4.515   1.723   3.083 -0.3472 -0.6030 -0.1676
  745SOL    HW1 3069   4.569   1.679   3.018  1.1430 -2.7304  2.3219
  745SOL    HW2 3070   4.429   1.681   3.075  0.5748 -2.8943  0.9854
  746SOL     OW 3071   3.095   5.225   6.769  0.1259  0.3349  0.1046
  746SOL    HW1 3072   3.056   5.304   6.731  1.1959  0.9719  0.2789
  746SOL    HW2 3073   3.189   5.244   6.772  0.3247 -0.6698  0.8029
  747SOL     OW 3074   5.212   2.104   3.445 -0.3416 -0.1540  0.2414
  747SOL    HW1 3075   5.206   2.015   3.482  1.2698 -1.1325 -1.6522
  747SOL    HW2 3076   5.267   2.152   3.507  0.1500 -0.9801  0.4649
  748SOL     OW 3077   2.564   7.666   2.142  0.0181  0.5403  0.1106
  748SOL    HW1 3078   2.504   7.665   2.217  0.8826 -0.5184  0.8138
  748SOL    HW2 3079   2.640   7.714   2.173  0.6474 -0.4599  0.1342
  749SOL     OW 3080   5.483   4.821   1.800 -0.3049 -0.1997 -0.3790
  749SOL    HW1 3081   5.404   4.874   1.803  0.0781  0.3885 -0.4026
  749SOL    HW2 3082   5.523   4.833   1.886 -0.9497 -1.6332  0.1565
  750SOL     OW 3083   0.185   7.108   3.345 -0.0902  0.3351 -0.7207
  750SOL    HW1 3084   0.241   7.143   3.415 -0.6849  1.0202 -0.5688
  750SOL    HW2 3085   0.143   7.186   3.307  0.2369 -0.0225 -1.8571
  751SOL     OW 3086   7.628   2.326   3.041 -0.6084  0.5250 -0.4208
  751SOL    HW1 3087   7.676   2.249   3.071 -2.2885 -0.3235  0.2314
  751SOL    HW2 3088   7.639   2.390   3.110  0.3031  0.6593 -0.6857
  752SOL     OW 3089   7.831   0.374   7.122 -0.5387 -0.4844 -0.5337
  752SOL    HW1 3090   7.829   0.431   7.199 -0.8007  0.2118 -1.0415
  752SOL    HW2 3091   7.923   0.374   7.095 -0.6332  0.2087 -0.8892
  753SOL     OW 3092   0.252   1.556   3.265 -0.3994 -0.1040  0.4478
  753SOL    HW1 3093   0.279   1.610   3.340  0.3055  0.5953 -0.2884
  753SOL    HW2 3094   0.331   1.548   3.211 -0.8479 -0.7528 -0.1369
  754SOL     OW 3095   3.743   5.430   3.453  0.6282  0.3322 -0.0098
  754SOL    HW1 3096   3.680   5.400   3.388  1.0932 -0.7736  0.0420
  754SOL    HW2 3097   3.689   5.469   3.522  0.1678  2.5371 -1.5069
  755SOL     OW 3098   4.346   1.601   2.364 -0.3177 -0.5381 -0.3391
  755SOL    HW1 3099   4.256   1.571   2.351 -1.3991  1.4406  1.6905
  755SOL    HW2 3100   4.356   1.672   2.301 -1.0713  0.7535  0.9249
  756SOL     OW 3101   5.892   5.371   0.714  0.5169  0.1573  0.2493
  756SOL    HW1 3102   5.890   5.297   0.775  2.0033  0.4445  0.6899
  756SOL    HW2 3103   5.828   5.348   0.647 -1.4778  0.0123  2.0934
  757SOL     OW 3104   6.376   1.318   1.651 -0.3259  0.5052 -0.1860
  757SOL    HW1 3105   6.454   1.355   1.692 -1.3426  1.6555  0.7658
  757SOL    HW2 3106   6.399   1.312   1.558  0.8287  0.9901  0.0476
  758SOL     OW 3107   0.922   1.396   1.233  0.0529  0.0299 -0.2839
  758SOL    HW1 3108   0.937   1.413   1.326 -1.5254  0.7446 -0.1381
  758SOL    HW2 3109   0.829   1.375   1.226 -0.0492  0.8046 -1.8027
  759SOL     OW 3110   4.595   3.498   0.243 -1.0619 -0.4681  0.1101
  759SOL    HW1 3111   4.667   3.538   0.196 -1.1437 -0.4020  0.0409
  759SOL    HW2 3112   4.637   3.439   0.306 -0.9603 -0.9258 -0.3722
  760SOL     OW 3113   7.448   1.198   2.401 -0.1945  0.1121 -0.3981
  760SOL    HW1 3114   7.478   1.113   2.434 -0.6261 -0.2239 -0.8550
  760SOL    HW2 3115   7.528   1.250   2.395  0.0968 -0.3069 -0.2433
  761SOL     OW 3116   5.766   0.830   6.712  0.3716  0.6402  0.5380
  761SOL    HW1 3117   5.691   0.782   6.677  0.3026 -0.3251  1.9307
  761SOL    HW2 3118   5.808   0.869   6.635 -1.9830  1.8638 -0.1995
  762SOL     OW 3119   6.858   3.157   1.544  0.6410  0.3501  0.0854
  762SOL    HW1 3120   6.902   3.234   1.507 -0.5187  0.5013 -1.0368
  762SOL    HW2 3121   6.781   3.144   1.488  0.4647 -1.2429  0.6480
  763SOL     OW 3122   6.584   5.158   2.482 -0.4488  0.0094  0.4980
  763SOL    HW1 3123   6.557   5.227   2.420 -2.0640  0.6403  1.8468
  763SOL    HW2 3124   6.604   5.083   2.427 -1.0730  0.7942 -0.8477
  764SOL     OW 3125   1.691   7.053   1.651 -0.0261  0.4277  0.2463
  764SOL    HW1 3126   1.727   7.089   1.570 -0.0712  0.3536  0.1933
  764SOL    HW2 3127   1.620   7.112   1.675  1.0877  1.4632  1.1713
  765SOL     OW 3128   1.497   7.910   7.004  0.6233  0.0297  0.7879
  765SOL    HW1 3129   1.545   7.849   6.947  3.4947 -0.5357  3.5170
  765SOL    HW2 3130   1.409   7.874   7.009  1.5140 -2.4281  0.2080
  766SOL     OW 3131   0.832   6.055   1.937 -0.4602  0.6054 -0.4443
  766SOL    HW1 3132   0.824   5.959   1.932  0.0465  0.2658  2.9338
  766SOL    HW2 3133   0.923   6.073   1.911 -0.4743  0.1513 -0.8269
  767SOL     OW 3134   5.189   7.769   7.802 -0.4319 -0.2552  0.3352
  767SOL    HW1 3135   5.205   7.675   7.791 -0.6917 -0.5025  1.8727
  767SOL    HW2 3136   5.273   7.803   7.834  0.2039  0.3794 -1.8450
  768SOL     OW 3137   7.726   5.493   2.973  0.4760 -0.1541 -0.5119
  768SOL    HW1 3138   7.742   5.569   2.915  1.0792 -0.4779 -0.7840
  768SOL    HW2 3139   7.814   5.460   2.993  0.2327 -0.5251 -0.0459
  769SOL     OW 3140   7.479   2.731   5.204 -0.0281  0.1633  0.0502
  769SOL    HW1 3141   7.470   2.688   5.289  0.3350 -1.7235 -0.8145
  769SOL    HW2 3142   7.544   2.679   5.157 -0.1608  1.2081 -1.3691
  770SOL     OW 3143   6.858   2.819   2.525 -0.4406  0.9025  0.1993
  770SOL    HW1 3144   6.922   2.889   2.510 -0.7380  1.2628  0.5826
  770SOL    HW2 3145   6.773   2.861   2.513 -0.6942 -0.3415 -3.9855
  771SOL     OW 3146   6.874   2.454   6.493 -0.3462  0.5143  0.3589
  771SOL    HW1 3147   6.807   2.512   6.528 -2.7739 -1.6043 -0.4857
  771SOL    HW2 3148   6.906   2.406   6.570 -0.3997  0.9131  0.6379
  772SOL     OW 3149   2.293   3.061   6.014 -0.2414 -0.7893  0.0386
  772SOL    HW1 3150   2.276   2.968   6.029 -0.0778 -0.5593  1.9204
  772SOL    HW2 3151   2.387   3.071   6.029  0.1907 -0.6667 -2.3757
  773SOL     OW 3152   2.923   1.163   2.170  0.2786  0.1197  0.1441
  773SOL    HW1 3153   2.956   1.158   2.260  0.1932  0.4898  0.1972
  773SOL    HW2 3154   2.988   1.115   2.118  1.4461  1.6267  0.1096
  774SOL     OW 3155   6.116   4.479   7.584  0.0589 -0.0291 -0.0835
  774SOL    HW1 3156   6.143   4.439   7.502 -0.1338  0.8512 -0.5847
  774SOL    HW2 3157   6.088   4.567   7.560  0.7853  0.5322  1.0399
  775SOL     OW 3158   4.697   4.485   4.853  0.2793  0.4493  0.0587
  775SOL    HW1 3159   4.608   4.477   4.887  0.0792  0.5751 -0.4275
  775SOL    HW2 3160   4.748   4.421   4.903 -0.0417  0.5171  0.4779
  776SOL     OW 3161   1.837   3.445   6.036  0.1080 -0.0432 -0.0417
  776SOL    HW1 3162   1.786   3.373   6.071  0.1001 -0.5207 -1.0186
  776SOL    HW2 3163   1.875   3.411   5.955 -0.3077  1.2048 -0.7869
  777SOL     OW 3164   4.827   2.640   1.449 -0.2451 -0.1580  0.3696
  777SOL    HW1 3165   4.830   2.594   1.533 -0.8895  0.0990  0.5427
  777SOL    HW2 3166   4.846   2.573   1.384 -0.9818 -0.6457  0.6368
  778SOL     OW 3167   3.084   1.554   4.778 -0.2167 -1.0975  0.2980
  778SOL    HW1 3168   3.078   1.540   4.684  2.0681  1.9560 -0.4699
  778SOL    HW2 3169   3.170   1.518   4.803  0.5223  0.7035  0.5302
  779SOL     OW 3170   6.905   0.610   0.015  0.5969 -0.4555 -0.8352
  779SOL    HW1 3171   6.992   0.599   0.053  1.0967 -0.5487 -1.9494
  779SOL    HW2 3172   6.865   0.524   0.022  0.2730 -0.2180  0.4100
  780SOL     OW 3173   3.526   1.670   7.057 -0.4509 -0.5082 -0.2749
  780SOL    HW1 3174   3.454   1.632   7.007 -0.5419  0.2176 -0.7105
  780SOL    HW2 3175   3.563   1.736   6.999  0.5975 -0.8927 -0.0724
  781SOL     OW 3176   7.593   6.891   3.506  0.2109 -0.0150 -0.2137
  781SOL    HW1 3177   7.621   6.914   3.594 -0.2235  1.2716 -0.3919
  781SOL    HW2 3178   7.668   6.910   3.450 -0.0449  0.7269 -0.3193
  782SOL     OW 3179   5.043   7.751   1.143 -0.0044  0.3824 -0.2980
  782SOL    HW1 3180   5.012   7.685   1.081  0.8912  0.4626 -0.8541
  782SOL    HW2 3181   5.066   7.702   1.221 -0.6423  0.2137 -0.2094
  783SOL     OW 3182   3.371   1.528   3.584  0.1887  0.0621 -0.3690
  783SOL    HW1 3183   3.394   1.475   3.508  1.8701 -0.1165  0.2099
  783SOL    HW2 3184   3.422   1.491   3.656  1.5879  2.5232  0.0291
  784SOL     OW 3185   6.750   0.074   6.176 -0.0230 -0.1366 -0.3893
  784SOL    HW1 3186   6.836   0.044   6.204  0.2715  0.4105 -0.6983
  784SOL    HW2 3187   6.706   0.100   6.257  0.1699 -0.2345 -0.2519
  785SOL     OW 3188   3.597   6.386   7.126  0.0680  0.0780 -0.3040
  785SOL    HW1 3189   3.605   6.481   7.130 -0.8520  0.1041  1.9595
  785SOL    HW2 3190   3.599   6.366   7.032 -0.3760  2.3687 -0.8573
  786SOL     OW 3191   0.173   0.980   7.015 -0.1975  0.1644  0.0841
  786SOL    HW1 3192   0.199   0.891   7.040 -0.2499  0.2029  0.2790
  786SOL    HW2 3193   0.097   1.000   7.070 -0.2114  0.3137  0.0121
  787SOL     OW 3194   1.983   3.083   2.854 -0.5183 -0.4489  0.0684
  787SOL    HW1 3195   2.015   3.089   2.944  0.8560 -0.9886 -0.3630
  787SOL    HW2 3196   1.980   2.989   2.836  0.0687 -0.3272 -0.7257
  788SOL     OW 3197   0.295   7.604   5.530  0.2067 -0.1032  0.4249
  788SOL    HW1 3198   0.335   7.521   5.502 -1.5633 -1.1068  0.6674
  788SOL    HW2 3199   0.294   7.599   5.625 -2.8833 -1.4379  0.4451
  789SOL     OW 3200   3.703   0.481   7.714  0.3801  0.2123 -0.0005
  789SOL    HW1 3201   3.762   0.474   7.789  0.2044 -0.0660  0.1124
  789SOL    HW2 3202   3.654   0.399   7.714  0.5486  0.1072 -0.5615
  790SOL     OW 3203   2.215   7.638   1.321 -0.9345  0.5045 -0.5519
  790SOL    HW1 3204   2.222   7.730   1.294  1.1254  0.1711 -1.3284
  790SOL    HW2 3205   2.238   7.589   1.243 -0.5897 -0.6565  0.2616
  791SOL     OW 3206   5.374   4.391   2.484 -0.0852 -0.1059  0.2379
  791SOL    HW1 3207   5.368   4.452   2.558 -0.7907  1.2233 -0.8662
  791SOL    HW2 3208   5.295   4.337   2.490 -0.3442  0.2695  0.2329
  792SOL     OW 3209   1.063   2.194   1.496  0.2377  0.2728 -0.3173
  792SOL    HW1 3210   1.033   2.266   1.440  0.8467  0.2916 -0.6309
  792SOL    HW2 3211   1.006   2.121   1.473  0.3166  0.3507 -0.7889
  793SOL     OW 3212   3.525   6.401   3.746  0.1998  0.1593 -0.5412
  793SOL    HW1 3213   3.435   6.414   3.776  0.2756 -0.2897 -0.1080
  793SOL    HW2 3214   3.540   6.307   3.754  1.9806  0.5653  3.2589
  794SOL     OW 3215   2.006   0.085   3.437  0.2264  0.3925  0.3487
  794SOL    HW1 3216   1.915   0.097   3.411  0.4573  2.5178  0.3538
  794SOL    HW2 3217   2.016   0.136   3.517  1.3501 -0.0455  0.5150
  795SOL     OW 3218   4.934   4.203   3.136  0.1525  0.2471 -0.7465
  795SOL    HW1 3219   4.894   4.240   3.057  1.7037  3.1395 -0.3204
  795SOL    HW2 3220   5.013   4.158   3.104 -0.3586 -0.4652 -1.0247
  796SOL     OW 3221   3.548   1.621   3.005  0.1519 -0.4491 -0.3325
  796SOL    HW1 3222   3.575   1.650   2.918 -0.8018 -1.5627 -1.0338
  796SOL    HW2 3223   3.612   1.554   3.029 -0.1123 -0.7867 -0.5729
  797SOL     OW 3224   5.480   0.999   2.195 -0.2509 -0.1836 -0.0061
  797SOL    HW1 3225   5.441   0.970   2.113  0.6354 -4.5637  0.8388
  797SOL    HW2 3226   5.573   0.978   2.186  0.2389  1.1748  1.3954
  798SOL     OW 3227   4.472   6.377   7.012  0.3311 -0.1776 -0.0296
  798SOL    HW1 3228   4.398   6.384   6.953  0.1393 -2.3476 -0.1037
  798SOL    HW2 3229   4.541   6.336   6.960  0.5490 -1.0244  0.9023
  799SOL     OW 3230   7.596   1.151   3.003  0.3989  0.1303  0.0492
  799SOL    HW1 3231   7.657   1.162   2.930  0.2113 -1.0281 -0.3091
  799SOL    HW2 3232   7.630   1.207   3.072  2.1173 -0.7767  0.0001
  800SOL     OW 3233   1.521   1.255   0.938 -0.0385 -0.0304  0.5332
  800SOL    HW1 3234   1.455   1.212   0.992 -0.0228 -1.9260 -0.8567
  800SOL    HW2 3235   1.571   1.183   0.898  0.9847  1.2995 -0.7247
  801SOL     OW 3236   0.412   5.638   0.981 -0.1990  0.5712  0.2458
  801SOL    HW1 3237   0.332   5.591   1.007 -1.2170  2.4376  0.7205
  801SOL    HW2 3238   0.381   5.706   0.921  1.2433  0.4916 -0.6196
  802SOL     OW 3239   5.386   7.346   4.742  0.5194  0.4372 -0.1346
  802SOL    HW1 3240   5.329   7.414   4.704  0.4924 -0.2280 -1.3143
  802SOL    HW2 3241   5.420   7.386   4.822 -1.3547  0.9829  0.4425
  803SOL     OW 3242   0.626   0.959   0.874  0.1610 -0.3091 -0.1037
  803SOL    HW1 3243   0.677   0.880   0.858  0.3014 -0.1952 -0.2133
  803SOL    HW2 3244   0.545   0.946   0.825  0.5992  0.0527 -0.9397
  804SOL     OW 3245   5.141   2.652   5.703 -0.3879 -0.3586 -0.1540
  804SOL    HW1 3246   5.198   2.713   5.750  1.5507 -1.7206 -0.6049
  804SOL    HW2 3247   5.113   2.588   5.769 -3.2227  1.4203  0.5454
  805SOL     OW 3248   6.344   7.755   6.757 -0.2211  0.1327 -0.3378
  805SOL    HW1 3249   6.334   7.823   6.823 -0.3468 -0.6186  0.4422
  805SOL    HW2 3250   6.437   7.758   6.734  0.0542 -0.2475  0.6319
  806SOL     OW 3251   2.273   6.924   5.635  0.1503  0.1976 -0.2774
  806SOL    HW1 3252   2.216   6.953   5.564 -0.2583 -0.9547 -0.4410
  806SOL    HW2 3253   2.351   6.890   5.591  0.3407  0.4219 -0.1189
  807SOL     OW 3254   5.068   5.148   7.483 -0.0550 -0.2011  0.0491
  807SOL    HW1 3255   5.142   5.101   7.520 -1.6215 -1.5177  1.7276
  807SOL    HW2 3256   5.039   5.095   7.409 -0.4074 -0.6999  0.5294
  808SOL     OW 3257   3.730   1.188   2.227  0.1909  0.3122  0.2014
  808SOL    HW1 3258   3.791   1.226   2.164  0.3099  1.0869  0.7621
  808SOL    HW2 3259   3.736   1.246   2.304 -1.5275  0.6469  0.1269
  809SOL     OW 3260   4.754   5.779   0.178  0.2540  0.0997 -0.5832
  809SOL    HW1 3261   4.822   5.733   0.130  0.6154 -0.7587  0.7123
  809SOL    HW2 3262   4.674   5.763   0.127  1.0553  1.6400 -2.4632
  810SOL     OW 3263   6.018   2.974   4.017  0.4769 -0.4862 -0.4768
  810SOL    HW1 3264   6.038   2.935   3.932  0.5113  0.2483 -0.8131
  810SOL    HW2 3265   5.926   2.999   4.011  0.1510 -1.4872  0.1294
  811SOL     OW 3266   5.457   2.163   4.043 -0.1308 -0.5598  0.0133
  811SOL    HW1 3267   5.391   2.096   4.024  1.3191 -1.8465 -0.7387
  811SOL    HW2 3268   5.540   2.120   4.026  0.8590  1.7374 -1.4827
  812SOL     OW 3269   3.799   3.412   2.261  0.6273 -0.1926 -0.2925
  812SOL    HW1 3270   3.788   3.447   2.350  0.5257  2.3738 -1.2166
  812SOL    HW2 3271   3.883   3.368   2.262  1.2394  0.9316  0.7805
  813SOL     OW 3272   7.532   4.390   2.752  0.1773 -0.3828 -0.4807
  813SOL    HW1 3273   7.476   4.463   2.779  0.8040  0.5646 -1.6675
  813SOL    HW2 3274   7.608   4.397   2.809 -0.5918 -1.2830  0.6973
  814SOL     OW 3275   2.039   0.986   2.827  0.0483  0.1433 -0.1431
  814SOL    HW1 3276   2.112   0.961   2.884 -0.4243  0.4472  0.6208
  814SOL    HW2 3277   1.990   1.051   2.878 -0.0349  0.9035 -1.1650
  815SOL     OW 3278   5.964   5.880   5.669  0.1278 -0.2501 -0.5608
  815SOL    HW1 3279   5.905   5.922   5.607  1.1844 -1.3919 -2.4702
  815SOL    HW2 3280   5.997   5.803   5.621  0.0574 -1.9181  1.8950
  816SOL     OW 3281   5.375   5.164   0.316  0.0205 -0.8672  0.0472
  816SOL    HW1 3282   5.452   5.160   0.260  0.0574  0.6994 -0.0734
  816SOL    HW2 3283   5.317   5.095   0.284  0.7428 -1.0789 -0.8372
  817SOL     OW 3284   4.054   7.755   5.746 -0.0492 -0.0788 -0.2126
  817SOL    HW1 3285   4.097   7.692   5.688 -1.4397  0.1775 -1.5882
  817SOL    HW2 3286   4.102   7.748   5.829  0.2183 -2.5257 -0.5036
  818SOL     OW 3287   0.927   5.519   6.113  0.2816 -0.7163 -0.0132
  818SOL    HW1 3288   0.835   5.526   6.087  0.5878  1.0421 -0.8041
  818SOL    HW2 3289   0.933   5.569   6.194  0.9859  1.5146 -1.3544
  819SOL     OW 3290   5.801   5.807   3.272  0.2017 -0.4330  0.2687
  819SOL    HW1 3291   5.866   5.871   3.244 -0.1987 -0.3229 -0.4289
  819SOL    HW2 3292   5.717   5.850   3.258 -0.0324 -0.6713  0.9132
  820SOL     OW 3293   5.639   1.946   4.081 -0.3442 -0.3371 -0.3925
  820SOL    HW1 3294   5.659   1.940   4.174 -0.7322 -0.4547 -0.3127
  820SOL    HW2 3295   5.627   1.855   4.053 -0.9390 -0.2692 -0.3890
  821SOL     OW 3296   5.529   2.042   4.449  0.8307 -0.0481 -0.1923
  821SOL    HW1 3297   5.623   2.061   4.454  1.0801 -0.4840 -2.2203
  821SOL    HW2 3298   5.523   1.965   4.392 -0.7096 -0.6668  0.7434
  822SOL     OW 3299   0.257   6.235   4.081 -0.3540  0.3996  0.1027
  822SOL    HW1 3300   0.297   6.322   4.080  1.0887 -0.2354 -1.0030
  822SOL    HW2 3301   0.168   6.250   4.051  0.6201  1.2145 -2.7157
  823SOL     OW 3302   4.674   3.706   5.137 -0.1825  0.0866  0.1500
  823SOL    HW1 3303   4.755   3.666   5.169 -0.4225 -1.6068 -1.2331
  823SOL    HW2 3304   4.605   3.646   5.166 -0.5502 -0.6202 -2.0342
  824SOL     OW 3305   5.340   7.798   1.905 -0.3806 -0.1317 -0.0857
  824SOL    HW1 3306   5.430   7.807   1.934 -0.2955 -1.5112  0.1289
  824SOL    HW2 3307   5.313   7.888   1.883  0.5680  0.4932  1.1838
  825SOL     OW 3308   7.852   6.716   7.623 -0.5095 -0.3415 -0.4523
  825SOL    HW1 3309   7.889   6.795   7.582 -0.2097 -0.7141 -0.9100
  825SOL    HW2 3310   7.773   6.747   7.667 -0.7665  0.1000 -1.2023
  826SOL     OW 3311   5.982   2.305   6.880 -0.5890  0.3559  0.2517
  826SOL    HW1 3312   6.025   2.339   6.802  0.8154  2.2107  1.7086
  826SOL    HW2 3313   5.970   2.212   6.863  0.1430  0.6053 -1.9362
  827SOL     OW 3314   4.141   3.104   0.731 -0.2664  0.5023  0.5291
  827SOL    HW1 3315   4.151   3.071   0.820 -1.0151 -0.7384  0.1732
  827SOL    HW2 3316   4.056   3.071   0.703  0.1973  0.4214 -0.8379
  828SOL     OW 3317   3.473   3.598   7.423  0.2577 -0.2678 -0.2218
  828SOL    HW1 3318   3.510   3.510   7.432  1.0110  0.2351  2.3154
  828SOL    HW2 3319   3.402   3.601   7.487 -1.1602  0.3453 -1.7391
  829SOL     OW 3320   3.157   6.424   4.242  0.4360 -0.1634  0.2835
  829SOL    HW1 3321   3.098   6.449   4.313 -0.5548 -0.3919 -0.4487
  829SOL    HW2 3322   3.186   6.335   4.265  0.9072  0.1353  0.8926
  830SOL     OW 3323   1.492   4.260   4.453  0.2696  0.1433  0.2113
  830SOL    HW1 3324   1.535   4.248   4.538  1.4867  0.1797 -0.3775
  830SOL    HW2 3325   1.563   4.256   4.389 -0.6723 -0.2852 -0.8472
  831SOL     OW 3326   1.305   6.403   4.115 -0.3026 -0.1275  0.4916
  831SOL    HW1 3327   1.260   6.479   4.079  1.6039  0.3350 -1.0512
  831SOL    HW2 3328   1.338   6.433   4.200 -0.8684  0.2731  0.5742
  832SOL     OW 3329   5.872   1.784   6.261  0.0430 -0.2117  0.1002
  832SOL    HW1 3330   5.899   1.772   6.352 -0.4047  0.7624  0.3733
  832SOL    HW2 3331   5.787   1.739   6.256 -0.0315 -0.0868  0.2222
  833SOL     OW 3332   0.128   0.044   2.236 -0.5910  0.6548 -0.0786
  833SOL    HW1 3333   0.139   0.085   2.322  0.7049  1.2603 -0.5145
  833SOL    HW2 3334   0.153  -0.048   2.250 -3.1019  0.0257  0.8014
  834SOL     OW 3335   0.367   4.021   3.886 -0.4869  0.1660  0.1177
  834SOL    HW1 3336   0.310   4.053   3.815  0.8539  3.7228  0.4264
  834SOL    HW2 3337   0.455   4.033   3.852  0.1686  1.1043  2.0260
  835SOL     OW 3338   6.398   6.147   1.730 -0.1425  0.1969 -0.5900
  835SOL    HW1 3339   6.482   6.191   1.715 -0.1996  0.2393 -0.7955
  835SOL    HW2 3340   6.354   6.151   1.645  0.4476 -1.5386 -1.0056
  836SOL     OW 3341   2.042   6.459   7.841 -0.2852 -0.1893  0.2439
  836SOL    HW1 3342   2.012   6.549   7.856  1.0742  0.2942  0.2130
  836SOL    HW2 3343   2.043   6.450   7.746  0.9695  0.2898  0.1878
  837SOL     OW 3344   7.143   7.272   5.965  0.4356 -0.4422 -0.4767
  837SOL    HW1 3345   7.118   7.234   5.881  0.1067  0.9674 -1.0489
  837SOL    HW2 3346   7.073   7.244   6.025  0.7731 -1.6131 -0.6069
  838SOL     OW 3347   5.470   4.995   5.647  0.2725 -0.4655  0.2572
  838SOL    HW1 3348   5.532   5.057   5.608  3.1929 -2.4677  1.3431
  838SOL    HW2 3349   5.471   4.919   5.588 -1.5253 -0.4025  0.0942
  839SOL     OW 3350   4.263   4.708   4.163  0.3177 -0.0517 -0.0348
  839SOL    HW1 3351   4.198   4.638   4.167 -1.1570  1.2904  1.1156
  839SOL    HW2 3352   4.331   4.681   4.225  0.5043 -1.1123 -0.6734
  840SOL     OW 3353   0.285   1.382   2.678  0.0586 -0.1475 -0.0794
  840SOL    HW1 3354   0.318   1.425   2.599  0.9162 -2.1569 -0.9143
  840SOL    HW2 3355   0.240   1.304   2.645 -0.6883 -0.3643  1.3760
  841SOL     OW 3356   2.547   6.040   5.946 -0.4382 -0.6118  0.2508
  841SOL    HW1 3357   2.515   6.130   5.938  0.1576 -0.4322 -0.2242
  841SOL    HW2 3358   2.629   6.048   5.995 -0.3685 -0.8828  0.1792
  842SOL     OW 3359   6.227   6.463   1.771 -0.1314 -0.3159  0.1512
  842SOL    HW1 3360   6.210   6.369   1.775  1.8195 -0.7047  0.7199
  842SOL    HW2 3361   6.205   6.487   1.681  0.9861 -1.7123 -0.5511
  843SOL     OW 3362   3.235   1.702   3.293  0.1401  0.2155 -1.0574
  843SOL    HW1 3363   3.317   1.749   3.308  1.2094 -1.8914  0.1901
  843SOL    HW2 3364   3.227   1.696   3.198  0.9886  1.1838 -1.2007
  844SOL     OW 3365   5.650   5.714   7.903 -0.1819 -0.1413 -0.2860
  844SOL    HW1 3366   5.697   5.797   7.897  0.1144 -0.0885  1.8510
  844SOL    HW2 3367   5.717   5.647   7.897  0.2241 -0.0756  2.2107
  845SOL     OW 3368   7.714   7.851   1.622  0.8743  0.0700 -0.3746
  845SOL    HW1 3369   7.702   7.864   1.528  0.0432 -1.8747 -0.5714
  845SOL    HW2 3370   7.722   7.940   1.657 -0.0272  0.8925 -2.1118
  846SOL     OW 3371   5.978   1.825   6.028  0.1675 -0.6211 -0.1170
  846SOL    HW1 3372   5.964   1.810   6.121  1.2656 -1.1903 -0.0389
  846SOL    HW2 3373   6.027   1.907   6.023 -2.3667  1.0205 -0.3687
  847SOL     OW 3374   0.053   2.032   5.258  0.2318 -0.2045 -0.1279
  847SOL    HW1 3375   0.148   2.031   5.268  0.2855  2.3312  0.2134
  847SOL    HW2 3376   0.020   1.978   5.331  1.3767 -1.2566 -0.3588
  848SOL     OW 3377   4.025   2.717   7.093  0.2401 -0.0380 -0.8505
  848SOL    HW1 3378   4.068   2.803   7.089 -2.1506  1.4887  1.7790
  848SOL    HW2 3379   4.050   2.682   7.179 -1.8466 -0.1285 -0.2381
  849SOL     OW 3380   3.336   1.502   0.351 -0.1761 -0.8491  0.1517
  849SOL    HW1 3381   3.254   1.452   0.349 -0.5827 -0.2321  0.9712
  849SOL    HW2 3382   3.344   1.537   0.263 -1.2263 -0.2463  0.2816
  850SOL     OW 3383   1.438   5.996   3.493 -0.4114 -0.4924 -0.3959
  850SOL    HW1 3384   1.370   5.981   3.559 -1.2753  0.3464 -1.0713
  850SOL    HW2 3385   1.391   6.029   3.416  0.9623  2.9176  0.0210
  851SOL     OW 3386   7.157   5.391   7.153  0.2632 -0.1292  0.2753
  851SOL    HW1 3387   7.077   5.444   7.155  0.0868 -0.4181  1.6259
  851SOL    HW2 3388   7.206   5.425   7.078 -1.1433  0.0056 -0.6193
  852SOL     OW 3389   0.649   7.445   6.431  0.0698  0.1408  0.0605
  852SOL    HW1 3390   0.586   7.383   6.468  0.2232 -0.0366  0.0203
  852SOL    HW2 3391   0.733   7.422   6.471 -0.1809  1.5072  1.5127
  853SOL     OW 3392   7.840   6.944   1.661 -0.2182 -0.4372  0.3749
  853SOL    HW1 3393   7.778   6.871   1.659 -0.8771  0.1303 -0.0481
  853SOL    HW2 3394   7.873   6.950   1.571  0.4081 -0.6820  0.5757
  854SOL     OW 3395   7.381   3.173   5.898 -0.6769  0.1149 -0.2908
  854SOL    HW1 3396   7.316   3.104   5.910 -0.5419 -0.1038 -0.7941
  854SOL    HW2 3397   7.464   3.127   5.888 -0.5594  0.3571 -0.4503
  855SOL     OW 3398   1.992   2.923   7.072  0.2404  0.3907 -0.5070
  855SOL    HW1 3399   2.085   2.926   7.051  0.2057  0.4343 -0.6568
  855SOL    HW2 3400   1.980   2.837   7.112  0.4051  0.5150 -0.1931
  856SOL     OW 3401   0.386   5.952   1.669 -0.2061 -0.7281  0.3714
  856SOL    HW1 3402   0.475   5.923   1.650  0.2908  1.2088 -0.4678
  856SOL    HW2 3403   0.334   5.916   1.597 -0.2832 -2.4293  1.2133
  857SOL     OW 3404   4.529   1.729   0.315  0.1744  0.4821 -1.0521
  857SOL    HW1 3405   4.442   1.735   0.277 -0.4009  1.5963  0.3376
  857SOL    HW2 3406   4.570   1.813   0.292  0.0098  0.9419  0.2672
  858SOL     OW 3407   1.840   7.113   2.059  0.5555 -0.5549 -0.4868
  858SOL    HW1 3408   1.931   7.141   2.056  0.3414  0.0750 -2.1769
  858SOL    HW2 3409   1.791   7.185   2.019 -0.7823 -0.5951  0.9688
  859SOL     OW 3410   1.055   7.172   5.375 -0.2910  0.1104 -0.8508
  859SOL    HW1 3411   1.076   7.079   5.381  1.1397  0.3607 -1.4082
  859SOL    HW2 3412   1.126   7.216   5.422 -0.3381  0.9543 -1.5264
  860SOL     OW 3413   7.026   5.392   7.710  0.0377 -0.6682 -0.2245
  860SOL    HW1 3414   6.939   5.394   7.669  0.2075 -1.7040 -0.6792
  860SOL    HW2 3415   7.043   5.299   7.724  0.5508 -0.4014  1.0100
  861SOL     OW 3416   2.951   1.958   1.496 -0.4687 -0.0263  0.0260
  861SOL    HW1 3417   2.906   2.021   1.439 -0.2065  1.2386  1.1583
  861SOL    HW2 3418   2.997   2.013   1.560  0.5618 -1.3658  0.4697
  862SOL     OW 3419   4.743   6.938   3.530 -0.4969  0.2480 -0.3407
  862SOL    HW1 3420   4.805   7.003   3.496 -0.5176  0.8772  0.7750
  862SOL    HW2 3421   4.752   6.863   3.471  0.4675  0.7803 -0.8920
  863SOL     OW 3422   1.415   4.044   1.946  0.7869 -0.3867 -0.1379
  863SOL    HW1 3423   1.387   4.131   1.975  1.3301 -0.0480 -0.6215
  863SOL    HW2 3424   1.505   4.035   1.978  0.6032 -0.9360  0.2511
  864SOL     OW 3425   7.617   1.813   0.246  0.1065  0.4905  0.1723
  864SOL    HW1 3426   7.682   1.843   0.310  0.5615  0.6806 -0.3678
  864SOL    HW2 3427   7.632   1.868   0.169 -0.4344  0.2649 -0.0976
  865SOL     OW 3428   7.373   5.133   3.400  0.2982 -0.7200  0.7123
  865SOL    HW1 3429   7.416   5.116   3.317  1.4537 -2.7192  1.6650
  865SOL    HW2 3430   7.352   5.227   3.397 -0.5522 -0.9245 -2.1714
  866SOL     OW 3431   7.197   7.436   7.105 -0.3334  0.4490  0.5436
  866SOL    HW1 3432   7.285   7.398   7.099 -0.6980 -0.2699 -0.6842
  866SOL    HW2 3433   7.212   7.531   7.105  0.4109  0.3586 -0.7404
  867SOL     OW 3434   6.465   6.440   4.282  0.2677  0.0114 -0.2995
  867SOL    HW1 3435   6.374   6.471   4.286 -0.0525 -0.9938  2.1047
  867SOL    HW2 3436   6.492   6.457   4.192 -2.1203  0.8343 -0.9474
  868SOL     OW 3437   0.825   4.756   3.773  0.4386  0.0833  0.0145
  868SOL    HW1 3438   0.892   4.766   3.841  0.9841  0.8110 -0.6130
  868SOL    HW2 3439   0.758   4.700   3.813  1.7027 -1.1639  0.4459
  869SOL     OW 3440   1.559   0.533   3.727 -0.8010 -0.0175  0.2144
  869SOL    HW1 3441   1.496   0.497   3.789 -0.0561 -0.3003  0.8225
  869SOL    HW2 3442   1.522   0.513   3.641 -1.5352 -0.1814  0.5610
  870SOL     OW 3443   1.095   0.057   5.864  0.2142  0.5509 -0.0048
  870SOL    HW1 3444   1.167   0.110   5.899  1.9809 -1.1254 -0.9505
  870SOL    HW2 3445   1.083  -0.013   5.928  1.1353 -0.5714 -1.0217
  871SOL     OW 3446   4.036   1.247   1.099 -0.0376  0.2251 -0.1099
  871SOL    HW1 3447   3.959   1.287   1.140  0.7518  0.9439  0.7295
  871SOL    HW2 3448   4.091   1.321   1.074  0.8613 -0.2858  0.2751
  872SOL     OW 3449   1.225   6.733   2.090 -0.2411  1.0287 -0.0327
  872SOL    HW1 3450   1.157   6.749   2.156  0.9588  0.0230  1.5328
  872SOL    HW2 3451   1.240   6.639   2.094  0.3400  1.0543 -1.2940
  873SOL     OW 3452   3.736   1.014   0.220 -0.1765  0.2316 -0.0002
  873SOL    HW1 3453   3.663   0.973   0.267  0.9331 -1.1647  0.5954
  873SOL    HW2 3454   3.806   1.021   0.286  1.0786 -0.8467 -1.1567
  874SOL     OW 3455   3.440   7.337   7.153 -0.1976  0.1675 -0.1551
  874SOL    HW1 3456   3.478   7.377   7.231  0.1468  0.2537 -0.3669
  874SOL    HW2 3457   3.507   7.276   7.122 -0.8041 -0.7740  0.3086
  875SOL     OW 3458   0.041   4.600   2.765  0.1569 -0.0804  0.2815
  875SOL    HW1 3459   0.111   4.577   2.826 -0.4514 -2.2335  0.2294
  875SOL    HW2 3460  -0.037   4.611   2.819  0.1371  0.5533  0.1405
  876SOL     OW 3461   6.619   0.841   7.631  0.2520  0.0761 -0.2351
  876SOL    HW1 3462   6.703   0.803   7.657 -1.0854 -2.0469  1.3098
  876SOL    HW2 3463   6.584   0.879   7.712 -0.1824  1.2042 -0.9219
  877SOL     OW 3464   4.130   6.831   1.894 -0.3914 -0.5523  0.0631
  877SOL    HW1 3465   4.206   6.841   1.952  0.3930 -1.6748 -0.7299
  877SOL    HW2 3466   4.106   6.921   1.871  1.2138 -0.1759 -0.2788
  878SOL     OW 3467   1.473   6.932   7.535  0.1528 -0.4425 -0.2692
  878SOL    HW1 3468   1.451   6.981   7.615  0.8629 -0.3525 -0.1243
  878SOL    HW2 3469   1.403   6.867   7.527 -0.5600  0.3014 -0.2165
  879SOL     OW 3470   3.153   3.302   4.762 -0.1382  0.2672 -0.1535
  879SOL    HW1 3471   3.113   3.224   4.801 -1.0591  1.2532  0.9438
  879SOL    HW2 3472   3.208   3.268   4.692 -2.2894 -1.2357 -1.2334
  880SOL     OW 3473   3.965   4.741   1.758  0.0939  0.1250  0.0793
  880SOL    HW1 3474   3.960   4.829   1.720  1.7523  0.0702 -0.3019
  880SOL    HW2 3475   4.055   4.732   1.787 -0.5381 -0.7163  1.9705
  881SOL     OW 3476   2.293   5.020   3.308 -1.0618  0.2185  0.0127
  881SOL    HW1 3477   2.341   5.082   3.363 -0.9046 -1.0316  1.3298
  881SOL    HW2 3478   2.278   5.068   3.226  0.1943  1.5245  0.4998
  882SOL     OW 3479   2.431   2.978   6.689  0.5829  0.3600  0.2486
  882SOL    HW1 3480   2.419   3.073   6.696 -0.8582  0.2037  0.1499
  882SOL    HW2 3481   2.435   2.948   6.779 -1.0596  0.2970  0.3306
  883SOL     OW 3482   1.175   1.540   7.811  0.8128  0.0271  0.5325
  883SOL    HW1 3483   1.226   1.477   7.759 -2.2252 -1.3765 -0.9826
  883SOL    HW2 3484   1.122   1.485   7.869  0.5713  1.4036  1.6636
  884SOL     OW 3485   3.599   5.567   2.011 -0.5140 -0.5445 -0.2475
  884SOL    HW1 3486   3.523   5.624   2.023 -1.2165 -1.3704 -0.5813
  884SOL    HW2 3487   3.562   5.487   1.973  0.7376 -0.3796 -1.9379
  885SOL     OW 3488   4.045   7.421   6.471 -0.3134 -0.5509  0.0320
  885SOL    HW1 3489   4.132   7.428   6.509  0.1237 -1.8810 -0.6265
  885SOL    HW2 3490   4.032   7.327   6.459  0.1627 -0.2670 -4.2567
  886SOL     OW 3491   4.957   6.896   4.648  0.3063 -0.8162 -0.3856
  886SOL    HW1 3492   4.987   6.808   4.671 -2.5826 -1.3765  1.8591
  886SOL    HW2 3493   4.868   6.883   4.616  0.1490  1.2289 -0.9183
  887SOL     OW 3494   3.356   2.094   7.608 -0.1213 -0.6480  0.6310
  887SOL    HW1 3495   3.322   2.108   7.696 -2.2749  0.1936 -0.2559
  887SOL    HW2 3496   3.302   2.022   7.573  0.5183 -0.7992 -0.0799
  888SOL     OW 3497   7.400   3.839   5.039  0.2267 -0.2396 -0.2344
  888SOL    HW1 3498   7.362   3.771   4.984 -1.4201 -0.2440  0.8286
  888SOL    HW2 3499   7.329   3.903   5.051  2.2695  2.8585 -2.8906
  889SOL     OW 3500   7.915   3.236   0.488  0.0490 -0.1519 -0.8376
  889SOL    HW1 3501   7.893   3.328   0.473  0.1437 -0.2852 -1.8766
  889SOL    HW2 3502   7.831   3.191   0.492  0.0314 -0.2662 -2.1050
  890SOL     OW 3503   6.291   2.847   5.206  0.0737 -0.1547 -0.1533
  890SOL    HW1 3504   6.249   2.892   5.280 -0.1089  0.5103 -0.6499
  890SOL    HW2 3505   6.276   2.754   5.223 -2.3194  0.0588 -0.7069
  891SOL     OW 3506   5.173   5.044   0.174 -0.1834 -0.0638 -0.2920
  891SOL    HW1 3507   5.141   5.115   0.118 -0.0063  0.9788  0.8749
  891SOL    HW2 3508   5.226   4.989   0.116 -1.2825  0.0963 -1.4786
  892SOL     OW 3509   4.349   6.980   2.146  0.4112  0.2783 -0.3552
  892SOL    HW1 3510   4.287   7.001   2.076  0.1475 -0.1853 -0.2604
  892SOL    HW2 3511   4.363   6.886   2.138  0.6463  0.2829  0.0010
  893SOL     OW 3512   7.367   3.648   6.796  0.3258  0.5443 -0.2039
  893SOL    HW1 3513   7.454   3.675   6.765  0.4482 -0.2126 -0.5309
  893SOL    HW2 3514   7.355   3.560   6.761 -0.1319  0.2181  0.7423
  894SOL     OW 3515   6.117   6.201   1.394 -0.0246 -0.5370  0.0602
  894SOL    HW1 3516   6.125   6.136   1.324  0.1243  0.1926 -0.6189
  894SOL    HW2 3517   6.197   6.191   1.445  1.2746  0.8269 -1.5669
  895SOL     OW 3518   2.265   2.121   6.401  0.0469 -0.3640 -0.1357
  895SOL    HW1 3519   2.307   2.148   6.320 -1.5634 -1.7302 -1.5055
  895SOL    HW2 3520   2.334   2.123   6.467  1.2224  1.5179 -1.3541
  896SOL     OW 3521   0.086   7.704   4.360  0.4194 -0.8942 -0.0648
  896SOL    HW1 3522   0.011   7.754   4.327  1.4702  0.0671 -1.0484
  896SOL    HW2 3523   0.131   7.764   4.419  0.3775 -1.5064  0.6068
  897SOL     OW 3524   6.795   4.818   4.544  0.1948  0.6600 -0.0872
  897SOL    HW1 3525   6.744   4.840   4.622 -0.4747  0.4465 -0.4596
  897SOL    HW2 3526   6.794   4.898   4.492  0.0190  0.5769 -0.2128
  898SOL     OW 3527   5.483   2.896   5.044 -0.5811  1.0076  0.0141
  898SOL    HW1 3528   5.489   2.962   5.113  0.6083  0.6995  0.2382
  898SOL    HW2 3529   5.526   2.819   5.081  0.5222  0.9878 -1.2131
  899SOL     OW 3530   4.543   0.393   3.576 -0.7143  0.3556 -0.2887
  899SOL    HW1 3531   4.533   0.324   3.511 -0.0898  0.4929 -0.5398
  899SOL    HW2 3532   4.454   0.423   3.593 -1.1701 -1.4592  0.8839
  900SOL     OW 3533   4.959   7.376   2.733  0.9374  0.4432 -0.8042
  900SOL    HW1 3534   4.973   7.447   2.796 -1.4178  1.0804 -0.9334
  900SOL    HW2 3535   4.993   7.298   2.778  1.6384  1.2909  0.1937
  901SOL     OW 3536   5.623   7.373   1.917 -0.4947  0.1957  0.0541
  901SOL    HW1 3537   5.658   7.318   1.987  0.1928  0.4257 -0.1078
  901SOL    HW2 3538   5.619   7.314   1.841  3.3315  1.0825 -1.0530
  902SOL     OW 3539   7.010   0.772   4.123  0.4406  0.2279 -0.1140
  902SOL    HW1 3540   7.012   0.687   4.080 -0.2205 -0.2931  0.8537
  902SOL    HW2 3541   7.098   0.784   4.159 -0.0751 -1.1329  1.7612
  903SOL     OW 3542   6.840   6.452   0.131  0.0856  0.5238 -0.6713
  903SOL    HW1 3543   6.836   6.518   0.199  1.3706  0.0570 -0.1041
  903SOL    HW2 3544   6.920   6.473   0.082  0.0192 -0.0643 -1.0465
  904SOL     OW 3545   4.011   5.281   7.226  0.0568 -0.0377 -0.1117
  904SOL    HW1 3546   4.055   5.241   7.301 -0.7091 -0.7553 -0.0358
  904SOL    HW2 3547   3.957   5.350   7.264 -2.2134 -1.9594  0.3233
  905SOL     OW 3548   4.906   7.181   7.761 -0.8614  0.3474  0.3130
  905SOL    HW1 3549   4.811   7.188   7.776 -0.7142 -0.1173  1.6640
  905SOL    HW2 3550   4.933   7.268   7.733 -1.9600  0.0391 -2.0056
  906SOL     OW 3551   3.980   6.097   0.950 -0.4186 -0.4145 -0.1247
  906SOL    HW1 3552   4.043   6.042   0.997  1.5185  3.1957  1.9411
  906SOL    HW2 3553   4.019   6.110   0.864  0.8282  0.3420  0.5278
  907SOL     OW 3554   7.143   6.781   6.166 -0.0263 -0.3490 -0.3665
  907SOL    HW1 3555   7.051   6.768   6.144 -0.1729  0.6498 -0.4228
  907SOL    HW2 3556   7.149   6.874   6.189  0.5468 -0.8722  1.7544
  908SOL     OW 3557   2.910   0.357   3.306 -0.6062  0.0380 -0.0467
  908SOL    HW1 3558   2.883   0.322   3.221 -0.9985  1.0300 -0.3515
  908SOL    HW2 3559   2.987   0.411   3.286  0.3442 -1.0903  0.4985
  909SOL     OW 3560   0.562   7.230   1.643 -0.8585  0.4529  0.1889
  909SOL    HW1 3561   0.634   7.286   1.671  1.3017 -2.0382  0.0590
  909SOL    HW2 3562   0.547   7.171   1.717  0.7350 -2.2376 -1.4478
  910SOL     OW 3563   3.513   6.450   6.066  0.1555  0.5298 -0.2278
  910SOL    HW1 3564   3.558   6.441   5.981 -2.2271 -0.7844 -1.4583
  910SOL    HW2 3565   3.425   6.417   6.049 -1.0363  2.1758  2.2706
  911SOL     OW 3566   4.506   3.517   4.922 -0.5624 -0.1347 -0.1388
  911SOL    HW1 3567   4.574   3.490   4.983 -0.1474  0.8281 -0.1569
  911SOL    HW2 3568   4.442   3.564   4.977 -0.7077 -0.1655 -0.2809
  912SOL     OW 3569   0.049   4.490   6.988  0.2893 -0.0314 -0.2215
  912SOL    HW1 3570  -0.009   4.515   7.060  0.4781  1.0804 -0.4453
  912SOL    HW2 3571  -0.008   4.491   6.911  0.6905  1.5541 -0.5223
  913SOL     OW 3572   5.356   0.413   0.898  0.0567  0.5406  0.1836
  913SOL    HW1 3573   5.367   0.327   0.857 -3.9473  0.0464 -0.3085
  913SOL    HW2 3574   5.441   0.432   0.938  1.5041 -3.0094 -0.8049
  914SOL     OW 3575   6.832   6.704   7.869 -0.2970 -0.1962  0.2647
  914SOL    HW1 3576   6.774   6.766   7.826  0.4097 -1.3086 -2.4860
  914SOL    HW2 3577   6.850   6.638   7.802  1.6644 -1.5411  2.0087
  915SOL     OW 3578   0.061   5.642   0.937  0.0105  0.0205 -0.1734
  915SOL    HW1 3579   0.012   5.585   0.997  1.1249 -0.0002  0.7451
  915SOL    HW2 3580   0.125   5.686   0.993 -0.5372  1.8689 -0.9222
  916SOL     OW 3581   1.743   1.327   4.881  0.5704 -0.5068  0.3710
  916SOL    HW1 3582   1.780   1.375   4.955  0.6963 -1.4006  0.9011
  916SOL    HW2 3583   1.677   1.386   4.844 -0.5977 -0.6135  2.1453
  917SOL     OW 3584   7.632   3.179   6.251  0.5195 -0.1070  0.2582
  917SOL    HW1 3585   7.696   3.113   6.225  0.3478 -1.7186  3.3324
  917SOL    HW2 3586   7.549   3.131   6.256 -0.7463  1.5985 -2.2111
  918SOL     OW 3587   4.207   6.585   2.293 -0.2196 -0.0514  0.1966
  918SOL    HW1 3588   4.178   6.595   2.383 -0.5261  1.9526 -0.0842
  918SOL    HW2 3589   4.127   6.569   2.243 -0.0255 -1.4138  0.2619
  919SOL     OW 3590   1.128   6.286   6.283  0.6075 -0.3967  0.2946
  919SOL    HW1 3591   1.054   6.229   6.301  0.9927 -1.1176 -0.3369
  919SOL    HW2 3592   1.155   6.319   6.369  0.5752 -1.4204  0.7083
  920SOL     OW 3593   4.816   3.277   5.942 -0.0495  0.4943  0.5652
  920SOL    HW1 3594   4.809   3.218   6.017 -0.5389 -1.1243 -0.6855
  920SOL    HW2 3595   4.746   3.341   5.955 -0.6410 -0.2496  1.1008
  921SOL     OW 3596   1.772   4.771   3.248 -0.1470  0.2321  0.1354
  921SOL    HW1 3597   1.844   4.742   3.304 -0.7211 -0.0289  0.7522
  921SOL    HW2 3598   1.767   4.705   3.178 -0.5941 -0.4585  0.7993
  922SOL     OW 3599   5.695   0.802   1.337 -0.3173 -0.1801  0.1576
  922SOL    HW1 3600   5.659   0.764   1.257 -1.6986 -0.9498  1.0976
  922SOL    HW2 3601   5.770   0.746   1.359  0.3924  0.3540 -0.8629
  923SOL     OW 3602   0.742   2.011   7.013  0.5983 -0.2824 -0.0033
  923SOL    HW1 3603   0.801   2.020   6.939 -0.9792 -1.5404 -1.4795
  923SOL    HW2 3604   0.654   2.018   6.976 -0.2312 -0.0084  1.8829
  924SOL     OW 3605   5.878   3.036   3.452 -0.3347  0.0922  0.3510
  924SOL    HW1 3606   5.842   2.951   3.426  0.3431 -0.2050  0.3811
  924SOL    HW2 3607   5.825   3.063   3.527  0.2849 -0.9085  1.1595
  925SOL     OW 3608   5.199   4.433   3.402 -0.2349 -0.0275  0.8566
  925SOL    HW1 3609   5.126   4.474   3.450 -2.1202 -2.4805  0.2508
  925SOL    HW2 3610   5.194   4.472   3.315 -0.6784 -0.0056  0.8859
  926SOL     OW 3611   7.945   2.837   5.421 -0.2250  0.5107  0.5145
  926SOL    HW1 3612   7.907   2.877   5.343 -0.6339  1.5220  1.2286
  926SOL    HW2 3613   7.894   2.757   5.434  1.3264 -0.9706 -1.5833
  927SOL     OW 3614   6.485   1.975   4.281  0.1313 -0.1806  0.5862
  927SOL    HW1 3615   6.557   2.024   4.321 -0.2432  1.0291 -0.1780
  927SOL    HW2 3616   6.408   2.031   4.291  0.4584  1.5167 -4.0233
  928SOL     OW 3617   1.984   4.700   2.910 -0.1480  0.0221 -0.0710
  928SOL    HW1 3618   2.031   4.630   2.864 -0.0505 -0.8658  1.3225
  928SOL    HW2 3619   2.047   4.732   2.974 -0.7654  0.2395  0.4310
  929SOL     OW 3620   6.503   5.017   1.717  0.6154 -0.4493  0.0689
  929SOL    HW1 3621   6.568   4.974   1.662  0.6434 -0.4213  0.0805
  929SOL    HW2 3622   6.508   5.110   1.692  0.0672 -0.5529 -0.4555
  930SOL     OW 3623   3.224   2.575   4.760 -0.2090  0.3918  0.2496
  930SOL    HW1 3624   3.263   2.564   4.673  0.6763 -0.5412  0.7444
  930SOL    HW2 3625   3.290   2.622   4.810  0.0175 -0.6424  0.9234
  931SOL     OW 3626   3.953   5.664   3.146 -0.0351 -0.1247  0.1622
  931SOL    HW1 3627   3.935   5.575   3.176  2.7182  0.0742  2.8717
  931SOL    HW2 3628   3.881   5.716   3.181 -0.4289 -0.9238  0.5625
  932SOL     OW 3629   2.937   0.439   0.996 -0.1136 -0.2355  0.1699
  932SOL    HW1 3630   2.885   0.518   0.981 -0.7065 -0.4574  1.0278
  932SOL    HW2 3631   2.949   0.402   0.908 -0.5940  0.3172 -0.1376
  933SOL     OW 3632   5.882   6.036   0.707  0.2086 -0.3214 -0.2272
  933SOL    HW1 3633   5.901   5.990   0.789  0.6718 -0.1720 -0.2446
  933SOL    HW2 3634   5.819   6.104   0.731  1.0657  0.3511  0.2133
  934SOL     OW 3635   0.385   5.273   1.802  0.0781  0.8180 -0.6926
  934SOL    HW1 3636   0.328   5.202   1.774 -0.1282  0.6896  0.0244
  934SOL    HW2 3637   0.455   5.276   1.737  1.1054 -1.2304  0.2346
  935SOL     OW 3638   2.921   4.011   3.246  0.6450  0.1576 -0.3988
  935SOL    HW1 3639   2.987   4.073   3.215 -0.1193  0.5234 -1.3436
  935SOL    HW2 3640   2.898   3.959   3.169 -0.1631  0.0437 -0.0945
  936SOL     OW 3641   6.826   7.478   6.119  0.4885 -1.6663 -0.1455
  936SOL    HW1 3642   6.871   7.394   6.124  1.0000 -1.4243 -0.5754
  936SOL    HW2 3643   6.748   7.461   6.066  1.3525 -1.5546 -1.4915
  937SOL     OW 3644   3.587   6.869   0.804 -0.0703 -0.2630 -0.4746
  937SOL    HW1 3645   3.531   6.931   0.758  0.0517  0.9729  0.9282
  937SOL    HW2 3646   3.660   6.923   0.836  0.6457 -1.3681 -0.1785
  938SOL     OW 3647   2.955   1.096   3.149 -0.2426 -0.3465  0.2503
  938SOL    HW1 3648   3.031   1.068   3.098  0.2311  2.2559 -0.6476
  938SOL    HW2 3649   2.984   1.092   3.240  0.7563 -0.0145 -0.0413
  939SOL     OW 3650   7.406   1.071   1.167 -0.0723 -0.0208  0.2212
  939SOL    HW1 3651   7.352   1.024   1.231 -0.8463  1.3247  0.5950
  939SOL    HW2 3652   7.361   1.057   1.084  0.4561 -1.0503  0.0941
  940SOL     OW 3653   2.115   7.081   5.475 -0.0691 -0.1801 -0.3960
  940SOL    HW1 3654   2.097   7.091   5.382 -0.7835  0.0382 -0.2376
  940SOL    HW2 3655   2.047   7.132   5.518 -0.6867 -1.5411  0.2969
  941SOL     OW 3656   1.922   0.444   6.084  0.2577  0.4470 -0.3538
  941SOL    HW1 3657   1.997   0.475   6.034  1.1937 -0.3490  0.5402
  941SOL    HW2 3658   1.942   0.466   6.174 -1.3930  1.8233 -0.2491
  942SOL     OW 3659   7.703   3.998   1.956 -0.2232  0.3125  0.4236
  942SOL    HW1 3660   7.625   4.049   1.934  0.0325  0.0427 -1.2416
  942SOL    HW2 3661   7.772   4.033   1.899  0.2087 -1.1838 -0.0302
  943SOL     OW 3662   4.604   1.152   7.452 -0.2542 -0.1534  0.0399
  943SOL    HW1 3663   4.555   1.230   7.426 -0.1157  0.0673  0.4354
  943SOL    HW2 3664   4.541   1.101   7.503  0.2435  0.6712  1.5331
  944SOL     OW 3665   2.183   2.815   5.081 -0.7793  0.1844 -0.3868
  944SOL    HW1 3666   2.189   2.880   5.011 -1.8630  0.6691 -0.0719
  944SOL    HW2 3667   2.183   2.731   5.037  1.2662  0.3462 -0.7703
  945SOL     OW 3668   4.811   4.179   5.898  0.1119  0.4275  0.0269
  945SOL    HW1 3669   4.835   4.096   5.857 -0.7579  1.0632 -1.8683
  945SOL    HW2 3670   4.855   4.246   5.845 -0.1704  1.2442  0.7943
  946SOL     OW 3671   5.007   1.151   4.416  0.2134 -0.6714  0.1639
  946SOL    HW1 3672   4.956   1.212   4.363  1.0366  0.4296  0.5836
  946SOL    HW2 3673   5.069   1.111   4.354 -1.5384 -2.5402 -0.4885
  947SOL     OW 3674   6.646   7.713   5.332 -0.1161  0.0242  0.3947
  947SOL    HW1 3675   6.584   7.785   5.344  0.6020  0.4315  1.8121
  947SOL    HW2 3676   6.678   7.723   5.242 -1.9836 -0.1314 -0.3301
  948SOL     OW 3677   3.826   7.016   0.911 -0.3618  0.0389  0.3714
  948SOL    HW1 3678   3.837   7.075   0.986  0.7555  0.2197  0.0765
  948SOL    HW2 3679   3.895   6.951   0.920  0.2324  0.4701 -0.8740
  949SOL     OW 3680   0.290   2.689   6.197 -0.0170  0.0125  0.2000
  949SOL    HW1 3681   0.378   2.679   6.161 -0.1513  1.7518 -0.7212
  949SOL    HW2 3682   0.239   2.618   6.157  0.7831 -0.5714  0.1934
  950SOL     OW 3683   3.221   7.659   4.581 -0.0556  0.2199  0.5225
  950SOL    HW1 3684   3.235   7.587   4.643  0.0556 -0.3486 -0.1447
  950SOL    HW2 3685   3.126   7.661   4.568  0.0499 -0.8078 -0.5915
  951SOL     OW 3686   7.597   7.762   4.967 -0.5621 -0.0971 -0.2536
  951SOL    HW1 3687   7.553   7.677   4.963  0.0437 -0.3969 -0.7070
  951SOL    HW2 3688   7.657   7.754   5.041 -1.5335  0.4593  0.6353
  952SOL     OW 3689   4.285   1.233   3.285 -0.4809  0.0673  0.2936
  952SOL    HW1 3690   4.198   1.194   3.294 -0.0991 -0.8998 -0.0088
  952SOL    HW2 3691   4.337   1.165   3.241  0.8457 -0.0406  1.9160
  953SOL     OW 3692   2.112   4.565   2.728  0.1697 -0.0510  0.0480
  953SOL    HW1 3693   2.208   4.564   2.730  0.2095  0.8266 -0.4848
  953SOL    HW2 3694   2.091   4.605   2.643 -0.6177  2.6653  1.4181
  954SOL     OW 3695   7.170   1.859   5.194  0.3765  0.3558  0.2602
  954SOL    HW1 3696   7.100   1.794   5.193  0.3308  0.4064 -0.9326
  954SOL    HW2 3697   7.131   1.936   5.152  0.6018  0.9897  1.1719
  955SOL     OW 3698   5.327   6.383   2.629  0.3234  0.4530  0.1209
  955SOL    HW1 3699   5.346   6.446   2.559  0.1410  0.5689  0.1748
  955SOL    HW2 3700   5.372   6.418   2.706  1.6602 -0.3644 -0.2382
  956SOL     OW 3701   2.308   0.017   6.120  0.2700  0.0969 -0.3957
  956SOL    HW1 3702   2.339  -0.020   6.203  0.6303  1.8902  0.3024
  956SOL    HW2 3703   2.350   0.103   6.115  0.3717 -0.0298 -2.5223
  957SOL     OW 3704   0.013   7.070   5.652  0.6511  0.1830  0.3087
  957SOL    HW1 3705  -0.045   7.146   5.655 -1.0123 -1.0653  1.5226
  957SOL    HW2 3706  -0.039   7.002   5.608  2.3691 -0.0877 -1.4403
  958SOL     OW 3707   7.262   1.920   0.189 -0.0566  0.5244 -0.2264
  958SOL    HW1 3708   7.342   1.910   0.138  0.7465  0.8792  0.9266
  958SOL    HW2 3709   7.217   1.836   0.179  1.1721 -0.2167  0.2952
  959SOL     OW 3710   5.572   6.990   2.886  0.3179 -0.3370  0.6249
  959SOL    HW1 3711   5.502   6.931   2.860  1.2783 -0.7429 -1.2210
  959SOL    HW2 3712   5.543   7.026   2.970 -2.2140 -0.2575 -0.1966
  960SOL     OW 3713   5.382   2.755   3.470  0.7820  0.0653 -0.0623
  960SOL    HW1 3714   5.352   2.721   3.385  1.1476  1.5802 -0.8274
  960SOL    HW2 3715   5.334   2.837   3.481  0.8814 -0.0224  1.1186
  961SOL     OW 3716   0.591   6.925   3.345 -0.4570 -0.0711  0.4531
  961SOL    HW1 3717   0.508   6.950   3.304 -0.2769 -0.4224 -0.1322
  961SOL    HW2 3718   0.613   7.000   3.400 -1.1603  0.0260  0.6175
  962SOL     OW 3719   3.689   3.591   1.602 -0.0782 -0.1346 -0.3486
  962SOL    HW1 3720   3.722   3.502   1.619  0.1322 -0.1371 -0.7393
  962SOL    HW2 3721   3.765   3.647   1.617 -0.0666 -0.0755 -0.6220
  963SOL     OW 3722   1.587   6.112   2.095  0.0670 -1.0583 -0.4333
  963SOL    HW1 3723   1.541   6.152   2.021  1.0023 -1.4970 -1.2788
  963SOL    HW2 3724   1.659   6.063   2.055  0.3133 -1.7006  0.7398
  964SOL     OW 3725   1.673   6.249   2.334 -0.6658  0.1378  0.6064
  964SOL    HW1 3726   1.594   6.266   2.386 -0.1552  0.9125  1.1396
  964SOL    HW2 3727   1.639   6.211   2.253 -1.5273 -0.3608  1.1750
  965SOL     OW 3728   7.094   3.178   2.495 -0.2208 -0.0992 -0.6733
  965SOL    HW1 3729   7.014   3.191   2.546 -1.3389 -0.3043 -2.3305
  965SOL    HW2 3730   7.129   3.095   2.529 -1.1910 -0.4752 -0.5451
  966SOL     OW 3731   1.781   7.698   6.143  0.0610 -1.0183  0.3901
  966SOL    HW1 3732   1.715   7.743   6.196 -0.6292 -0.8060 -0.6368
  966SOL    HW2 3733   1.859   7.698   6.198  0.0816  1.3882  0.4336
  967SOL     OW 3734   0.015   6.041   1.242 -0.1962  0.1813  0.2615
  967SOL    HW1 3735  -0.063   6.093   1.260  0.8153  2.4828 -1.4790
  967SOL    HW2 3736   0.078   6.068   1.309  1.0084  2.9623 -1.7817
  968SOL     OW 3737   6.408   0.184   7.868 -0.5103 -0.7176  0.2543
  968SOL    HW1 3738   6.453   0.267   7.854 -0.1292 -0.5334  2.2265
  968SOL    HW2 3739   6.322   0.195   7.827  0.2258 -0.0746 -1.1609
  969SOL     OW 3740   2.822   0.714   7.011 -0.1087 -0.0071  0.1184
  969SOL    HW1 3741   2.885   0.779   6.979  1.2024 -0.8048  0.9929
  969SOL    HW2 3742   2.804   0.659   6.935 -1.8355  1.7729 -0.8532
  970SOL     OW 3743   4.736   3.621   6.402 -0.2587 -0.5582 -0.2113
  970SOL    HW1 3744   4.748   3.531   6.371  0.3226 -0.5317 -0.0678
  970SOL    HW2 3745   4.711   3.611   6.494  0.1906 -0.5620 -0.0880
  971SOL     OW 3746   5.038   1.948   6.667 -0.0993  0.2373  0.0678
  971SOL    HW1 3747   5.121   1.903   6.651 -1.1907 -1.4066 -1.4874
  971SOL    HW2 3748   5.053   2.038   6.637  0.8705 -0.2652 -1.0359
  972SOL     OW 3749   3.503   7.852   1.915  0.5455  0.2121 -0.6548
  972SOL    HW1 3750   3.512   7.759   1.896 -0.1049 -0.1068  0.4983
  972SOL    HW2 3751   3.417   7.876   1.880 -1.5443 -0.8222  3.1726
  973SOL     OW 3752   7.444   2.348   3.490 -0.1056  0.5932  0.6364
  973SOL    HW1 3753   7.525   2.315   3.529 -0.8001 -2.0870 -0.0412
  973SOL    HW2 3754   7.471   2.385   3.406  0.2538 -2.4482 -0.7221
  974SOL     OW 3755   2.148   5.723   7.283  0.4149 -0.1228 -0.1434
  974SOL    HW1 3756   2.133   5.754   7.373 -0.6278 -3.9327  1.1936
  974SOL    HW2 3757   2.239   5.696   7.281  0.5899  0.4679 -0.4472
  975SOL     OW 3758   5.980   4.802   6.317 -0.4030 -0.2836  0.7179
  975SOL    HW1 3759   6.049   4.746   6.281 -0.0663 -1.0320  2.4497
  975SOL    HW2 3760   5.939   4.748   6.385 -0.7396  1.2062  1.7269
  976SOL     OW 3761   6.338   5.238   1.229 -0.0279 -0.0522  0.5100
  976SOL    HW1 3762   6.424   5.244   1.188 -0.6234  0.5454 -0.6828
  976SOL    HW2 3763   6.326   5.144   1.247  1.2433 -0.0454  1.5592
  977SOL     OW 3764   0.598   7.378   0.371 -0.1379 -0.0124 -0.0974
  977SOL    HW1 3765   0.547   7.326   0.309 -1.2952 -0.0508  0.8290
  977SOL    HW2 3766   0.689   7.355   0.353 -0.2617  1.3763 -2.9951
  978SOL     OW 3767   7.109   6.191   2.040  0.1867 -0.5046  0.1837
  978SOL    HW1 3768   7.174   6.240   1.989 -1.4897 -0.4054 -1.9952
  978SOL    HW2 3769   7.039   6.172   1.978 -0.5125 -3.2733  1.6619
  979SOL     OW 3770   7.414   4.553   4.667  0.1030 -0.5241 -0.3485
  979SOL    HW1 3771   7.474   4.505   4.723 -0.2001 -1.5720 -0.8993
  979SOL    HW2 3772   7.398   4.495   4.592  0.5932  0.8837 -1.5997
  980SOL     OW 3773   3.918   6.331   6.506  0.4490  0.2172 -0.0189
  980SOL    HW1 3774   4.000   6.361   6.547 -0.0781  0.5430  0.8316
  980SOL    HW2 3775   3.945   6.296   6.421  1.4536  0.4535  0.1869
  981SOL     OW 3776   0.463   7.645   4.726 -0.3816  0.0622  0.0734
  981SOL    HW1 3777   0.551   7.680   4.717 -1.3550  2.5737 -0.3656
  981SOL    HW2 3778   0.448   7.597   4.644 -0.5621  2.4625 -1.3846
  982SOL     OW 3779   0.825   7.193   6.311 -0.1401  0.1584  0.4912
  982SOL    HW1 3780   0.743   7.164   6.272  0.0014 -0.8087  0.8856
  982SOL    HW2 3781   0.810   7.190   6.405  0.2140  0.4049  0.5619
  983SOL     OW 3782   6.762   4.627   5.515 -0.3437 -0.3346  0.1757
  983SOL    HW1 3783   6.834   4.677   5.554 -0.0593  0.3997 -1.2166
  983SOL    HW2 3784   6.801   4.543   5.492  0.0709  0.0434 -0.5290
  984SOL     OW 3785   3.887   6.661   0.206  0.7096 -0.0052  0.1777
  984SOL    HW1 3786   3.812   6.674   0.265 -0.6162  0.6160 -1.5580
  984SOL    HW2 3787   3.859   6.592   0.146  0.4269  1.9144 -2.0746
  985SOL     OW 3788   1.608   0.109   0.805 -0.0964  0.2996  0.1796
  985SOL    HW1 3789   1.639   0.185   0.854 -1.2850  1.8017 -1.2723
  985SOL    HW2 3790   1.537   0.074   0.858 -1.3457  1.8826 -0.3660
  986SOL     OW 3791   7.530   2.927   3.968 -0.1173  0.2442 -0.1256
  986SOL    HW1 3792   7.449   2.902   4.013 -0.2465 -1.9943 -1.4027
  986SOL    HW2 3793   7.525   3.022   3.960 -0.8747  0.5766  2.9461
  987SOL     OW 3794   3.984   3.116   4.125 -0.5143 -0.3332 -0.2921
  987SOL    HW1 3795   4.076   3.112   4.154 -0.5198 -2.1609 -0.4348
  987SOL    HW2 3796   3.989   3.131   4.031 -0.4391  1.6665 -0.0214
  988SOL     OW 3797   0.955   2.400   1.378  0.2092  0.5578  0.0447
  988SOL    HW1 3798   0.878   2.453   1.361 -0.1622  0.4431  1.2843
  988SOL    HW2 3799   1.025   2.442   1.328 -0.2866  1.6496  0.2504
  989SOL     OW 3800   3.027   6.131   4.650  0.3952  0.2417  0.4061
  989SOL    HW1 3801   3.103   6.090   4.691  0.4940  0.7102  0.6929
  989SOL    HW2 3802   2.970   6.155   4.724  1.8391  3.7097  0.5716
  990SOL     OW 3803   2.346   7.563   1.557 -0.3699  0.5509 -0.1144
  990SOL    HW1 3804   2.299   7.609   1.487 -1.5737 -1.3213 -0.6051
  990SOL    HW2 3805   2.425   7.530   1.516 -0.0188  1.2584 -0.0239
  991SOL     OW 3806   0.455   6.849   5.424 -0.4136  0.4174 -0.4552
  991SOL    HW1 3807   0.392   6.895   5.368  1.3786  2.7914 -0.6466
  991SOL    HW2 3808   0.497   6.786   5.366 -2.2091 -0.9154 -0.4256
  992SOL     OW 3809   6.788   2.981   0.429  0.1157  0.2053 -0.1996
  992SOL    HW1 3810   6.817   2.908   0.484 -0.2245  0.3129  0.1260
  992SOL    HW2 3811   6.710   2.949   0.385  0.3009  0.1727 -0.5104
  993SOL     OW 3812   5.053   0.291   5.464 -0.1167 -0.5541  0.2983
  993SOL    HW1 3813   5.023   0.374   5.428 -0.8902 -0.5977  0.8214
  993SOL    HW2 3814   5.116   0.258   5.400  1.4394  1.2136  0.8495
  994SOL     OW 3815   5.612   1.434   6.860  0.6717  0.0463 -0.2369
  994SOL    HW1 3816   5.686   1.483   6.897  0.2524  2.2573 -2.0707
  994SOL    HW2 3817   5.592   1.479   6.778  0.0787 -3.1403 -2.0287
  995SOL     OW 3818   3.739   2.395   0.071 -0.2872  0.2242 -0.3372
  995SOL    HW1 3819   3.742   2.415   0.165  1.3790 -1.3520 -0.0005
  995SOL    HW2 3820   3.667   2.333   0.062  0.5564 -0.8443  0.1772
  996SOL     OW 3821   7.773   7.371   0.105  0.0951 -0.3017  1.0303
  996SOL    HW1 3822   7.680   7.349   0.115 -0.2209  0.8151  0.7217
  996SOL    HW2 3823   7.800   7.402   0.191 -0.3048  1.0285  0.7067
  997SOL     OW 3824   1.135   4.112   7.273 -0.7005 -0.1675 -0.1739
  997SOL    HW1 3825   1.099   4.121   7.185  1.5528  2.1948 -0.9566
  997SOL    HW2 3826   1.171   4.024   7.276 -1.8690 -0.7103 -1.1340
  998SOL     OW 3827   6.473   3.475   5.794 -0.1010 -0.1883 -0.1874
  998SOL    HW1 3828   6.396   3.532   5.794 -1.2778 -1.5531  2.9397
  998SOL    HW2 3829   6.545   3.532   5.823 -1.0778 -0.0292  2.0572
  999SOL     OW 3830   3.757   1.080   1.327 -0.1233  0.7577 -0.4838
  999SOL    HW1 3831   3.851   1.064   1.328 -0.1061  0.5790  1.8877
  999SOL    HW2 3832   3.724   1.023   1.257  1.3438 -0.5848 -0.1549
 1000SOL     OW 3833   4.304   6.812   6.933 -0.1484 -0.5622  0.6661
 1000SOL    HW1 3834   4.384   6.812   6.986  0.5305 -0.5561 -0.3479
 1000SOL    HW2 3835   4.287   6.904   6.915 -0.0990 -0.5940  0.4575
 1001SOL     OW 3836   6.686   7.874   5.956 -0.3064 -0.1791 -0.4660
 1001SOL    HW1 3837   6.768   7.842   5.918 -0.9316  0.4900 -2.4682
 1001SOL    HW2 3838   6.714   7.920   6.036  1.0987 -1.2477 -0.2995
 1002SOL     OW 3839   3.696   3.706   1.141  0.6466 -0.0981 -0.9034
 1002SOL    HW1 3840   3.631   3.706   1.071  1.2191  0.7510 -1.4505
 1002SOL    HW2 3841   3.652   3.662   1.214 -0.7399  0.9380 -1.0737
 1003SOL     OW 3842   7.312   2.885   2.081  0.2163  0.1955 -0.2506
 1003SOL    HW1 3843   7.306   2.932   2.164  0.2605  1.9251 -1.1788
 1003SOL    HW2 3844   7.222   2.860   2.061  0.0303  0.9099 -0.3085
 1004SOL     OW 3845   3.853   6.574   3.226 -0.9087  0.0855 -0.4585
 1004SOL    HW1 3846   3.926   6.516   3.246 -0.4200  0.8064 -0.1168
 1004SOL    HW2 3847   3.804   6.528   3.158 -0.4023 -0.6181 -0.3587
 1005SOL     OW 3848   5.592   1.419   1.534 -0.5639 -0.3564  0.0880
 1005SOL    HW1 3849   5.678   1.393   1.566 -0.6318 -0.5973  0.0785
 1005SOL    HW2 3850   5.601   1.512   1.512 -0.2399 -0.4401 -0.1396
 1006SOL     OW 3851   5.073   6.655   3.406 -0.3222  0.6982  0.0554
 1006SOL    HW1 3852   5.013   6.686   3.339  0.5687  0.1796 -1.0386
 1006SOL    HW2 3853   5.089   6.730   3.462 -1.0121  1.1789 -0.3853
 1007SOL     OW 3854   5.449   3.446   5.117  0.8461 -0.3970  0.4160
 1007SOL    HW1 3855   5.465   3.434   5.023 -0.0830 -2.5859  0.4663
 1007SOL    HW2 3856   5.360   3.416   5.130  0.6748  0.6542  1.9084
 1008SOL     OW 3857   4.414   0.664   5.388  0.5367 -0.5882 -0.3788
 1008SOL    HW1 3858   4.341   0.639   5.445  1.2813 -0.7657  0.5201
 1008SOL    HW2 3859   4.472   0.715   5.444  1.9787 -1.9355 -0.5552
 1009SOL     OW 3860   3.693   0.072   6.506  0.1491  0.2283 -0.2015
 1009SOL    HW1 3861   3.728   0.091   6.593  1.6302  0.5044 -0.8247
 1009SOL    HW2 3862   3.767   0.035   6.458 -0.4947  0.5665 -1.5003
 1010SOL     OW 3863   4.773   2.754   7.438 -0.7365 -0.0795 -0.4449
 1010SOL    HW1 3864   4.783   2.764   7.343 -0.8689  1.2475 -0.3436
 1010SOL    HW2 3865   4.852   2.792   7.475  0.0741 -2.0302 -0.0291
 1011SOL     OW 3866   3.083   1.004   6.487 -0.2622  0.6606 -0.2538
 1011SOL    HW1 3867   3.081   1.091   6.527 -2.3712  1.2277 -1.4656
 1011SOL    HW2 3868   3.127   1.018   6.403 -0.0973  0.4269 -0.2065
 1012SOL     OW 3869   1.886   5.775   0.127  0.0880  0.6563 -0.2981
 1012SOL    HW1 3870   1.969   5.734   0.103  0.5313  0.4010  1.5581
 1012SOL    HW2 3871   1.890   5.785   0.222 -1.6135  1.5262 -0.2741
 1013SOL     OW 3872   1.770   4.383   3.882  0.3816 -0.1800 -0.4133
 1013SOL    HW1 3873   1.695   4.422   3.837  0.6207  0.5515 -0.1806
 1013SOL    HW2 3874   1.845   4.405   3.827  0.4010 -1.2371 -0.8514
 1014SOL     OW 3875   0.108   1.691   3.029  0.6219 -0.0912  0.5500
 1014SOL    HW1 3876   0.159   1.683   2.949 -0.5180 -0.1202 -0.1892
 1014SOL    HW2 3877   0.154   1.635   3.093  0.4963 -1.5799 -0.6101
 1015SOL     OW 3878   6.863   4.640   7.656  0.5873  0.0318 -0.1141
 1015SOL    HW1 3879   6.850   4.598   7.741  0.9244  1.4254  0.6510
 1015SOL    HW2 3880   6.930   4.707   7.672  1.0168 -0.0048 -1.5909
 1016SOL     OW 3881   7.055   0.311   2.860 -0.2061 -0.0138  0.2545
 1016SOL    HW1 3882   7.095   0.348   2.939 -2.2839  0.1684  1.2762
 1016SOL    HW2 3883   7.107   0.346   2.788  2.1860 -0.7126  1.5311
 1017SOL     OW 3884   4.844   6.076   6.862 -0.4435  0.0783 -0.3449
 1017SOL    HW1 3885   4.934   6.075   6.897 -0.2562  2.1919 -0.6336
 1017SOL    HW2 3886   4.854   6.057   6.769 -0.2902  0.2831 -0.3715
 1018SOL     OW 3887   0.301   3.586   3.124  0.2351  0.0907 -0.4080
 1018SOL    HW1 3888   0.244   3.619   3.055  0.0100 -0.1426 -0.3371
 1018SOL    HW2 3889   0.321   3.497   3.097 -1.6974 -0.8330  0.9203
 1019SOL     OW 3890   5.061   5.648   6.223  0.2779  0.4010  0.7062
 1019SOL    HW1 3891   5.028   5.572   6.174 -0.9276  0.6126  1.1408
 1019SOL    HW2 3892   5.109   5.610   6.297  0.9286  0.0745  0.1181
 1020SOL     OW 3893   5.887   4.854   2.694 -0.2706 -0.2088 -0.0548
 1020SOL    HW1 3894   5.901   4.802   2.773  1.5293  0.9990  0.4778
 1020SOL    HW2 3895   5.911   4.795   2.622 -1.4755 -1.1627  0.2859
 1021SOL     OW 3896   4.540   7.542   0.870 -0.4360 -0.1822  0.4323
 1021SOL    HW1 3897   4.489   7.466   0.842  0.1230 -0.4735  0.2002
 1021SOL    HW2 3898   4.549   7.595   0.791 -0.7872  0.1121  0.5837
 1022SOL     OW 3899   6.442   6.739   1.634 -0.3645 -0.0454 -0.3360
 1022SOL    HW1 3900   6.403   6.780   1.711  0.2306 -1.4802  0.7675
 1022SOL    HW2 3901   6.449   6.810   1.570  0.2649  1.4697  1.3502
 1023SOL     OW 3902   7.678   2.703   4.998 -0.0959 -0.1377  0.4268
 1023SOL    HW1 3903   7.661   2.769   4.930 -1.1625  0.7401  1.4948
 1023SOL    HW2 3904   7.651   2.620   4.958 -1.6228  0.4886  0.0793
 1024SOL     OW 3905   0.472   2.808   4.161 -0.5915 -0.0384 -0.2307
 1024SOL    HW1 3906   0.481   2.809   4.066 -0.2308  1.1788 -0.1974
 1024SOL    HW2 3907   0.527   2.881   4.191 -0.2631 -0.7463  0.9479
 1025SOL     OW 3908   6.196   7.518   3.933 -0.3354 -0.0207  0.3683
 1025SOL    HW1 3909   6.268   7.488   3.989  0.9197 -0.2371 -1.2836
 1025SOL    HW2 3910   6.194   7.613   3.946  0.4928  0.0329  0.1898
 1026SOL     OW 3911   4.611   6.299   5.970  0.5649 -0.2427 -0.2351
 1026SOL    HW1 3912   4.651   6.376   5.928  0.5814 -1.1216 -1.9050
 1026SOL    HW2 3913   4.554   6.336   6.038  2.1734  1.1426  0.4296
 1027SOL     OW 3914   2.511   6.694   3.577 -0.0926  0.1949 -0.0356
 1027SOL    HW1 3915   2.576   6.749   3.532 -1.2411  2.1262  0.5448
 1027SOL    HW2 3916   2.532   6.605   3.549  1.8378  0.9021 -1.0665
 1028SOL     OW 3917   5.151   5.679   1.149 -0.3899 -0.3800  0.0619
 1028SOL    HW1 3918   5.065   5.662   1.111 -1.0828 -0.4926  1.6261
 1028SOL    HW2 3919   5.147   5.769   1.179 -0.5156 -0.8416  1.4982
 1029SOL     OW 3920   7.422   1.501   3.646 -0.1106 -0.0985  0.0304
 1029SOL    HW1 3921   7.341   1.455   3.624  0.1721 -0.9300  0.7049
 1029SOL    HW2 3922   7.430   1.494   3.741  0.3986  0.5886  0.0520
 1030SOL     OW 3923   6.603   6.887   5.421  0.1799 -0.3172 -0.1768
 1030SOL    HW1 3924   6.665   6.960   5.428  0.8191 -0.9507  1.1742
 1030SOL    HW2 3925   6.570   6.876   5.510  0.3448 -1.8789 -0.2796
 1031SOL     OW 3926   4.406   0.872   7.890  0.3065  0.3717  0.7598
 1031SOL    HW1 3927   4.314   0.896   7.904 -0.0785 -0.2670 -0.5021
 1031SOL    HW2 3928   4.456   0.945   7.926 -0.7506  1.5929 -0.1478
 1032SOL     OW 3929   2.719   2.651   6.308  0.1507  0.0178  0.1634
 1032SOL    HW1 3930   2.719   2.730   6.253  3.0875  0.0689  0.0967
 1032SOL    HW2 3931   2.663   2.674   6.383 -0.4296  1.5045 -0.6735
 1033SOL     OW 3932   1.155   7.264   5.648  0.4050  0.6268  0.2161
 1033SOL    HW1 3933   1.244   7.269   5.684 -0.1311  0.7302  1.5606
 1033SOL    HW2 3934   1.113   7.195   5.700 -1.0871  2.3262  1.3557
 1034SOL     OW 3935   2.259   2.607   4.149  0.8783 -0.7717  0.4870
 1034SOL    HW1 3936   2.251   2.513   4.130  1.3202 -0.8126  0.4873
 1034SOL    HW2 3937   2.173   2.632   4.182  0.6607 -1.1074  0.1817
 1035SOL     OW 3938   5.498   7.217   1.688 -0.5126  0.2508 -0.0094
 1035SOL    HW1 3939   5.416   7.253   1.722 -0.1981  0.2352  0.7833
 1035SOL    HW2 3940   5.486   7.216   1.593 -1.6696 -0.3177  0.1223
 1036SOL     OW 3941   5.563   1.188   5.787 -0.0095 -0.2181  0.3116
 1036SOL    HW1 3942   5.516   1.272   5.792  0.9920  0.3136  1.2124
 1036SOL    HW2 3943   5.618   1.196   5.708  1.2295  0.6180  1.2248
 1037SOL     OW 3944   4.354   7.254   4.873 -0.0127  0.1001  0.2530
 1037SOL    HW1 3945   4.438   7.212   4.888  0.0777  0.8431  2.0476
 1037SOL    HW2 3946   4.297   7.220   4.942 -0.4076  1.5646  0.7007
 1038SOL     OW 3947   0.835   4.492   4.099 -0.2255 -0.3873 -0.0043
 1038SOL    HW1 3948   0.798   4.520   4.015  0.8372 -0.3074 -0.4634
 1038SOL    HW2 3949   0.929   4.499   4.087  0.0509 -2.7047  0.3982
 1039SOL     OW 3950   0.606   5.565   6.278 -0.6794  0.6474 -0.2986
 1039SOL    HW1 3951   0.696   5.596   6.266  0.8716 -3.6051 -1.1709
 1039SOL    HW2 3952   0.604   5.531   6.368 -1.4705  0.7788 -0.2596
 1040SOL     OW 3953   3.510   4.282   0.953  0.7782 -0.0140 -0.0301
 1040SOL    HW1 3954   3.599   4.318   0.952  0.5151  0.6568  0.3138
 1040SOL    HW2 3955   3.483   4.287   1.045  0.2825  0.0324 -0.1783
 1041SOL     OW 3956   3.399   7.710   4.997  0.4972  0.2414  0.9237
 1041SOL    HW1 3957   3.311   7.696   4.962 -0.3386  0.1228  2.9215
 1041SOL    HW2 3958   3.442   7.767   4.934 -1.2572  0.8863  0.2657
 1042SOL     OW 3959   0.784   6.938   7.803  0.0773  0.4251  0.2930
 1042SOL    HW1 3960   0.812   7.010   7.748  0.1288 -0.5703 -1.0371
 1042SOL    HW2 3961   0.700   6.967   7.839 -0.5688  0.6230 -1.3065
 1043SOL     OW 3962   2.109   6.777   7.455  0.4406  0.4513 -0.6531
 1043SOL    HW1 3963   2.191   6.791   7.408  0.5648  1.7696 -0.0777
 1043SOL    HW2 3964   2.066   6.862   7.456 -1.4012 -0.3967 -1.7285
 1044SOL     OW 3965   5.044   3.486   7.423  0.1038  0.7185 -0.2048
 1044SOL    HW1 3966   5.134   3.474   7.454 -0.2451 -0.6361  0.3646
 1044SOL    HW2 3967   5.040   3.433   7.343 -0.6412 -0.7191  0.7254
 1045SOL     OW 3968   0.509   1.434   4.973  0.2431  0.5376 -0.5890
 1045SOL    HW1 3969   0.596   1.473   4.978  0.3677  0.4117 -1.5767
 1045SOL    HW2 3970   0.512   1.361   5.035  1.4293 -0.5469 -1.8620
 1046SOL     OW 3971   1.352   3.602   0.524 -0.4076 -0.0749 -0.3241
 1046SOL    HW1 3972   1.356   3.543   0.449  0.1645  1.2887 -1.3916
 1046SOL    HW2 3973   1.340   3.689   0.486  0.7959  0.7555  1.1174
 1047SOL     OW 3974   7.014   1.782   4.433  0.4071  0.4568  0.5329
 1047SOL    HW1 3975   7.086   1.842   4.451  1.5318 -0.6183 -0.2017
 1047SOL    HW2 3976   7.047   1.696   4.460 -0.3072 -0.1658 -0.5155
 1048SOL     OW 3977   0.846   3.458   2.124 -0.4576  0.4658 -0.2071
 1048SOL    HW1 3978   0.849   3.553   2.118 -0.5102  0.4320 -0.7963
 1048SOL    HW2 3979   0.850   3.427   2.033  1.1683 -0.1310  0.0223
 1049SOL     OW 3980   5.176   7.374   4.152  0.0121 -0.2282  0.1554
 1049SOL    HW1 3981   5.221   7.458   4.163  0.4229 -0.4547  0.2505
 1049SOL    HW2 3982   5.226   7.314   4.207 -0.6609 -0.4024  0.5849
 1050SOL     OW 3983   0.027   3.745   4.581  0.1983  0.3645 -0.8379
 1050SOL    HW1 3984  -0.068   3.762   4.576  0.2521  0.8107 -0.4171
 1050SOL    HW2 3985   0.067   3.826   4.549  0.4711  1.3997  1.8239
 1051SOL     OW 3986   4.476   4.141   6.560  0.7301 -0.2026 -0.2284
 1051SOL    HW1 3987   4.545   4.163   6.498 -0.5528 -0.1775 -1.6962
 1051SOL    HW2 3988   4.458   4.223   6.606  2.5927 -0.5137  1.2006
 1052SOL     OW 3989   1.689   3.750   2.388  0.0161  0.2055 -0.3761
 1052SOL    HW1 3990   1.774   3.796   2.389  1.2716 -1.9433 -1.0696
 1052SOL    HW2 3991   1.652   3.771   2.302 -0.4331  1.5630  0.1250
 1053SOL     OW 3992   1.586   2.875   3.154 -0.1356 -0.5973  0.9059
 1053SOL    HW1 3993   1.541   2.853   3.072 -0.3796  0.8663  0.6184
 1053SOL    HW2 3994   1.652   2.806   3.164 -2.0123 -2.4956  1.0502
 1054SOL     OW 3995   1.818   5.669   2.548  0.1341 -0.4617  0.1538
 1054SOL    HW1 3996   1.793   5.755   2.513  1.7805 -0.3226 -0.7945
 1054SOL    HW2 3997   1.786   5.606   2.484  1.9105 -0.2941 -0.9721
 1055SOL     OW 3998   1.630   0.787   5.441  0.3693  0.0011 -0.1535
 1055SOL    HW1 3999   1.650   0.856   5.505  0.4805  0.2999 -0.5080
 1055SOL    HW2 4000   1.554   0.742   5.477  0.3128  0.2915  0.0923
 1056SOL     OW 4001   2.273   1.137   7.314 -0.7335 -0.0612 -0.2697
 1056SOL    HW1 4002   2.186   1.097   7.306  0.0746 -2.0972  0.5060
 1056SOL    HW2 4003   2.326   1.070   7.358  1.2292  1.1476 -0.7029
 1057SOL     OW 4004   1.624   4.793   4.091 -0.0462  0.2464 -0.1328
 1057SOL    HW1 4005   1.698   4.850   4.114 -1.3751  1.7332  0.6707
 1057SOL    HW2 4006   1.647   4.707   4.127  2.0645  0.1936 -1.4673
 1058SOL     OW 4007   5.569   1.503   0.385  0.2469 -0.2360 -0.9162
 1058SOL    HW1 4008   5.639   1.489   0.448 -1.7029 -1.9529  1.0068
 1058SOL    HW2 4009   5.589   1.442   0.314 -0.2192 -2.0604  0.4639
 1059SOL     OW 4010   6.879   6.170   5.143 -0.6920  0.7474  0.2229
 1059SOL    HW1 4011   6.846   6.123   5.067 -0.4016  0.7593  0.0898
 1059SOL    HW2 4012   6.974   6.162   5.137 -0.6882 -0.2213  1.1922
 1060SOL     OW 4013   7.425   6.569   5.976 -0.2714  0.2778 -0.4274
 1060SOL    HW1 4014   7.425   6.655   5.935  1.5747  0.9823  0.8982
 1060SOL    HW2 4015   7.335   6.538   5.968 -1.0357  2.4172 -0.7570
 1061SOL     OW 4016   1.259   1.362   2.666  0.0895 -0.1972 -0.0720
 1061SOL    HW1 4017   1.306   1.279   2.674  1.2417  0.2443 -1.8087
 1061SOL    HW2 4018   1.284   1.411   2.744  2.6839  0.0684 -0.9969
 1062SOL     OW 4019   4.229   3.580   3.602 -0.1911 -0.0655 -0.4884
 1062SOL    HW1 4020   4.173   3.612   3.531  0.2041 -0.7721 -1.1336
 1062SOL    HW2 4021   4.173   3.520   3.651 -0.7612  1.1298  0.3965
 1063SOL     OW 4022   5.078   7.551   4.936 -0.0699  0.1765 -0.4916
 1063SOL    HW1 4023   5.006   7.536   4.998 -1.2307  0.0974 -1.8135
 1063SOL    HW2 4024   5.076   7.474   4.879  0.7045  0.4552 -0.9019
 1064SOL     OW 4025   5.658   3.896   2.064 -0.0393 -0.7792  0.5918
 1064SOL    HW1 4026   5.577   3.913   2.015 -0.4727 -1.9936  0.8676
 1064SOL    HW2 4027   5.725   3.889   1.996 -0.0026  0.9242  0.3967
 1065SOL     OW 4028   4.973   2.192   4.771 -0.0036  0.2741  0.4277
 1065SOL    HW1 4029   5.015   2.221   4.690  2.9134  0.2453  1.8028
 1065SOL    HW2 4030   4.965   2.097   4.761  0.8378  0.2023  0.3516
 1066SOL     OW 4031   0.579   7.119   6.211 -0.2915 -0.1671  0.0183
 1066SOL    HW1 4032   0.546   7.074   6.133 -0.0252 -0.3458  0.0070
 1066SOL    HW2 4033   0.525   7.198   6.217  0.4406  0.4422 -1.0145
 1067SOL     OW 4034   6.400   3.745   3.450 -0.2668  0.0453  0.0144
 1067SOL    HW1 4035   6.372   3.662   3.412  0.0478 -0.6495  1.2393
 1067SOL    HW2 4036   6.426   3.799   3.375 -2.6006 -0.1266 -0.9836
 1068SOL     OW 4037   7.868   4.229   6.457  0.0491  0.3892 -0.2870
 1068SOL    HW1 4038   7.938   4.273   6.409 -0.8355  2.8499  0.5209
 1068SOL    HW2 4039   7.795   4.224   6.395  0.6352 -1.4485 -0.8755
 1069SOL     OW 4040   4.660   2.371   3.922  0.1256  0.5710  0.4644
 1069SOL    HW1 4041   4.624   2.322   3.848  0.4363  1.6218 -0.4056
 1069SOL    HW2 4042   4.750   2.388   3.898  0.4203  0.3861  1.3873
 1070SOL     OW 4043   4.386   7.828   6.496 -0.1715 -0.0177 -0.0869
 1070SOL    HW1 4044   4.323   7.831   6.568  0.1745  0.6003  0.1948
 1070SOL    HW2 4045   4.463   7.872   6.529  0.6895 -1.3902 -0.1833
 1071SOL     OW 4046   4.272   1.649   3.791  0.1650 -0.0502 -0.5992
 1071SOL    HW1 4047   4.263   1.568   3.840  3.2452 -0.5179 -0.6021
 1071SOL    HW2 4048   4.228   1.715   3.846  0.4734 -1.1481  1.0481
 1072SOL     OW 4049   5.617   3.977   3.451 -0.4364 -0.2902  0.1864
 1072SOL    HW1 4050   5.647   4.066   3.472  0.6671 -0.6934  0.4165
 1072SOL    HW2 4051   5.691   3.938   3.404  0.3655 -2.0922  2.7399
 1073SOL     OW 4052   7.202   2.473   3.178  0.1544  0.8162 -0.4287
 1073SOL    HW1 4053   7.238   2.548   3.131  1.6529 -1.2465 -2.8790
 1073SOL    HW2 4054   7.269   2.405   3.169 -0.4727 -0.4646  2.9414
 1074SOL     OW 4055   3.583   3.543   5.690 -0.2966 -0.2487  0.3076
 1074SOL    HW1 4056   3.520   3.590   5.636  0.5063  1.6471  0.9418
 1074SOL    HW2 4057   3.624   3.480   5.631 -1.1245  0.1260 -0.6853
 1075SOL     OW 4058   0.764   6.203   0.181 -0.4257 -0.3349  0.1195
 1075SOL    HW1 4059   0.822   6.234   0.111  0.3028 -0.2990  0.7226
 1075SOL    HW2 4060   0.737   6.282   0.227 -0.4150 -0.4038  0.2464
 1076SOL     OW 4061   4.667   6.986   3.992 -0.3241  0.0482  0.3370
 1076SOL    HW1 4062   4.684   7.030   3.908 -1.0488 -1.4039 -0.6046
 1076SOL    HW2 4063   4.588   6.934   3.977 -0.1770 -0.6455  1.7774
 1077SOL     OW 4064   6.399   6.308   3.811 -0.3778  0.3986  0.0306
 1077SOL    HW1 4065   6.442   6.384   3.851  2.7407 -1.5081  0.6577
 1077SOL    HW2 4066   6.315   6.302   3.855  0.2716  2.1454  1.6390
 1078SOL     OW 4067   3.456   7.173   0.361  0.1316  0.0713  0.5204
 1078SOL    HW1 4068   3.528   7.218   0.405 -0.1137  1.4743 -0.4526
 1078SOL    HW2 4069   3.384   7.236   0.363  0.4961  0.7637 -2.9837
 1079SOL     OW 4070   2.744   3.954   1.354  0.1957 -0.6878 -0.2195
 1079SOL    HW1 4071   2.729   4.032   1.300 -0.4514 -0.2612  0.5424
 1079SOL    HW2 4072   2.683   3.889   1.319  1.2201 -1.0962 -1.3001
 1080SOL     OW 4073   6.401   1.727   4.454 -0.0549  0.6135  0.2046
 1080SOL    HW1 4074   6.462   1.750   4.384 -0.5290  1.2742  0.0089
 1080SOL    HW2 4075   6.448   1.659   4.504  0.0388 -0.3272 -1.1034
 1081SOL     OW 4076   6.525   5.243   1.582  0.1134  0.2249  0.2684
 1081SOL    HW1 4077   6.615   5.254   1.551 -0.6630  0.9970 -1.9460
 1081SOL    HW2 4078   6.507   5.321   1.633  0.0251  1.2049 -1.1995
 1082SOL     OW 4079   7.071   4.197   1.249 -0.3459 -0.1517  0.4373
 1082SOL    HW1 4080   7.068   4.142   1.171 -1.2550 -1.2351  1.2098
 1082SOL    HW2 4081   7.131   4.151   1.308  0.9900  1.0868  0.0966
 1083SOL     OW 4082   1.821   5.067   5.626  0.1309 -0.8135  0.3119
 1083SOL    HW1 4083   1.916   5.066   5.634  0.2453  2.4358  0.3151
 1083SOL    HW2 4084   1.789   5.061   5.716  0.5737  2.7665  0.8592
 1084SOL     OW 4085   3.729   4.285   5.740 -0.1100  0.7161  0.0919
 1084SOL    HW1 4086   3.716   4.370   5.698 -0.5084 -0.2110 -1.7599
 1084SOL    HW2 4087   3.641   4.258   5.765  0.0377  0.9143  0.8384
 1085SOL     OW 4088   4.734   5.612   2.107  0.1756 -0.0908 -0.4209
 1085SOL    HW1 4089   4.747   5.703   2.135  0.1899 -0.8090  2.1103
 1085SOL    HW2 4090   4.729   5.562   2.188 -0.2489 -2.3284 -1.7416
 1086SOL     OW 4091   0.919   2.833   3.675  0.2454  0.1809  0.2880
 1086SOL    HW1 4092   0.869   2.845   3.594  1.1760 -1.3773 -0.5642
 1086SOL    HW2 4093   0.866   2.773   3.728  0.6108 -0.4866 -0.0892
 1087SOL     OW 4094   6.055   4.349   2.482  0.2386  0.2987  0.2209
 1087SOL    HW1 4095   6.032   4.340   2.575  1.3904  2.1512  0.7430
 1087SOL    HW2 4096   6.149   4.363   2.482  0.5017 -1.1870 -1.3895
 1088SOL     OW 4097   7.740   4.391   5.228  0.0685  0.1274 -0.1773
 1088SOL    HW1 4098   7.735   4.327   5.158  0.1078 -0.6686  0.5268
 1088SOL    HW2 4099   7.714   4.474   5.188  0.0006 -0.3313 -1.0957
 1089SOL     OW 4100   0.889   3.221   0.524 -0.3042  0.4109  0.5656
 1089SOL    HW1 4101   0.880   3.230   0.429 -0.5828  3.5179  0.7890
 1089SOL    HW2 4102   0.933   3.301   0.552  1.3238 -1.1679  2.9334
 1090SOL     OW 4103   4.547   6.293   7.438 -0.6049 -0.0117 -0.2694
 1090SOL    HW1 4104   4.496   6.363   7.479 -1.8251 -1.3463  0.6260
 1090SOL    HW2 4105   4.564   6.231   7.510  1.2128 -0.2294 -0.8366
 1091SOL     OW 4106   0.257   5.199   7.329 -0.3792 -0.0459  0.1263
 1091SOL    HW1 4107   0.283   5.227   7.417  1.1253  0.6225 -0.5008
 1091SOL    HW2 4108   0.330   5.223   7.273 -0.5610 -1.9845 -1.0605
 1092SOL     OW 4109   3.327   3.035   5.020  0.0675 -0.2277 -0.1405
 1092SOL    HW1 4110   3.385   3.029   5.096 -0.7021 -0.4994  0.4341
 1092SOL    HW2 4111   3.317   3.129   5.005 -0.0297 -0.1671  0.2904
 1093SOL     OW 4112   4.335   5.707   6.465 -0.5378 -0.2022 -0.0007
 1093SOL    HW1 4113   4.312   5.796   6.494 -2.0665 -0.7642  0.6252
 1093SOL    HW2 4114   4.318   5.707   6.371 -1.8657 -0.1809  0.2104
 1094SOL     OW 4115   2.120   4.895   1.348 -0.1373  0.3175 -0.0874
 1094SOL    HW1 4116   2.081   4.905   1.435 -0.0058  1.9395 -0.1862
 1094SOL    HW2 4117   2.204   4.942   1.354 -0.5972  1.3597 -1.3717
 1095SOL     OW 4118   4.254   4.904   5.047 -0.5289  0.4169 -0.6537
 1095SOL    HW1 4119   4.258   4.819   5.002 -0.2364  1.2538 -2.2609
 1095SOL    HW2 4120   4.293   4.887   5.133 -3.0311 -1.7267  0.1974
 1096SOL     OW 4121   4.079   3.979   6.870 -0.1330 -0.2585 -0.0963
 1096SOL    HW1 4122   4.140   4.025   6.928  0.6333  1.0196 -1.8522
 1096SOL    HW2 4123   4.016   4.045   6.844 -0.5632 -0.8654 -0.6237
 1097SOL     OW 4124   0.095   0.262   6.785 -0.0084 -0.8157  0.2558
 1097SOL    HW1 4125   0.078   0.326   6.854 -3.5874  0.6248 -1.6781
 1097SOL    HW2 4126   0.028   0.195   6.798 -1.0529 -0.2909 -1.9476
 1098SOL     OW 4127   6.777   2.699   0.068  0.1361  0.1416  0.3647
 1098SOL    HW1 4128   6.786   2.791   0.044  1.9099 -0.1446 -0.1853
 1098SOL    HW2 4129   6.850   2.682   0.127 -0.6923 -0.7102  1.1788
 1099SOL     OW 4130   2.891   0.482   1.408  0.4126 -0.4728 -0.5922
 1099SOL    HW1 4131   2.945   0.557   1.384  0.0076 -0.5943 -1.9165
 1099SOL    HW2 4132   2.930   0.450   1.490  0.7706  0.9769 -0.1797
 1100SOL     OW 4133   1.887   5.458   0.332 -0.0269 -0.1388  0.0905
 1100SOL    HW1 4134   1.815   5.463   0.269 -0.4921  1.2950  0.6986
 1100SOL    HW2 4135   1.897   5.547   0.365  1.5348 -0.4609  0.5862
 1101SOL     OW 4136   1.487   0.888   4.150 -0.5674 -0.2291 -0.3616
 1101SOL    HW1 4137   1.428   0.893   4.075 -0.0445  0.1080 -0.7673
 1101SOL    HW2 4138   1.456   0.956   4.210  1.6831  2.7606 -2.2940
 1102SOL     OW 4139   4.020   5.827   5.461  0.3414  0.4280 -0.2724
 1102SOL    HW1 4140   4.072   5.762   5.414 -0.4439 -1.5402  1.4098
 1102SOL    HW2 4141   3.934   5.823   5.421  0.2393  0.2812 -0.0403
 1103SOL     OW 4142   7.852   2.826   2.661  0.1298 -0.2685 -0.1521
 1103SOL    HW1 4143   7.848   2.867   2.574  0.3708 -1.5427 -0.7973
 1103SOL    HW2 4144   7.811   2.889   2.719 -1.1561  0.1142 -1.4042
 1104SOL     OW 4145   1.157   2.216   4.980  0.6719 -0.3169  0.1163
 1104SOL    HW1 4146   1.126   2.230   5.069  0.3295 -0.2305 -0.0170
 1104SOL    HW2 4147   1.253   2.215   4.988  0.7275  1.4545  0.2442
 1105SOL     OW 4148   5.661   1.083   3.034  0.0832 -0.0690  0.5861
 1105SOL    HW1 4149   5.576   1.047   3.007 -0.0875  1.4136 -1.0287
 1105SOL    HW2 4150   5.681   1.037   3.115 -2.6287  0.0592  1.4341
 1106SOL     OW 4151   1.922   1.811   7.017 -0.7959  0.3212 -0.8387
 1106SOL    HW1 4152   1.939   1.720   7.041  1.9198  0.0477 -3.2774
 1106SOL    HW2 4153   1.902   1.854   7.100 -0.3273 -2.1137  0.6339
 1107SOL     OW 4154   4.284   1.420   3.947 -0.3135 -0.4519  0.0372
 1107SOL    HW1 4155   4.320   1.472   4.019  2.0119  0.1335 -1.4347
 1107SOL    HW2 4156   4.239   1.347   3.990 -0.0545  0.5179  2.0719
 1108SOL     OW 4157   7.073   4.548   4.996 -0.3923  0.7300  0.3563
 1108SOL    HW1 4158   7.059   4.513   5.085  1.0130  0.5282  0.5134
 1108SOL    HW2 4159   6.987   4.540   4.955 -0.4527 -1.8594  0.7787
 1109SOL     OW 4160   5.279   7.699   7.094  0.0511 -0.4121  0.0112
 1109SOL    HW1 4161   5.183   7.704   7.092  0.0100  1.2013  1.9100
 1109SOL    HW2 4162   5.305   7.697   7.002 -1.7952 -0.7872 -0.5487
 1110SOL     OW 4163   5.515   5.812   1.498 -0.1820 -0.2857 -0.5480
 1110SOL    HW1 4164   5.480   5.727   1.470  0.6675 -1.1803  0.9409
 1110SOL    HW2 4165   5.603   5.815   1.460  0.5986 -1.0636  1.1149
 1111SOL     OW 4166   3.213   4.392   4.350  0.4795  0.0692 -0.2609
 1111SOL    HW1 4167   3.182   4.345   4.273 -1.3618  3.3701 -1.7338
 1111SOL    HW2 4168   3.293   4.436   4.321  1.0297 -0.4683  0.4263
 1112SOL     OW 4169   4.449   1.575   6.251  0.7005 -0.0549 -0.3791
 1112SOL    HW1 4170   4.510   1.631   6.300 -0.2050  1.0696 -0.4763
 1112SOL    HW2 4171   4.451   1.491   6.297  0.5424  0.7056  1.0708
 1113SOL     OW 4172   0.434   1.357   0.933  0.5145 -0.0201  0.2687
 1113SOL    HW1 4173   0.405   1.300   1.004 -0.5563 -1.5925 -1.3611
 1113SOL    HW2 4174   0.530   1.352   0.935  0.4891 -0.2558  1.4081
 1114SOL     OW 4175   4.418   5.480   5.504 -0.1548 -0.0031 -0.4798
 1114SOL    HW1 4176   4.394   5.554   5.560 -0.1485 -0.4854  0.1822
 1114SOL    HW2 4177   4.334   5.440   5.480 -0.1512  0.1145 -0.6828
 1115SOL     OW 4178   1.694   3.504   0.463 -0.3129 -0.1537 -0.2273
 1115SOL    HW1 4179   1.764   3.443   0.439 -0.9281  0.0332 -2.7228
 1115SOL    HW2 4180   1.666   3.543   0.380 -1.6786  1.6415  1.0046
 1116SOL     OW 4181   0.235   5.639   1.265  0.6836  0.0956  0.4396
 1116SOL    HW1 4182   0.245   5.613   1.357 -1.6643  0.5638  0.8814
 1116SOL    HW2 4183   0.264   5.562   1.216  1.7829 -0.2342  1.5456
 1117SOL     OW 4184   7.068   1.976   5.845  0.9509 -0.0232 -0.0497
 1117SOL    HW1 4185   7.004   1.907   5.828  1.0223 -0.3067  0.7893
 1117SOL    HW2 4186   7.144   1.952   5.792  0.1530  0.6703 -1.5747
 1118SOL     OW 4187   7.451   0.428   2.772 -0.1839 -0.8301 -0.1381
 1118SOL    HW1 4188   7.423   0.488   2.702 -3.3890  0.7202  2.2073
 1118SOL    HW2 4189   7.456   0.343   2.730  1.0454  0.4613 -2.8583
 1119SOL     OW 4190   1.243   2.573   3.822  0.3643 -0.0394  0.5112
 1119SOL    HW1 4191   1.318   2.573   3.882  2.5353 -0.6259 -1.9675
 1119SOL    HW2 4192   1.234   2.664   3.794  1.5187 -0.2231 -0.6117
 1120SOL     OW 4193   1.601   5.275   6.251 -0.2627  0.0478 -0.4041
 1120SOL    HW1 4194   1.520   5.299   6.297  0.5262  0.4124  0.8497
 1120SOL    HW2 4195   1.644   5.358   6.234  0.3972 -0.2158 -0.0232
 1121SOL     OW 4196   5.671   7.500   5.323 -0.5147  0.4129  0.3055
 1121SOL    HW1 4197   5.592   7.548   5.300 -1.4299 -1.6569 -1.0945
 1121SOL    HW2 4198   5.742   7.553   5.286 -1.1072  2.5136  1.9434
 1122SOL     OW 4199   4.761   7.094   4.451  0.1166 -0.4438 -0.5097
 1122SOL    HW1 4200   4.796   7.059   4.369 -1.1548 -0.5438 -1.0477
 1122SOL    HW2 4201   4.728   7.017   4.498 -0.2857 -0.2556 -0.4797
 1123SOL     OW 4202   2.368   4.372   1.544 -0.1779  0.6217 -0.2761
 1123SOL    HW1 4203   2.435   4.341   1.605 -0.1381  1.1617 -0.0416
 1123SOL    HW2 4204   2.350   4.462   1.571 -0.0125  0.9420 -1.1872
 1124SOL     OW 4205   5.016   6.712   6.513 -0.4163  0.0993 -0.2199
 1124SOL    HW1 4206   5.089   6.742   6.568  0.6270  2.0187 -2.4886
 1124SOL    HW2 4207   5.059   6.662   6.443 -1.5680 -0.9337 -0.2283
 1125SOL     OW 4208   2.683   6.290   5.100  0.1734  0.5754 -0.4932
 1125SOL    HW1 4209   2.605   6.341   5.124  1.2905  2.7309 -1.2798
 1125SOL    HW2 4210   2.752   6.322   5.158  1.2276  0.9419 -1.8948
 1126SOL     OW 4211   6.664   3.829   1.031  0.2933  0.1219  0.0842
 1126SOL    HW1 4212   6.751   3.855   1.001  0.3363  1.7471  1.4134
 1126SOL    HW2 4213   6.620   3.912   1.050 -0.9161 -0.7107  1.1087
 1127SOL     OW 4214   5.656   7.661   7.889 -0.6667  0.6065  0.4006
 1127SOL    HW1 4215   5.635   7.639   7.980  1.2156 -0.7786  0.5823
 1127SOL    HW2 4216   5.657   7.576   7.844  1.2735  0.8930 -0.2108
 1128SOL     OW 4217   4.388   4.201   5.453  0.3158 -0.1798 -0.4109
 1128SOL    HW1 4218   4.323   4.201   5.523  1.5438 -0.7383  0.7653
 1128SOL    HW2 4219   4.440   4.123   5.469  0.5551 -0.3854 -2.0383
 1129SOL     OW 4220   5.132   4.429   4.280 -0.0312  0.6771 -0.0488
 1129SOL    HW1 4221   5.209   4.485   4.287  0.0408  0.5335  0.3625
 1129SOL    HW2 4222   5.063   4.477   4.325  0.7646 -0.8403  3.1159
 1130SOL     OW 4223   6.719   5.457   2.310  0.2220 -0.4645  0.2550
 1130SOL    HW1 4224   6.641   5.403   2.299 -0.5674  0.6948  0.0146
 1130SOL    HW2 4225   6.741   5.485   2.221  0.6454 -0.4162  0.3719
 1131SOL     OW 4226   5.065   0.848   0.484  0.2794  0.1953 -0.0139
 1131SOL    HW1 4227   5.153   0.868   0.452  2.0023 -1.3526  3.2778
 1131SOL    HW2 4228   5.061   0.753   0.486 -0.9682  0.2352  1.0924
 1132SOL     OW 4229   6.590   1.304   6.289 -0.0832  0.3257  0.3311
 1132SOL    HW1 4230   6.604   1.297   6.194 -0.8701  1.0337  0.1517
 1132SOL    HW2 4231   6.580   1.213   6.318 -0.2435  0.1250 -0.3318
 1133SOL     OW 4232   0.320   1.785   6.612 -0.0913  0.0988 -0.7066
 1133SOL    HW1 4233   0.346   1.869   6.575  0.6408  0.8118  1.2775
 1133SOL    HW2 4234   0.261   1.747   6.547 -1.2161  2.5751 -1.2325
 1134SOL     OW 4235   4.398   2.085   6.262  0.8764  0.3500 -0.0861
 1134SOL    HW1 4236   4.343   2.032   6.319  0.5520 -0.2259 -0.9092
 1134SOL    HW2 4237   4.344   2.099   6.184  1.0053  1.7865  0.0547
 1135SOL     OW 4238   4.980   0.618   3.275  0.1179  0.6818  0.8155
 1135SOL    HW1 4239   4.927   0.688   3.313 -0.2316  0.8482  0.0393
 1135SOL    HW2 4240   4.939   0.538   3.307  0.9089  0.8195  2.2344
 1136SOL     OW 4241   6.042   3.135   1.074 -0.1219 -0.1775  0.0411
 1136SOL    HW1 4242   6.010   3.082   1.147 -0.3457  0.3680  0.3453
 1136SOL    HW2 4243   5.963   3.170   1.033  0.0687  1.3886  0.9562
 1137SOL     OW 4244   0.381   2.454   1.741 -0.2192  0.3327 -0.1583
 1137SOL    HW1 4245   0.435   2.375   1.736 -1.1939 -0.3315 -0.4732
 1137SOL    HW2 4246   0.345   2.452   1.829 -0.2593  0.4183 -0.1731
 1138SOL     OW 4247   7.447   5.191   0.731  0.3121  0.3579  0.0497
 1138SOL    HW1 4248   7.497   5.241   0.666 -1.3976  0.6866 -1.1033
 1138SOL    HW2 4249   7.386   5.255   0.768 -0.3028 -0.3496  0.2713
 1139SOL     OW 4250   7.379   7.508   3.239 -0.4183  0.5391 -0.4275
 1139SOL    HW1 4251   7.334   7.549   3.165  0.5301  1.1551 -0.6946
 1139SOL    HW2 4252   7.317   7.444   3.274 -0.9448  0.3686 -1.6471
 1140SOL     OW 4253   2.244   2.115   7.828  0.1569 -0.1367 -0.1054
 1140SOL    HW1 4254   2.184   2.068   7.772 -1.1799 -1.1022  2.0020
 1140SOL    HW2 4255   2.191   2.184   7.868  0.8464  0.0121  0.5823
 1141SOL     OW 4256   3.641   3.922   6.600 -0.3519 -1.0153  0.7301
 1141SOL    HW1 4257   3.681   3.836   6.601 -0.9196 -1.3239 -0.6809
 1141SOL    HW2 4258   3.577   3.918   6.529  0.2860  0.8764 -0.0004
 1142SOL     OW 4259   7.876   4.204   3.006  0.2535  0.2726  0.5515
 1142SOL    HW1 4260   7.966   4.171   3.016 -0.3435 -1.1502  1.4827
 1142SOL    HW2 4261   7.822   4.142   3.055 -1.5047 -0.0213 -1.5952
 1143SOL     OW 4262   5.996   6.275   6.792 -0.3399 -0.6744 -0.6893
 1143SOL    HW1 4263   5.932   6.208   6.818 -0.7030 -0.7845 -1.7684
 1143SOL    HW2 4264   5.942   6.345   6.753  0.0224  0.3318  0.5606
 1144SOL     OW 4265   2.098   4.737   2.169 -0.1345  1.1188  0.2205
 1144SOL    HW1 4266   2.149   4.743   2.250 -1.2053 -2.3618  1.3007
 1144SOL    HW2 4267   2.008   4.752   2.196 -0.6601 -1.3089 -0.0011
 1145SOL     OW 4268   4.601   1.542   1.783  0.4048  0.1148 -0.1176
 1145SOL    HW1 4269   4.670   1.478   1.797  0.0737 -0.0072  1.0739
 1145SOL    HW2 4270   4.648   1.624   1.767  0.8268  0.0372  0.6909
 1146SOL     OW 4271   4.562   6.014   1.582 -0.0870  0.4252 -0.1117
 1146SOL    HW1 4272   4.554   5.934   1.633  0.3187  0.3674 -0.1324
 1146SOL    HW2 4273   4.512   5.997   1.503  0.6587 -0.1162 -0.4801
 1147SOL     OW 4274   6.731   6.866   3.466  0.8684  0.0679 -0.1942
 1147SOL    HW1 4275   6.767   6.778   3.458  0.2655 -0.2937  0.8045
 1147SOL    HW2 4276   6.667   6.874   3.395  0.6686 -0.4314 -0.0701
 1148SOL     OW 4277   6.494   1.722   6.344  0.1375  0.2881 -0.2788
 1148SOL    HW1 4278   6.481   1.724   6.249 -1.7281  0.3004 -0.0476
 1148SOL    HW2 4279   6.590   1.722   6.354  0.3790  0.9739 -2.1261
 1149SOL     OW 4280   5.124   4.659   4.931 -0.0758  0.3487  0.1412
 1149SOL    HW1 4281   5.041   4.696   4.961 -0.7847 -1.4725  0.5684
 1149SOL    HW2 4282   5.152   4.601   5.003  1.0794  0.2122 -0.3912
 1150SOL     OW 4283   7.942   4.212   4.946  0.3180 -0.0225 -0.5389
 1150SOL    HW1 4284   7.940   4.158   4.867 -0.9293 -2.1000  0.8028
 1150SOL    HW2 4285   8.033   4.241   4.953  0.9089 -1.4621 -1.6793
 1151SOL     OW 4286   5.115   0.127   1.041  0.5011 -0.1094  0.4039
 1151SOL    HW1 4287   5.052   0.059   1.020  1.9471 -1.4495  0.1981
 1151SOL    HW2 4288   5.084   0.164   1.124 -0.0849 -1.3323  0.7518
 1152SOL     OW 4289   6.848   7.024   5.924 -0.2261  0.2354 -0.0196
 1152SOL    HW1 4290   6.860   6.963   5.996  0.4669 -1.3356 -1.3891
 1152SOL    HW2 4291   6.809   6.972   5.854 -0.0443  1.4657 -1.0850
 1153SOL     OW 4292   0.914   4.289   2.546 -0.0129 -0.0983 -0.6791
 1153SOL    HW1 4293   0.971   4.263   2.474  0.6846  0.2987 -0.2913
 1153SOL    HW2 4294   0.844   4.340   2.505  0.3355  0.0562 -1.0832
 1154SOL     OW 4295   0.676   3.344   5.406 -1.1165  0.0791  0.0721
 1154SOL    HW1 4296   0.771   3.335   5.406 -1.0469  0.5813  1.6181
 1154SOL    HW2 4297   0.644   3.255   5.389 -0.3592 -0.3689  0.8732
 1155SOL     OW 4298   6.243   7.219   0.353  0.3606 -0.8979  0.1640
 1155SOL    HW1 4299   6.167   7.173   0.317 -0.7543  1.7528 -1.1389
 1155SOL    HW2 4300   6.317   7.162   0.334 -0.8604 -1.9461 -1.7803
 1156SOL     OW 4301   0.119   0.697   3.051  0.2917 -0.2130  0.0401
 1156SOL    HW1 4302   0.201   0.715   3.005 -0.1814  1.0362 -0.3569
 1156SOL    HW2 4303   0.059   0.764   3.019 -0.5181 -0.3240  1.2833
 1157SOL     OW 4304   0.909   3.819   3.035 -0.4761  0.4513  0.3581
 1157SOL    HW1 4305   0.999   3.850   3.029 -0.3008  0.1855  1.4324
 1157SOL    HW2 4306   0.861   3.874   2.974  0.4724  0.3586 -0.5023
 1158SOL     OW 4307   0.206   0.702   6.767 -0.4551 -0.2792 -0.8968
 1158SOL    HW1 4308   0.168   0.654   6.693  0.9830 -1.4662 -0.8898
 1158SOL    HW2 4309   0.243   0.781   6.727 -0.4357 -0.4908 -1.3027
 1159SOL     OW 4310   3.456   7.553   5.916 -0.2561  0.1750  0.2118
 1159SOL    HW1 4311   3.526   7.576   5.977 -1.2972  1.6038  0.9346
 1159SOL    HW2 4312   3.382   7.530   5.973 -1.3589  1.8835 -0.4525
 1160SOL     OW 4313   6.854   6.574   4.670  0.0181  1.0998 -0.5250
 1160SOL    HW1 4314   6.915   6.507   4.638  0.0091  0.2025  1.2005
 1160SOL    HW2 4315   6.767   6.540   4.649 -0.0611 -0.2600  1.6768
 1161SOL     OW 4316   1.631   0.210   3.837  0.2428 -0.0306 -0.0032
 1161SOL    HW1 4317   1.680   0.130   3.855  1.5294  0.6506 -0.4162
 1161SOL    HW2 4318   1.695   0.272   3.803 -0.6148  1.3936  0.8543
 1162SOL     OW 4319   1.836   6.264   6.191  0.4047  0.0587  0.3413
 1162SOL    HW1 4320   1.742   6.253   6.205  0.6262 -0.2008  1.7888
 1162SOL    HW2 4321   1.853   6.357   6.204 -0.0031  0.6317 -2.5034
 1163SOL     OW 4322   2.892   7.249   2.043 -0.3048 -0.4341  0.2744
 1163SOL    HW1 4323   2.935   7.270   2.126 -1.1391 -0.5616  0.7459
 1163SOL    HW2 4324   2.836   7.325   2.025 -0.9014 -0.8462  0.3568
 1164SOL     OW 4325   1.340   7.619   7.135 -0.2849 -0.4047  0.2223
 1164SOL    HW1 4326   1.306   7.632   7.046 -1.0795  0.0228  0.5765
 1164SOL    HW2 4327   1.355   7.707   7.168 -0.0828 -0.5585  0.5447
 1165SOL     OW 4328   5.546   7.424   6.937 -0.6753 -0.0909  0.7556
 1165SOL    HW1 4329   5.517   7.334   6.945 -0.1711 -0.3338 -0.0174
 1165SOL    HW2 4330   5.589   7.443   7.020 -2.6957  0.1690  1.7757
 1166SOL     OW 4331   6.841   3.266   6.183 -0.3943  0.0066  0.5524
 1166SOL    HW1 4332   6.748   3.287   6.190 -1.0099 -1.5848 -1.8264
 1166SOL    HW2 4333   6.845   3.170   6.190  0.8213 -0.1164 -1.1899
 1167SOL     OW 4334   5.734   3.170   0.392  0.0176  0.9968 -0.4752
 1167SOL    HW1 4335   5.690   3.085   0.399 -2.6454  2.2562 -0.5636
 1167SOL    HW2 4336   5.816   3.159   0.440 -1.0370 -1.1233  0.9989
 1168SOL     OW 4337   7.616   4.445   2.312 -0.7022  0.4304  0.0916
 1168SOL    HW1 4338   7.522   4.462   2.321 -0.4536  1.8731  0.2689
 1168SOL    HW2 4339   7.621   4.354   2.284 -2.0776 -0.2267  1.7627
 1169SOL     OW 4340   0.088   4.191   6.841  0.9622  0.6056  0.1185
 1169SOL    HW1 4341   0.003   4.196   6.884  1.5855 -1.1653  1.7342
 1169SOL    HW2 4342   0.074   4.132   6.767  0.9089 -0.3509  0.8631
 1170SOL     OW 4343   2.411   3.749   5.428 -0.5030 -0.3389 -0.3815
 1170SOL    HW1 4344   2.434   3.692   5.501  0.0210  1.0237  0.5596
 1170SOL    HW2 4345   2.462   3.716   5.354  1.2751  0.0492  0.6258
 1171SOL     OW 4346   7.917   2.898   5.839 -0.8975  0.5558  0.3633
 1171SOL    HW1 4347   7.926   2.803   5.830  1.4266  0.6437  1.2591
 1171SOL    HW2 4348   7.981   2.935   5.778 -0.6263  1.5220  1.2046
 1172SOL     OW 4349   2.284   3.180   3.268 -0.6216  0.2728 -0.7724
 1172SOL    HW1 4350   2.243   3.149   3.349 -1.2609 -0.5282 -1.3905
 1172SOL    HW2 4351   2.375   3.195   3.292 -0.9104  0.5177  0.2184
 1173SOL     OW 4352   4.107   2.177   7.308 -0.1355  0.2899  0.1385
 1173SOL    HW1 4353   4.194   2.195   7.345 -0.3643  0.5179  0.5685
 1173SOL    HW2 4354   4.046   2.206   7.375 -0.5623 -2.7578  1.2407
 1174SOL     OW 4355   3.657   0.550   7.179 -0.2471 -0.3101 -0.8225
 1174SOL    HW1 4356   3.639   0.484   7.247  2.3081 -2.1782 -1.8090
 1174SOL    HW2 4357   3.700   0.621   7.227  0.2734 -0.9922 -0.2339
 1175SOL     OW 4358   4.277   1.357   4.875 -0.3218 -0.3675  0.5561
 1175SOL    HW1 4359   4.290   1.349   4.781  1.0356 -0.6432  0.7584
 1175SOL    HW2 4360   4.325   1.436   4.900  1.7482 -1.8266  1.4377
 1176SOL     OW 4361   2.813   0.048   7.725 -0.2743 -0.1332  0.3671
 1176SOL    HW1 4362   2.783   0.137   7.711  0.9166  0.8027  3.0668
 1176SOL    HW2 4363   2.780   0.025   7.812  0.7991 -1.7257  0.3986
 1177SOL     OW 4364   0.623   4.957   4.441  0.3063  0.1320 -0.0664
 1177SOL    HW1 4365   0.667   4.872   4.443  0.5557  0.1496 -2.4470
 1177SOL    HW2 4366   0.572   4.956   4.360  0.8948  2.5147 -0.5481
 1178SOL     OW 4367   4.660   1.353   3.193 -0.1869  0.0961 -0.5343
 1178SOL    HW1 4368   4.598   1.398   3.135  1.0100  0.7970 -1.2979
 1178SOL    HW2 4369   4.606   1.325   3.268 -1.4047  0.7586 -1.1335
 1179SOL     OW 4370   6.043   7.007   1.599  0.4364 -0.4098  0.0681
 1179SOL    HW1 4371   6.094   6.971   1.526  0.8932  1.1470 -0.4424
 1179SOL    HW2 4372   5.977   7.062   1.557 -0.0316 -0.4071  0.7993
 1180SOL     OW 4373   2.723   1.648   7.049  0.2550 -0.2520 -0.1259
 1180SOL    HW1 4374   2.658   1.634   7.117  0.6331  1.0285  0.5137
 1180SOL    HW2 4375   2.672   1.665   6.970 -0.1800 -1.3164 -0.0936
 1181SOL     OW 4376   2.524   1.858   3.016  0.1555  0.4980  0.3637
 1181SOL    HW1 4377   2.460   1.867   2.945 -0.2790  1.9657  0.9049
 1181SOL    HW2 4378   2.582   1.788   2.987  0.1090  1.1826 -1.5449
 1182SOL     OW 4379   4.935   4.827   2.333 -0.7091  0.0321 -0.1072
 1182SOL    HW1 4380   4.852   4.833   2.380  0.8862  0.6807  2.9250
 1182SOL    HW2 4381   4.970   4.741   2.356 -0.4748 -0.1727 -1.2078
 1183SOL     OW 4382   4.569   4.334   1.441  0.2297  0.2592  0.2556
 1183SOL    HW1 4383   4.532   4.338   1.353 -0.2753  1.1781  0.4954
 1183SOL    HW2 4384   4.663   4.349   1.429  0.0378  1.2439 -0.0502
 1184SOL     OW 4385   0.204   5.430   1.913  0.2110  0.4427 -0.0444
 1184SOL    HW1 4386   0.273   5.365   1.897  0.0399  0.4263 -0.7334
 1184SOL    HW2 4387   0.242   5.513   1.882 -0.0231  0.4565 -0.3033
 1185SOL     OW 4388   6.107   7.417   1.936  0.3502 -0.1651 -0.3935
 1185SOL    HW1 4389   6.048   7.394   1.864  0.5696 -2.4476  0.0943
 1185SOL    HW2 4390   6.055   7.406   2.015  0.6397  0.5572 -0.0918
 1186SOL     OW 4391   3.825   6.409   4.828  0.2778  0.4271 -0.4080
 1186SOL    HW1 4392   3.799   6.346   4.761 -0.6266  1.8012 -1.4226
 1186SOL    HW2 4393   3.920   6.415   4.821  0.4764 -1.4079  0.2897
 1187SOL     OW 4394   7.097   5.361   5.156  0.5364  0.4399 -0.5122
 1187SOL    HW1 4395   7.059   5.439   5.195  0.1208  0.3755 -0.7838
 1187SOL    HW2 4396   7.177   5.345   5.206  0.0690  0.4234  0.2358
 1188SOL     OW 4397   0.183   0.206   2.463  0.3526  0.3172 -0.2857
 1188SOL    HW1 4398   0.138   0.285   2.433 -0.3178 -0.6774 -2.0564
 1188SOL    HW2 4399   0.241   0.236   2.533  1.3924  2.6608 -2.0329
 1189SOL     OW 4400   6.086   1.925   3.567  0.3374  0.2148 -0.6457
 1189SOL    HW1 4401   6.094   1.830   3.562  2.6076  0.1992  1.4021
 1189SOL    HW2 4402   6.144   1.958   3.498  0.2085  0.1189 -0.8007
 1190SOL     OW 4403   0.014   5.127   5.073 -0.5423 -0.5871 -0.1878
 1190SOL    HW1 4404   0.044   5.214   5.046 -0.0073 -0.4685  0.7241
 1190SOL    HW2 4405   0.069   5.106   5.149 -2.2977 -0.6741  1.1234
 1191SOL     OW 4406   0.012   4.920   6.571 -0.2017  0.2862  0.2379
 1191SOL    HW1 4407  -0.020   4.960   6.652 -0.9225  2.4148 -1.0087
 1191SOL    HW2 4408   0.065   4.988   6.530  1.6700 -1.3850 -0.2479
 1192SOL     OW 4409   1.591   4.804   1.331 -0.0670 -0.3684 -0.3043
 1192SOL    HW1 4410   1.685   4.819   1.320  0.0533 -1.5295 -0.9116
 1192SOL    HW2 4411   1.585   4.731   1.392 -0.5063 -1.9974 -2.2144
 1193SOL     OW 4412   2.080   2.325   7.888  0.2966  0.2865 -0.5445
 1193SOL    HW1 4413   2.041   2.407   7.857 -0.3921  0.2395  0.1485
 1193SOL    HW2 4414   2.083   2.336   7.983  0.8945 -0.1957 -0.5073
 1194SOL     OW 4415   6.491   3.257   5.175 -0.1968 -0.2446 -0.2312
 1194SOL    HW1 4416   6.570   3.270   5.123  0.9389  0.3171  1.5117
 1194SOL    HW2 4417   6.458   3.346   5.191 -0.4722 -0.3949  0.0548
 1195SOL     OW 4418   3.383   4.927   4.900  0.3682 -0.0745 -0.2945
 1195SOL    HW1 4419   3.461   4.872   4.898 -0.4707 -1.4523  1.7357
 1195SOL    HW2 4420   3.412   5.007   4.944  0.4180 -1.1280  1.7369
 1196SOL     OW 4421   6.240   6.292   2.996 -0.3257  0.1963  0.3544
 1196SOL    HW1 4422   6.272   6.246   2.919 -0.5571  2.2622 -1.0348
 1196SOL    HW2 4423   6.319   6.315   3.046 -0.1165 -0.3587  0.2825
 1197SOL     OW 4424   2.309   3.171   7.362  0.3666  0.6553  0.1426
 1197SOL    HW1 4425   2.313   3.076   7.360 -0.2226  0.6254  0.1109
 1197SOL    HW2 4426   2.276   3.192   7.449  0.0268  0.8084 -0.0218
 1198SOL     OW 4427   2.758   0.291   4.120 -0.4040 -0.4888 -0.2145
 1198SOL    HW1 4428   2.685   0.266   4.064 -0.3257 -0.3158 -0.3941
 1198SOL    HW2 4429   2.827   0.318   4.060  0.6534 -2.8267 -0.1563
 1199SOL     OW 4430   7.440   3.104   2.375 -0.0811  0.1195  0.0977
 1199SOL    HW1 4431   7.388   3.100   2.455  0.8830  0.9631  0.7939
 1199SOL    HW2 4432   7.527   3.072   2.401  0.7985  2.1631 -0.0886
 1200SOL     OW 4433   1.085   3.728   5.940 -0.3533 -0.3284 -0.2756
 1200SOL    HW1 4434   1.162   3.701   5.890 -0.3886  0.2058 -0.6238
 1200SOL    HW2 4435   1.029   3.771   5.876  0.2168  1.6393  0.4619
 1201SOL     OW 4436   1.170   2.851   0.013  0.2970 -0.0154 -0.1306
 1201SOL    HW1 4437   1.079   2.830   0.037  0.4442  1.0324  1.5348
 1201SOL    HW2 4438   1.162   2.906  -0.064 -0.5273  0.4537  0.2713
 1202SOL     OW 4439   4.330   4.906   0.390  0.2961  0.4409  0.0955
 1202SOL    HW1 4440   4.405   4.897   0.330 -0.9888 -0.3277 -1.4736
 1202SOL    HW2 4441   4.340   4.832   0.451  0.9255  0.4830  0.0571
 1203SOL     OW 4442   1.945   1.565   7.082  0.2246 -0.2001 -0.2330
 1203SOL    HW1 4443   1.929   1.545   7.175  2.5588  2.0110  0.7583
 1203SOL    HW2 4444   2.020   1.510   7.059 -1.2757 -1.8958 -1.3717
 1204SOL     OW 4445   3.203   4.166   2.722  0.9164 -0.4002 -0.2900
 1204SOL    HW1 4446   3.274   4.229   2.732 -0.6833  1.6446 -1.0298
 1204SOL    HW2 4447   3.158   4.167   2.807  1.0493 -0.7854 -0.2115
 1205SOL     OW 4448   2.203   1.370   5.688  0.2204 -0.8845  0.2076
 1205SOL    HW1 4449   2.230   1.283   5.720 -1.2344 -0.4028  3.0008
 1205SOL    HW2 4450   2.261   1.431   5.734  0.6740 -0.2729 -1.1172
 1206SOL     OW 4451   1.835   4.801   2.213 -0.3852  0.1558 -0.3942
 1206SOL    HW1 4452   1.788   4.856   2.151  1.6630  0.3789 -1.8411
 1206SOL    HW2 4453   1.792   4.818   2.297 -2.2343  1.0224 -1.4603
 1207SOL     OW 4454   1.099   2.779   2.060  0.4694 -0.1780  0.3234
 1207SOL    HW1 4455   1.027   2.738   2.107 -0.6630  2.4755  1.0835
 1207SOL    HW2 4456   1.057   2.829   1.990  1.7748 -0.2907 -0.5859
 1208SOL     OW 4457   6.375   4.543   2.793 -0.0745  0.3819  0.2201
 1208SOL    HW1 4458   6.388   4.552   2.887 -2.3392 -0.2772  0.6696
 1208SOL    HW2 4459   6.415   4.620   2.755  0.7234  0.7494  1.7419
 1209SOL     OW 4460   7.383   3.438   1.990  0.0767  0.2765  0.0824
 1209SOL    HW1 4461   7.462   3.405   2.032  0.2576 -0.4979 -0.8262
 1209SOL    HW2 4462   7.325   3.362   1.982 -0.3709  0.6289 -0.1214
 1210SOL     OW 4463   1.824   6.965   2.279 -0.0898  0.0291 -0.2256
 1210SOL    HW1 4464   1.837   7.020   2.201 -1.8014  0.0029 -0.5820
 1210SOL    HW2 4465   1.882   6.890   2.266  1.2780  1.0825 -0.3907
 1211SOL     OW 4466   7.723   1.518   3.726 -0.0594 -0.0466 -0.0356
 1211SOL    HW1 4467   7.671   1.453   3.773  1.3713 -0.6290  0.7865
 1211SOL    HW2 4468   7.778   1.467   3.667  1.0422  0.4030  0.5771
 1212SOL     OW 4469   5.681   4.715   6.967 -0.1991  0.2476 -0.0383
 1212SOL    HW1 4470   5.603   4.766   6.944  0.3611  1.4337  0.6139
 1212SOL    HW2 4471   5.686   4.720   7.062 -0.7451 -2.0061  0.1817
 1213SOL     OW 4472   1.725   3.663   0.233  0.1652  0.4217 -0.2509
 1213SOL    HW1 4473   1.662   3.734   0.240  0.9424  1.0916  0.0080
 1213SOL    HW2 4474   1.793   3.684   0.297  0.0345 -0.9446  0.3933
 1214SOL     OW 4475   5.532   6.251   3.010 -0.1779 -0.3062 -0.0617
 1214SOL    HW1 4476   5.598   6.183   3.026  0.2939 -0.0032 -0.6839
 1214SOL    HW2 4477   5.578   6.318   2.960 -0.9170 -0.0067 -0.3570
 1215SOL     OW 4478   7.425   6.603   0.417 -0.1446 -0.1015 -0.1692
 1215SOL    HW1 4479   7.404   6.591   0.324 -0.7647 -0.7621  0.0460
 1215SOL    HW2 4480   7.515   6.635   0.418  0.9674 -2.9301 -0.8850
 1216SOL     OW 4481   4.781   7.810   5.513 -0.3127 -0.0943 -0.2634
 1216SOL    HW1 4482   4.869   7.836   5.540 -0.7735  0.7053  0.4936
 1216SOL    HW2 4483   4.725   7.832   5.587 -1.1688 -0.5307 -0.7638
 1217SOL     OW 4484   3.154   3.475   6.828 -0.3882 -0.4166 -0.1420
 1217SOL    HW1 4485   3.097   3.532   6.880  0.4216 -0.3071  0.6670
 1217SOL    HW2 4486   3.148   3.390   6.872 -0.3169 -0.5317 -0.3551
 1218SOL     OW 4487   5.217   7.376   2.007  0.7612  0.6199  0.0496
 1218SOL    HW1 4488   5.124   7.397   2.013  0.9940  1.4670  0.9313
 1218SOL    HW2 4489   5.219   7.286   1.973 -0.4051  0.2751  0.8271
 1219SOL     OW 4490   2.518   5.163   6.137 -0.2075  0.0327 -0.3610
 1219SOL    HW1 4491   2.522   5.252   6.102 -0.9033  0.2889  0.1778
 1219SOL    HW2 4492   2.609   5.135   6.142  0.0997  1.0744  0.3470
 1220SOL     OW 4493   7.783   3.320   6.437  0.4556 -0.1768 -0.1376
 1220SOL    HW1 4494   7.714   3.353   6.494  1.1716  0.1729  0.5530
 1220SOL    HW2 4495   7.737   3.277   6.365 -0.5086  1.6710 -0.6699
 1221SOL     OW 4496   1.529   2.635   5.371  0.3725 -0.1874  0.0778
 1221SOL    HW1 4497   1.579   2.713   5.394  0.0830 -0.0769  0.3373
 1221SOL    HW2 4498   1.446   2.669   5.337  0.8835 -0.3325 -1.3932
 1222SOL     OW 4499   0.578   4.284   7.160  0.2342  0.7087  0.0112
 1222SOL    HW1 4500   0.624   4.293   7.243  0.2731 -1.8535  0.3650
 1222SOL    HW2 4501   0.514   4.214   7.176 -0.0144  0.4136 -2.0106
 1223SOL     OW 4502   0.236   3.592   0.572 -0.2765 -0.0267 -0.3222
 1223SOL    HW1 4503   0.168   3.601   0.639  0.4178 -0.0031  0.4055
 1223SOL    HW2 4504   0.246   3.497   0.560 -0.9951 -0.0168 -1.0230
 1224SOL     OW 4505   4.605   5.060   2.840 -0.0073  0.5173  0.4654
 1224SOL    HW1 4506   4.629   5.126   2.905 -0.6597  0.8333  0.3976
 1224SOL    HW2 4507   4.522   5.025   2.871  0.1283  0.0218  0.2758
 1225SOL     OW 4508   2.571   6.586   0.726  0.8620  0.3543 -0.5184
 1225SOL    HW1 4509   2.478   6.599   0.741  0.8909 -0.4353  0.5207
 1225SOL    HW2 4510   2.597   6.657   0.668 -0.0628  1.5633  0.4854
 1226SOL     OW 4511   3.172   1.071   2.030  0.2194  0.2496  0.4682
 1226SOL    HW1 4512   3.153   1.061   1.937 -0.2204 -0.6569  0.6441
 1226SOL    HW2 4513   3.263   1.098   2.033  0.4979 -0.5559 -0.2035
 1227SOL     OW 4514   1.606   2.833   5.093 -0.1489 -0.0407  0.0935
 1227SOL    HW1 4515   1.699   2.851   5.080  0.4401 -1.8535  1.3689
 1227SOL    HW2 4516   1.582   2.884   5.170 -0.2664  0.5812 -0.3531
 1228SOL     OW 4517   4.918   4.597   5.869 -0.3190  0.2830  0.0021
 1228SOL    HW1 4518   4.853   4.656   5.905 -1.1148 -0.0872 -0.7936
 1228SOL    HW2 4519   4.876   4.558   5.792  0.7721 -0.0986 -0.4248
 1229SOL     OW 4520   7.778   2.835   4.367 -0.2064 -0.1075  0.1377
 1229SOL    HW1 4521   7.849   2.809   4.308  0.0349  0.3884  0.2060
 1229SOL    HW2 4522   7.822   2.884   4.437 -0.4161 -1.1247  1.0152
 1230SOL     OW 4523   1.535   0.106   5.311  0.1752 -0.2482  0.1585
 1230SOL    HW1 4524   1.510   0.037   5.249  1.3861 -0.7655  0.2198
 1230SOL    HW2 4525   1.454   0.126   5.359 -0.6774 -0.1597 -1.2587
 1231SOL     OW 4526   2.661   6.514   6.619  0.0868 -0.0307  0.0749
 1231SOL    HW1 4527   2.699   6.455   6.554 -0.9809  0.9459 -1.5185
 1231SOL    HW2 4528   2.596   6.564   6.570 -0.3613  1.1576  1.7981
 1232SOL     OW 4529   7.590   5.596   2.035 -0.2598  0.0360 -0.0566
 1232SOL    HW1 4530   7.583   5.547   1.953  1.2870  0.0412 -0.2300
 1232SOL    HW2 4531   7.539   5.676   2.020 -0.6125 -0.3034 -0.7295
 1233SOL     OW 4532   1.031   6.058   5.526  0.3158 -0.1341 -0.5661
 1233SOL    HW1 4533   1.053   6.152   5.525 -0.3540  0.0234 -1.0012
 1233SOL    HW2 4534   0.994   6.044   5.614  1.7987 -0.3296  0.0471
 1234SOL     OW 4535   1.427   3.411   3.569  0.3572  0.3650 -0.0977
 1234SOL    HW1 4536   1.421   3.377   3.659  2.4783 -0.0781 -0.0567
 1234SOL    HW2 4537   1.437   3.334   3.515 -2.9507  0.4641 -1.0680
 1235SOL     OW 4538   6.468   3.267   1.649 -0.2035  0.1593 -0.3782
 1235SOL    HW1 4539   6.544   3.209   1.648 -1.3178 -1.3723 -1.3606
 1235SOL    HW2 4540   6.485   3.329   1.577  0.3116  0.1193 -0.2970
 1236SOL     OW 4541   0.676   1.386   3.588  0.4876 -0.5052  0.1810
 1236SOL    HW1 4542   0.705   1.428   3.507  0.3000 -2.1607 -0.7992
 1236SOL    HW2 4543   0.704   1.446   3.658  0.5409  1.0309 -1.0963
 1237SOL     OW 4544   3.427   5.990   5.808 -0.1198  0.8388 -0.3516
 1237SOL    HW1 4545   3.483   5.965   5.734 -0.6554  1.0256 -0.8266
 1237SOL    HW2 4546   3.488   6.021   5.875  0.3844  0.5056 -0.6496
 1238SOL     OW 4547   3.262   6.511   1.859 -0.3592 -0.2644 -0.1438
 1238SOL    HW1 4548   3.338   6.511   1.917 -0.1797 -0.6166 -0.3718
 1238SOL    HW2 4549   3.206   6.441   1.892 -0.9612  0.5081  0.4965
 1239SOL     OW 4550   5.672   4.596   3.788  0.6796  0.0698  0.5423
 1239SOL    HW1 4551   5.741   4.545   3.746  0.7523  1.1915 -0.7710
 1239SOL    HW2 4552   5.644   4.658   3.721 -0.8843  0.3385  1.3935
 1240SOL     OW 4553   1.577   1.807   0.510  0.2559 -0.1711  0.6887
 1240SOL    HW1 4554   1.579   1.818   0.415  0.4486  3.7747  0.9858
 1240SOL    HW2 4555   1.524   1.880   0.541  4.5972  2.1110  3.8336
 1241SOL     OW 4556   7.308   5.048   1.578 -0.6455 -0.0956 -0.3617
 1241SOL    HW1 4557   7.232   5.092   1.616 -0.4392 -1.1256  1.3393
 1241SOL    HW2 4558   7.381   5.070   1.636  0.4429  1.0040 -2.0591
 1242SOL     OW 4559   2.522   3.351   3.567 -0.3315  0.4876  0.1715
 1242SOL    HW1 4560   2.556   3.269   3.531  0.3047 -0.0129  1.7980
 1242SOL    HW2 4561   2.535   3.342   3.662 -2.3083  1.5454  0.5903
 1243SOL     OW 4562   7.524   5.000   3.841 -0.1199  0.2789 -0.2272
 1243SOL    HW1 4563   7.518   5.083   3.795 -2.2131 -0.0937 -0.7552
 1243SOL    HW2 4564   7.434   4.981   3.869  0.4898 -1.2477  0.9021
 1244SOL     OW 4565   2.971   2.293   0.348 -1.1160  0.0121 -0.4999
 1244SOL    HW1 4566   2.884   2.333   0.347 -1.7866 -1.3496  0.2568
 1244SOL    HW2 4567   3.008   2.320   0.432 -0.3229  1.5058 -1.2895
 1245SOL     OW 4568   3.502   1.296   0.904  0.7449  0.0798 -0.0345
 1245SOL    HW1 4569   3.592   1.319   0.879  0.3995  2.2372  0.5160
 1245SOL    HW2 4570   3.458   1.380   0.915 -0.4876 -0.8336  2.8629
 1246SOL     OW 4571   5.159   0.985   5.989  0.0326 -0.1652  0.2498
 1246SOL    HW1 4572   5.156   0.937   6.071  0.6314 -1.2356 -0.3320
 1246SOL    HW2 4573   5.089   1.050   5.996 -0.3067 -0.6325  1.3548
 1247SOL     OW 4574   7.485   4.925   0.725 -0.5884  0.5275 -0.1962
 1247SOL    HW1 4575   7.479   5.020   0.710 -0.7991  0.5948  0.3032
 1247SOL    HW2 4576   7.405   4.903   0.773  0.2524  0.3854  1.1684
 1248SOL     OW 4577   5.325   6.126   0.073  0.6671 -0.4413 -0.9163
 1248SOL    HW1 4578   5.261   6.067   0.112  0.3106 -1.1807 -2.5258
 1248SOL    HW2 4579   5.328   6.201   0.133 -1.8600 -0.2938 -0.8467
 1249SOL     OW 4580   6.348   7.480   1.432  0.0979  0.2187 -0.0406
 1249SOL    HW1 4581   6.303   7.564   1.439  2.2576  1.3331  2.0518
 1249SOL    HW2 4582   6.400   7.487   1.351  0.2573  0.9288  0.1134
 1250SOL     OW 4583   1.341   5.722   3.026 -0.3472  0.0912  0.3308
 1250SOL    HW1 4584   1.325   5.647   2.969  1.8689  2.2397 -3.5920
 1250SOL    HW2 4585   1.256   5.766   3.033 -0.8623 -0.7077 -0.6809
 1251SOL     OW 4586   5.415   7.609   0.465  0.0682 -0.4677  0.4866
 1251SOL    HW1 4587   5.373   7.527   0.490 -1.3567  0.3749  0.9873
 1251SOL    HW2 4588   5.345   7.674   0.467  0.6830  0.3906 -2.0257
 1252SOL     OW 4589   7.180   3.990   2.723 -0.6384  0.0722 -0.0832
 1252SOL    HW1 4590   7.157   4.066   2.777 -1.1315 -0.6798  0.7996
 1252SOL    HW2 4591   7.271   4.004   2.700 -0.8007  1.0621 -0.1481
 1253SOL     OW 4592   1.070   2.708   3.318  0.3945  0.0433  0.3271
 1253SOL    HW1 4593   1.112   2.740   3.238  0.2482 -1.1652 -0.2454
 1253SOL    HW2 4594   1.004   2.645   3.287  0.5353 -0.6523  1.4110
 1254SOL     OW 4595   6.046   4.801   7.606 -0.0472  0.4110  0.0477
 1254SOL    HW1 4596   6.079   4.827   7.520  0.5807 -1.4396 -0.3224
 1254SOL    HW2 4597   6.123   4.768   7.652 -0.6911 -0.2895  0.6511
 1255SOL     OW 4598   6.622   2.120   6.637 -0.1200  0.1783  0.2987
 1255SOL    HW1 4599   6.691   2.120   6.704  2.0071 -0.2328 -1.7440
 1255SOL    HW2 4600   6.600   2.212   6.626 -0.7848  0.2245  1.7927
 1256SOL     OW 4601   2.795   5.401   3.811 -0.2211 -0.6579  0.0564
 1256SOL    HW1 4602   2.801   5.377   3.904 -0.2990 -0.6317  0.0677
 1256SOL    HW2 4603   2.764   5.491   3.812  1.2356 -0.1338  0.0555
 1257SOL     OW 4604   2.877   7.079   5.284  0.0467 -0.0997  0.0309
 1257SOL    HW1 4605   2.911   7.168   5.275 -0.9724  0.2191 -1.0068
 1257SOL    HW2 4606   2.895   7.055   5.375 -1.2888  1.8896  0.9020
 1258SOL     OW 4607   7.633   3.468   4.341  0.0989  0.1764  0.2321
 1258SOL    HW1 4608   7.598   3.412   4.410  1.2312 -0.9460 -0.0553
 1258SOL    HW2 4609   7.556   3.513   4.305 -0.6633 -0.1847  1.3601
 1259SOL     OW 4610   5.828   0.906   2.774  0.2476  0.2329  0.2156
 1259SOL    HW1 4611   5.769   0.878   2.843  0.8516  0.3597  0.7943
 1259SOL    HW2 4612   5.809   0.999   2.762 -1.0690 -0.1679 -1.0180
 1260SOL     OW 4613   7.052   4.953   1.876  0.2962  0.3682  0.2954
 1260SOL    HW1 4614   7.019   4.940   1.964  0.0198 -0.3489  0.0961
 1260SOL    HW2 4615   7.074   4.865   1.845  0.9569  0.6752 -0.1284
 1261SOL     OW 4616   3.589   3.016   5.526 -0.2953  0.1315  0.0041
 1261SOL    HW1 4617   3.645   2.938   5.523  0.2497  0.5317 -0.7766
 1261SOL    HW2 4618   3.518   2.993   5.585  0.1515 -0.7641  0.2070
 1262SOL     OW 4619   6.952   2.512   4.626 -0.4683 -0.0048 -1.2608
 1262SOL    HW1 4620   6.967   2.587   4.682 -1.7078 -0.8332  0.2552
 1262SOL    HW2 4621   6.922   2.549   4.543 -0.2447  1.1770 -0.8309
 1263SOL     OW 4622   7.083   2.281   4.758 -0.0780  0.1206  0.6334
 1263SOL    HW1 4623   7.008   2.340   4.750  0.1107  0.3543  0.6182
 1263SOL    HW2 4624   7.100   2.277   4.852 -2.1579 -2.4598  1.0481
 1264SOL     OW 4625   3.828   6.938   6.459 -0.9372 -0.0385 -0.6381
 1264SOL    HW1 4626   3.787   6.867   6.510 -0.8484 -0.9096 -1.7396
 1264SOL    HW2 4627   3.778   6.940   6.378 -1.7034  1.9918 -0.1717
 1265SOL     OW 4628   6.372   5.996   5.187 -0.0371 -0.1141  0.2136
 1265SOL    HW1 4629   6.401   6.086   5.201  0.1017 -0.1626  0.2356
 1265SOL    HW2 4630   6.423   5.965   5.112  1.5510 -0.9026  1.5546
 1266SOL     OW 4631   6.569   6.267   7.766 -0.6149 -0.1711 -0.1412
 1266SOL    HW1 4632   6.595   6.292   7.855  0.6637 -0.4894 -0.4179
 1266SOL    HW2 4633   6.508   6.194   7.780 -0.1735 -0.4358  0.4654
 1267SOL     OW 4634   2.895   4.401   6.121 -0.6831  0.2065  0.3068
 1267SOL    HW1 4635   2.923   4.492   6.128  0.6920 -0.1113 -0.5582
 1267SOL    HW2 4636   2.867   4.392   6.030 -1.0395 -0.1861  0.4528
 1268SOL     OW 4637   1.684   0.094   4.834  0.0133  0.4669  0.2971
 1268SOL    HW1 4638   1.612   0.113   4.893 -0.3730 -0.0009 -0.0182
 1268SOL    HW2 4639   1.693  -0.002   4.837 -0.1877  0.4112 -0.5991
 1269SOL     OW 4640   1.864   7.831   5.652  0.0755  0.1449 -0.6110
 1269SOL    HW1 4641   1.860   7.851   5.746 -1.4983 -1.0951 -0.3621
 1269SOL    HW2 4642   1.957   7.823   5.633  0.6023  3.2396  0.1777
 1270SOL     OW 4643   7.110   4.885   7.083  0.3336  0.1528 -0.0856
 1270SOL    HW1 4644   7.148   4.852   7.002  0.8336 -0.3474  0.3400
 1270SOL    HW2 4645   7.186   4.905   7.138 -0.0036 -0.0168  0.4512
 1271SOL     OW 4646   2.907   4.974   3.990 -0.5255  0.3216 -0.1185
 1271SOL    HW1 4647   2.854   4.955   3.912 -1.0600 -0.1247  0.3475
 1271SOL    HW2 4648   2.899   5.069   4.001 -0.1883  0.4335 -0.7899
 1272SOL     OW 4649   0.105   4.971   4.179 -0.0433 -0.0638 -0.5068
 1272SOL    HW1 4650   0.022   4.957   4.224 -0.3907 -1.7692 -1.5727
 1272SOL    HW2 4651   0.156   5.027   4.239 -1.5835  0.2319  0.5868
 1273SOL     OW 4652   3.793   7.788   1.899  0.3562  0.5994 -0.0111
 1273SOL    HW1 4653   3.698   7.781   1.888  0.3764 -0.0929  0.2293
 1273SOL    HW2 4654   3.805   7.872   1.945 -0.3543 -0.4375  2.2395
 1274SOL     OW 4655   0.751   1.119   0.402 -0.7032 -0.2312 -0.1242
 1274SOL    HW1 4656   0.693   1.045   0.415 -2.2697  0.7193 -1.3029
 1274SOL    HW2 4657   0.744   1.139   0.308  1.1582  0.2284 -0.2105
 1275SOL     OW 4658   1.578   5.521   6.506  0.8414  0.0153  0.6268
 1275SOL    HW1 4659   1.549   5.556   6.591 -0.6087 -0.0252  0.1785
 1275SOL    HW2 4660   1.599   5.599   6.454 -1.5406  0.2663 -0.0754
 1276SOL     OW 4661   1.965   1.390   4.282 -0.4331 -0.4162 -0.1113
 1276SOL    HW1 4662   1.937   1.339   4.358 -1.8596 -0.1113 -0.3989
 1276SOL    HW2 4663   1.996   1.472   4.318 -0.0092 -0.7215  0.2193
 1277SOL     OW 4664   7.177   6.707   2.502  0.3006  0.5350  0.2827
 1277SOL    HW1 4665   7.101   6.658   2.470  0.9618 -0.1288 -0.3061
 1277SOL    HW2 4666   7.140   6.768   2.566 -0.5719 -0.6480  0.9570
 1278SOL     OW 4667   4.932   1.138   7.609 -0.4270 -0.2584  0.3770
 1278SOL    HW1 4668   4.880   1.202   7.559  0.4884  0.2223  0.0216
 1278SOL    HW2 4669   5.023   1.165   7.595  0.0977 -2.4773 -0.9583
 1279SOL     OW 4670   0.881   7.331   7.438 -0.0904  0.1752 -0.0080
 1279SOL    HW1 4671   0.897   7.416   7.479  0.6176 -0.4942  1.1373
 1279SOL    HW2 4672   0.861   7.352   7.346 -0.5984  1.6163  0.4058
 1280SOL     OW 4673   6.936   0.781   5.969 -0.9566  0.1998 -0.4655
 1280SOL    HW1 4674   6.887   0.847   6.018 -0.7822 -0.0630  0.0665
 1280SOL    HW2 4675   6.985   0.832   5.905 -0.5832  0.6203  0.1417
 1281SOL     OW 4676   7.623   6.301   0.461  0.4756 -0.0445 -0.2533
 1281SOL    HW1 4677   7.592   6.334   0.377  2.1164  0.8075 -0.5650
 1281SOL    HW2 4678   7.569   6.224   0.478 -1.8760  1.4278 -0.6549
 1282SOL     OW 4679   5.363   6.227   6.496 -0.1043  0.2010  0.3758
 1282SOL    HW1 4680   5.412   6.287   6.552  0.1983 -0.9113  1.3599
 1282SOL    HW2 4681   5.354   6.273   6.413  0.6171  1.3605  0.9129
 1283SOL     OW 4682   7.530   4.059   2.934  0.2872 -0.3048 -0.0483
 1283SOL    HW1 4683   7.466   4.129   2.927 -0.0140 -0.6641 -1.1297
 1283SOL    HW2 4684   7.502   4.008   3.010  0.5442  0.7540  0.7831
 1284SOL     OW 4685   1.760   0.142   0.560 -0.2074  0.0995  0.1030
 1284SOL    HW1 4686   1.692   0.102   0.507  0.0418  0.5959 -0.6040
 1284SOL    HW2 4687   1.726   0.138   0.650 -0.7269 -0.5416 -0.1163
 1285SOL     OW 4688   4.116   5.087   0.292 -0.3533  0.3919 -0.5294
 1285SOL    HW1 4689   4.039   5.047   0.331  1.6108 -3.3826 -0.0844
 1285SOL    HW2 4690   4.142   5.155   0.355 -0.8455 -1.3028  1.6120
 1286SOL     OW 4691   0.877   3.199   3.873 -0.0840  0.0080 -0.0819
 1286SOL    HW1 4692   0.941   3.130   3.891 -0.6824 -0.3173  0.8255
 1286SOL    HW2 4693   0.879   3.208   3.777  0.0270 -1.2454 -0.2216
 1287SOL     OW 4694   3.917   3.140   6.987 -0.0500 -0.2002 -0.2575
 1287SOL    HW1 4695   3.963   3.069   7.031  0.6152 -0.3673 -1.1902
 1287SOL    HW2 4696   3.941   3.130   6.894  1.2666  2.1326 -0.2263
 1288SOL     OW 4697   4.111   6.467   1.985  0.0399  0.1826  0.3924
 1288SOL    HW1 4698   4.059   6.531   2.033 -0.8866 -0.3939  0.1818
 1288SOL    HW2 4699   4.074   6.382   2.011  1.2206 -0.2801  0.6401
 1289SOL     OW 4700   3.766   5.809   7.451 -0.4248  0.1378 -0.1737
 1289SOL    HW1 4701   3.682   5.854   7.440  0.4343  1.7830 -0.2153
 1289SOL    HW2 4702   3.829   5.879   7.467  0.7734 -1.1473  1.0018
 1290SOL     OW 4703   3.753   3.092   4.277  0.2740 -0.2891 -0.2044
 1290SOL    HW1 4704   3.712   3.009   4.255 -0.3585  0.6742 -3.1406
 1290SOL    HW2 4705   3.820   3.105   4.209 -0.7812  2.3193 -0.8719
 1291SOL     OW 4706   2.932   6.361   3.190 -0.5269 -0.0059 -0.2595
 1291SOL    HW1 4707   2.964   6.287   3.242  0.0856  1.3231  1.3619
 1291SOL    HW2 4708   2.935   6.330   3.100 -0.3989 -1.9807  0.3659
 1292SOL     OW 4709   0.770   3.002   1.187 -0.3839 -0.1120 -0.6030
 1292SOL    HW1 4710   0.703   3.053   1.234 -1.3579 -0.9046 -1.1009
 1292SOL    HW2 4711   0.720   2.939   1.136  0.7500 -0.5177 -1.2304
 1293SOL     OW 4712   5.032   7.813   0.768 -0.2102  0.0672  0.5379
 1293SOL    HW1 4713   4.954   7.777   0.811 -0.6127 -0.6396 -0.7489
 1293SOL    HW2 4714   5.004   7.900   0.739 -0.9093 -0.6173 -0.9194
 1294SOL     OW 4715   2.574   0.001   4.365 -0.1405  0.3038  0.1348
 1294SOL    HW1 4716   2.514  -0.073   4.369  0.2970 -0.0971 -0.6202
 1294SOL    HW2 4717   2.607   0.001   4.276  2.1126 -0.4120  0.8840
 1295SOL     OW 4718   5.382   2.366   3.311 -0.6625 -0.3441  0.6723
 1295SOL    HW1 4719   5.328   2.290   3.332 -1.0108 -0.6247 -1.1115
 1295SOL    HW2 4720   5.344   2.437   3.364 -0.1091 -1.4491  2.6104
 1296SOL     OW 4721   5.292   2.033   5.902  0.0717  0.8356  0.8555
 1296SOL    HW1 4722   5.358   2.073   5.846 -0.5300  2.1399  1.0428
 1296SOL    HW2 4723   5.231   2.104   5.921 -2.5754 -0.7309 -1.0163
 1297SOL     OW 4724   0.792   6.439   6.927 -0.2312  0.2509 -0.3998
 1297SOL    HW1 4725   0.797   6.469   6.836  0.0510 -0.6850 -0.7053
 1297SOL    HW2 4726   0.729   6.367   6.925 -0.0591  0.0852  0.1093
 1298SOL     OW 4727   7.604   1.067   6.232  0.2687  0.7803  0.0959
 1298SOL    HW1 4728   7.601   1.157   6.264  0.9558  1.3267 -1.2829
 1298SOL    HW2 4729   7.534   1.063   6.167 -0.7787 -0.1593  1.2258
 1299SOL     OW 4730   0.337   5.328   3.464 -0.2616  0.1636  0.1069
 1299SOL    HW1 4731   0.360   5.419   3.477 -2.5758  0.8966 -0.4164
 1299SOL    HW2 4732   0.253   5.317   3.509  0.3736 -1.9462  0.8975
 1300SOL     OW 4733   6.140   4.055   1.615 -0.5965 -0.2404  0.0763
 1300SOL    HW1 4734   6.069   3.998   1.645 -0.8678 -0.4312 -0.9199
 1300SOL    HW2 4735   6.110   4.143   1.635 -0.7561 -0.3620  0.3951
 1301SOL     OW 4736   1.275   3.762   0.166 -0.0230 -0.1486 -0.5059
 1301SOL    HW1 4737   1.281   3.781   0.259  0.3961 -0.8104 -0.3908
 1301SOL    HW2 4738   1.347   3.701   0.149 -1.0244 -1.2622 -0.9383
 1302SOL     OW 4739   1.909   2.084   3.553 -0.2668 -0.0474  0.1088
 1302SOL    HW1 4740   1.975   2.047   3.612 -0.1451  0.3667  0.2380
 1302SOL    HW2 4741   1.959   2.110   3.475 -0.5451 -1.3239 -0.5227
 1303SOL     OW 4742   6.414   2.688   6.067  0.1631  0.1988 -0.5165
 1303SOL    HW1 4743   6.337   2.743   6.081  1.0004  1.5582 -1.0444
 1303SOL    HW2 4744   6.425   2.641   6.150 -0.7702  0.5958 -0.1558
 1304SOL     OW 4745   6.957   7.196   7.325  0.4283  0.0797 -0.0919
 1304SOL    HW1 4746   6.893   7.151   7.269 -1.5887  1.0281  1.3100
 1304SOL    HW2 4747   6.988   7.128   7.386  0.3671 -0.2792 -0.4612
 1305SOL     OW 4748   3.597   1.780   3.831 -0.3546  0.5276  0.1544
 1305SOL    HW1 4749   3.631   1.806   3.746  0.2206 -1.5539 -0.3204
 1305SOL    HW2 4750   3.653   1.706   3.858 -2.9960 -1.5389  0.4143
 1306SOL     OW 4751   6.737   2.116   4.424 -0.3049  0.1499  0.4392
 1306SOL    HW1 4752   6.730   2.027   4.459 -1.3539 -0.1848 -0.5442
 1306SOL    HW2 4753   6.647   2.150   4.429 -0.4774  0.1378 -1.7237
 1307SOL     OW 4754   0.177   1.075   4.521 -0.2620  0.1277  0.2582
 1307SOL    HW1 4755   0.106   1.012   4.536  0.1137  0.2760  3.3107
 1307SOL    HW2 4756   0.252   1.021   4.497 -0.8255 -0.2106 -0.8226
 1308SOL     OW 4757   1.916   3.387   6.824 -0.0471 -0.2719 -0.2902
 1308SOL    HW1 4758   1.836   3.337   6.842 -2.2443  3.1082  0.3486
 1308SOL    HW2 4759   1.967   3.380   6.904 -1.9881  1.2089  1.1941
 1309SOL     OW 4760   1.433   0.107   1.447 -0.0959 -0.1465 -0.0245
 1309SOL    HW1 4761   1.372   0.166   1.402 -0.2061 -0.8534 -0.8286
 1309SOL    HW2 4762   1.500   0.088   1.381 -0.0928 -0.9609  0.2096
 1310SOL     OW 4763   5.527   7.278   2.409  0.1275 -0.0404 -0.0995
 1310SOL    HW1 4764   5.609   7.291   2.457 -0.1008 -0.2233  0.3480
 1310SOL    HW2 4765   5.554   7.239   2.326  0.5070  0.0505 -0.0229
 1311SOL     OW 4766   5.542   5.937   7.264  0.0734  0.2023 -0.0022
 1311SOL    HW1 4767   5.502   6.004   7.208 -0.9205 -0.1439  0.2559
 1311SOL    HW2 4768   5.607   5.984   7.316  0.7017  0.6051 -1.1432
 1312SOL     OW 4769   2.057   7.853   5.190 -0.2968  0.0315  0.2462
 1312SOL    HW1 4770   2.059   7.811   5.104 -1.4349  0.2869  0.0740
 1312SOL    HW2 4771   1.966   7.881   5.200  0.0652  0.9580  1.0748
 1313SOL     OW 4772   1.760   7.170   3.609  0.0347 -0.7470  0.0277
 1313SOL    HW1 4773   1.845   7.197   3.574 -0.7888 -0.8897 -2.2614
 1313SOL    HW2 4774   1.766   7.187   3.703  1.7756  1.4408 -0.3954
 1314SOL     OW 4775   7.705   6.716   1.965  0.3448 -0.2230 -0.7309
 1314SOL    HW1 4776   7.795   6.713   1.933  0.7672 -3.5244  0.2742
 1314SOL    HW2 4777   7.661   6.646   1.917 -1.0713 -0.0975  0.3337
 1315SOL     OW 4778   6.744   4.369   2.787  0.1883 -0.0542  0.3903
 1315SOL    HW1 4779   6.732   4.352   2.694 -0.4198  0.5347  0.3599
 1315SOL    HW2 4780   6.679   4.313   2.830 -0.7799  1.0338  0.3644
 1316SOL     OW 4781   5.101   4.007   0.354  0.2265 -1.0901 -0.0324
 1316SOL    HW1 4782   5.095   4.045   0.441 -2.1296 -1.0552 -0.1366
 1316SOL    HW2 4783   5.118   3.914   0.369  1.6177 -0.7933  0.3652
 1317SOL     OW 4784   0.323   4.727   5.531  0.4438  0.0199  0.3319
 1317SOL    HW1 4785   0.310   4.821   5.544  1.8033  0.2520  0.1175
 1317SOL    HW2 4786   0.416   4.712   5.550  0.3060 -1.2372  0.1156
 1318SOL     OW 4787   4.530   6.698   5.797  0.1664 -0.1439 -0.4634
 1318SOL    HW1 4788   4.582   6.695   5.716  0.7236 -0.8553 -0.0922
 1318SOL    HW2 4789   4.587   6.659   5.863  0.3589  1.8885  0.6507
 1319SOL     OW 4790   7.714   2.058   1.515 -0.0201  0.3054 -0.5030
 1319SOL    HW1 4791   7.795   2.009   1.527 -1.0864 -1.2649  0.8795
 1319SOL    HW2 4792   7.696   2.097   1.601 -0.3847  1.2081 -0.9756
 1320SOL     OW 4793   7.677   3.422   2.071  0.2446 -0.5942 -0.1400
 1320SOL    HW1 4794   7.691   3.476   2.149  0.5707  0.6860 -1.0595
 1320SOL    HW2 4795   7.765   3.398   2.042  0.1265 -0.9812 -0.1905
 1321SOL     OW 4796   3.379   0.104   2.644  0.2676  0.4438 -0.5937
 1321SOL    HW1 4797   3.378   0.093   2.549  1.6020  0.3340 -0.6267
 1321SOL    HW2 4798   3.416   0.191   2.657 -0.2122  0.5853 -0.1796
 1322SOL     OW 4799   0.330   4.303   7.800 -0.1281 -0.1584 -0.0635
 1322SOL    HW1 4800   0.418   4.270   7.782 -0.0450 -0.0338  0.1093
 1322SOL    HW2 4801   0.286   4.231   7.846  0.1032  0.0223  0.4513
 1323SOL     OW 4802   1.797   7.317   2.313 -0.0483 -0.0754 -0.2086
 1323SOL    HW1 4803   1.787   7.412   2.325 -2.7086 -0.5225  1.8617
 1323SOL    HW2 4804   1.756   7.300   2.228 -0.3828  0.4897 -0.1639
 1324SOL     OW 4805   6.667   6.083   5.287 -0.1747 -0.3673 -0.4194
 1324SOL    HW1 4806   6.744   6.116   5.241  2.0253 -3.4510  0.7350
 1324SOL    HW2 4807   6.618   6.034   5.220 -0.3408  0.3408 -0.8206
 1325SOL     OW 4808   2.425   2.686   6.147  0.5217  0.0030 -0.1455
 1325SOL    HW1 4809   2.442   2.601   6.106  2.4355  0.0574  0.4212
 1325SOL    HW2 4810   2.513   2.722   6.165 -0.2397  1.9195 -0.0028
 1326SOL     OW 4811   7.431   0.502   5.670 -0.1420 -0.0921 -0.0995
 1326SOL    HW1 4812   7.438   0.571   5.736  0.7173  0.4762 -0.7634
 1326SOL    HW2 4813   7.459   0.423   5.715 -1.9368 -0.2046  0.9130
 1327SOL     OW 4814   6.374   5.837   1.148  0.0441 -0.6693 -0.1497
 1327SOL    HW1 4815   6.373   5.742   1.153  1.0866 -0.8498 -2.4980
 1327SOL    HW2 4816   6.434   5.858   1.077 -0.3349  1.7570  0.1371
 1328SOL     OW 4817   3.769   6.673   0.520 -0.9215 -0.0510 -0.1996
 1328SOL    HW1 4818   3.812   6.756   0.539 -1.9480  0.2163  1.1631
 1328SOL    HW2 4819   3.840   6.609   0.514 -0.2218  0.6755  0.2665
 1329SOL     OW 4820   1.028   2.721   1.460 -0.5203 -0.0282  0.4149
 1329SOL    HW1 4821   0.936   2.716   1.486 -0.7083  2.1087  0.3515
 1329SOL    HW2 4822   1.045   2.815   1.450  2.1799 -0.2198  2.1805
 1330SOL     OW 4823   4.549   0.007   0.022 -0.1138 -0.5239 -0.0790
 1330SOL    HW1 4824   4.602   0.017  -0.057 -0.2796 -0.2725 -0.1585
 1330SOL    HW2 4825   4.609   0.029   0.093  0.9230 -3.5360  0.1270
 1331SOL     OW 4826   4.577   2.352   0.739  0.3815  0.1287 -0.0151
 1331SOL    HW1 4827   4.542   2.328   0.825 -0.6578 -1.0423 -0.7391
 1331SOL    HW2 4828   4.647   2.288   0.723  0.9244  0.6677  0.1716
 1332SOL     OW 4829   3.823   0.843   1.172  0.4921  0.0199  0.0566
 1332SOL    HW1 4830   3.906   0.885   1.193  0.3776 -0.2115  1.0063
 1332SOL    HW2 4831   3.822   0.837   1.076  1.4850  0.1878  0.0320
 1333SOL     OW 4832   4.274   2.500   6.745  0.2305 -0.2352 -0.3653
 1333SOL    HW1 4833   4.248   2.450   6.668  1.8585 -1.4296 -0.1978
 1333SOL    HW2 4834   4.205   2.567   6.755 -0.8772 -1.0898 -1.8520
 1334SOL     OW 4835   6.125   4.079   7.159  0.1231 -0.1047 -0.2917
 1334SOL    HW1 4836   6.119   3.998   7.110 -3.5575  0.9915 -2.0499
 1334SOL    HW2 4837   6.200   4.125   7.122  1.0675 -1.8158 -0.6042
 1335SOL     OW 4838   2.686   4.335   3.586 -0.3826 -0.4110 -0.6185
 1335SOL    HW1 4839   2.654   4.260   3.536  1.0851 -0.0651 -2.1719
 1335SOL    HW2 4840   2.780   4.319   3.595 -0.3986  0.2059  0.9268
 1336SOL     OW 4841   5.703   0.270   6.655 -0.7713 -0.3289  0.3248
 1336SOL    HW1 4842   5.759   0.281   6.578 -0.4769 -0.0660  0.5748
 1336SOL    HW2 4843   5.744   0.323   6.723 -2.2061  1.1797  0.0710
 1337SOL     OW 4844   3.785   4.843   7.530  0.3656 -0.2114 -0.5525
 1337SOL    HW1 4845   3.752   4.932   7.513  1.0030  0.2616  0.6131
 1337SOL    HW2 4846   3.724   4.807   7.594  1.1507  0.0662  0.3676
 1338SOL     OW 4847   1.915   5.362   5.259 -0.2034 -0.1834 -0.1175
 1338SOL    HW1 4848   1.825   5.352   5.230 -0.0906  1.9321 -1.3951
 1338SOL    HW2 4849   1.930   5.457   5.260  2.3418 -0.4800 -1.1396
 1339SOL     OW 4850   2.398   0.570   6.248 -0.1803  0.2333  0.5928
 1339SOL    HW1 4851   2.456   0.639   6.281 -0.2269  0.4985  0.1275
 1339SOL    HW2 4852   2.333   0.557   6.318 -0.0406  0.5047  0.7722
 1340SOL     OW 4853   2.808   2.061   2.920 -0.1557 -0.3748  0.3940
 1340SOL    HW1 4854   2.802   2.075   2.826 -1.1143 -0.3727  0.4410
 1340SOL    HW2 4855   2.901   2.046   2.937 -0.1041 -1.3883 -0.6897
 1341SOL     OW 4856   5.096   5.918   6.996  0.2883  0.3012  0.7251
 1341SOL    HW1 4857   5.119   5.829   7.025  1.2558  0.1665 -0.3754
 1341SOL    HW2 4858   5.143   5.929   6.913 -1.5291  1.0546 -0.2781
 1342SOL     OW 4859   5.468   3.142   7.895 -0.2325  0.3642 -0.3716
 1342SOL    HW1 4860   5.439   3.226   7.931  0.0575 -0.7612  2.7000
 1342SOL    HW2 4861   5.563   3.150   7.887  0.0519 -0.2380  1.7774
 1343SOL     OW 4862   7.121   2.544   5.748  0.1127  0.1150  0.6194
 1343SOL    HW1 4863   7.119   2.565   5.654  0.5282 -1.2947  0.2739
 1343SOL    HW2 4864   7.096   2.452   5.752  1.0938 -0.1137  1.8189
 1344SOL     OW 4865   3.278   4.370   2.415 -0.0697  0.2178  0.1724
 1344SOL    HW1 4866   3.365   4.330   2.407  0.4167  1.3832 -0.7394
 1344SOL    HW2 4867   3.280   4.416   2.499 -0.1887 -0.6220  0.6411
 1345SOL     OW 4868   7.503   6.001   6.065  0.1475  0.2450 -0.2106
 1345SOL    HW1 4869   7.448   5.936   6.024 -0.3696  0.3231  0.3428
 1345SOL    HW2 4870   7.584   5.954   6.087 -0.1868 -0.1876  0.1062
 1346SOL     OW 4871   6.285   6.803   5.632  0.1090  0.6603  0.1405
 1346SOL    HW1 4872   6.274   6.842   5.719 -0.6754 -1.6823  1.1736
 1346SOL    HW2 4873   6.379   6.790   5.623  0.1127 -0.0924  1.1429
 1347SOL     OW 4874   1.716   0.485   3.101 -0.0559 -0.7625  0.6313
 1347SOL    HW1 4875   1.656   0.418   3.069  0.6615 -1.4377  0.6701
 1347SOL    HW2 4876   1.795   0.437   3.126  0.9614  0.2181 -0.5444
 1348SOL     OW 4877   4.772   4.598   6.213  0.1603 -0.1001  0.1338
 1348SOL    HW1 4878   4.833   4.657   6.256 -0.4416  0.0612  0.7754
 1348SOL    HW2 4879   4.750   4.642   6.131  0.6864 -0.0345  0.0225
 1349SOL     OW 4880   0.229   1.804   3.732  0.0486 -0.2980  0.0407
 1349SOL    HW1 4881   0.272   1.750   3.798 -0.1105 -1.8974 -1.1186
 1349SOL    HW2 4882   0.136   1.784   3.741  0.0314 -0.5950 -0.6932
 1350SOL     OW 4883   2.580   7.497   7.866  0.1093 -0.5958 -0.2164
 1350SOL    HW1 4884   2.503   7.454   7.829  0.2280 -0.3510 -0.7441
 1350SOL    HW2 4885   2.554   7.589   7.877  0.1281 -0.6326  0.1571
 1351SOL     OW 4886   4.451   5.202   4.161 -0.4170 -0.1432  0.1146
 1351SOL    HW1 4887   4.393   5.129   4.138 -0.9014  0.4259 -0.5252
 1351SOL    HW2 4888   4.406   5.280   4.126  1.0867  0.2436 -1.0774
 1352SOL     OW 4889   1.801   0.871   3.324 -0.0314  0.4330  0.1479
 1352SOL    HW1 4890   1.792   0.936   3.254 -0.2162  1.1294  0.7902
 1352SOL    HW2 4891   1.723   0.886   3.379  0.1336 -0.0692  0.5177
 1353SOL     OW 4892   7.939   5.004   5.387 -0.4322  0.2047  0.4320
 1353SOL    HW1 4893   7.912   4.982   5.298  1.8808 -0.1733 -0.2558
 1353SOL    HW2 4894   7.858   5.005   5.438 -1.7127 -0.4054 -1.4926
 1354SOL     OW 4895   7.456   2.512   3.910 -0.5421  0.8492 -0.0022
 1354SOL    HW1 4896   7.424   2.578   3.849 -0.7292  1.2727  0.5431
 1354SOL    HW2 4897   7.408   2.528   3.991 -1.8439 -1.0395 -0.3312
 1355SOL     OW 4898   3.859   5.226   2.877  0.6352  0.0482 -0.1611
 1355SOL    HW1 4899   3.841   5.189   2.791  2.6332  0.0731 -0.6297
 1355SOL    HW2 4900   3.833   5.318   2.869  2.0724  0.3958 -1.2095
 1356SOL     OW 4901   2.365   6.614   0.984  0.0658 -0.1963 -0.1416
 1356SOL    HW1 4902   2.408   6.658   0.911 -1.3321 -0.9208 -1.4644
 1356SOL    HW2 4903   2.323   6.537   0.945 -0.5196 -0.7508  1.4731
 1357SOL     OW 4904   5.684   6.796   7.137 -0.3853  0.6078 -0.0492
 1357SOL    HW1 4905   5.610   6.857   7.141  0.2591  1.4233 -0.1063
 1357SOL    HW2 4906   5.646   6.713   7.111 -1.2246  1.1201 -0.5066
 1358SOL     OW 4907   7.545   0.541   5.165  0.5062  0.6899 -0.2098
 1358SOL    HW1 4908   7.551   0.515   5.257  0.1706  1.3007 -0.0044
 1358SOL    HW2 4909   7.571   0.633   5.165 -1.2105  1.2060 -0.4502
 1359SOL     OW 4910   7.729   4.248   6.691  0.3525  0.5622 -0.5030
 1359SOL    HW1 4911   7.760   4.240   6.601  1.1550 -2.2616 -0.0563
 1359SOL    HW2 4912   7.783   4.317   6.729  0.7222  1.0564 -1.8503
 1360SOL     OW 4913   7.346   3.749   3.758 -0.2372  0.2604  0.0574
 1360SOL    HW1 4914   7.264   3.786   3.792  0.5833  1.5757  0.6825
 1360SOL    HW2 4915   7.322   3.661   3.729 -2.6461  1.7397 -2.9636
 1361SOL     OW 4916   5.737   7.227   0.835  0.2286 -0.0475  0.3876
 1361SOL    HW1 4917   5.744   7.316   0.799  0.0329  0.1544  0.8395
 1361SOL    HW2 4918   5.712   7.173   0.760 -0.1127  0.3589  0.2015
 1362SOL     OW 4919   5.851   6.978   0.502 -0.3146 -0.0589 -0.2527
 1362SOL    HW1 4920   5.932   6.930   0.485 -0.9337 -0.2552 -3.1081
 1362SOL    HW2 4921   5.810   6.932   0.575  1.6187 -0.5678  0.5665
 1363SOL     OW 4922   6.808   6.774   2.123 -0.7585  0.3256 -0.1818
 1363SOL    HW1 4923   6.773   6.715   2.190 -0.7091  0.2481 -0.2230
 1363SOL    HW2 4924   6.846   6.846   2.172 -0.3510  0.0655 -0.1080
 1364SOL     OW 4925   6.545   5.017   7.852  0.4294  0.0740  0.0090
 1364SOL    HW1 4926   6.615   5.068   7.810  1.0092  0.4470  1.3688
 1364SOL    HW2 4927   6.465   5.065   7.832  0.8368  0.9121  0.3283
 1365SOL     OW 4928   4.053   4.168   7.466  0.6094 -0.2136  0.1580
 1365SOL    HW1 4929   3.960   4.182   7.482  0.2694 -1.9566 -0.1276
 1365SOL    HW2 4930   4.062   4.074   7.457  1.8418  0.0882 -3.2379
 1366SOL     OW 4931   3.733   0.864   6.268  0.4628  0.4337  0.0567
 1366SOL    HW1 4932   3.664   0.926   6.241 -0.0739 -0.0603  0.2634
 1366SOL    HW2 4933   3.808   0.887   6.214 -0.2462  0.1956 -1.0547
 1367SOL     OW 4934   2.560   1.535   1.454  0.4899 -0.6698 -0.1649
 1367SOL    HW1 4935   2.573   1.624   1.420  0.0833 -1.1762 -1.7052
 1367SOL    HW2 4936   2.524   1.549   1.542 -1.5853  0.7528 -1.1426
 1368SOL     OW 4937   5.702   4.180   4.541 -0.4667 -0.1301  0.2719
 1368SOL    HW1 4938   5.733   4.271   4.549 -0.0593 -0.3316  1.2039
 1368SOL    HW2 4939   5.694   4.165   4.447  0.1792  0.6391  0.0832
 1369SOL     OW 4940   0.319   4.194   6.086  0.3910  0.0724 -0.0857
 1369SOL    HW1 4941   0.275   4.109   6.091 -0.2566  0.3818 -0.4496
 1369SOL    HW2 4942   0.314   4.219   5.994  0.1672  0.7217  0.0953
 1370SOL     OW 4943   5.956   4.130   3.920 -0.0511  0.0527  0.2990
 1370SOL    HW1 4944   6.020   4.067   3.886 -0.7362 -0.4745 -0.0367
 1370SOL    HW2 4945   5.987   4.150   4.009  0.3959 -0.4506  0.2639
 1371SOL     OW 4946   2.697   3.167   6.267 -0.0175  0.2316  0.0449
 1371SOL    HW1 4947   2.733   3.216   6.340 -0.6348  0.7512  0.0067
 1371SOL    HW2 4948   2.608   3.144   6.294  0.0180 -0.2553 -0.2268
 1372SOL     OW 4949   5.667   0.692   4.832  0.0258 -0.3816  0.0712
 1372SOL    HW1 4950   5.643   0.602   4.808  0.0916 -0.1213 -1.0348
 1372SOL    HW2 4951   5.721   0.722   4.759 -0.9542  0.9538 -0.1350
 1373SOL     OW 4952   5.331   5.873   0.569  0.3212  0.3467 -0.4234
 1373SOL    HW1 4953   5.282   5.895   0.648 -1.0856 -2.9167 -0.2304
 1373SOL    HW2 4954   5.403   5.818   0.601  0.8112  0.5186 -1.2318
 1374SOL     OW 4955   5.728   7.884   0.550 -0.1631 -0.1873 -0.0269
 1374SOL    HW1 4956   5.780   7.811   0.518  0.3986  0.0417  0.3490
 1374SOL    HW2 4957   5.744   7.886   0.644 -2.1176 -1.1042  0.3743
 1375SOL     OW 4958   4.115   4.097   7.913  0.3917  0.1215 -0.5494
 1375SOL    HW1 4959   4.194   4.080   7.964 -0.2084 -0.2707  0.2583
 1375SOL    HW2 4960   4.045   4.053   7.960 -0.2574  0.1259 -1.4746
 1376SOL     OW 4961   6.320   1.600   3.739 -0.0540  0.1041 -0.0711
 1376SOL    HW1 4962   6.229   1.583   3.715 -0.2371  1.2283 -0.2189
 1376SOL    HW2 4963   6.365   1.611   3.655  0.2927 -0.7524 -0.0086
 1377SOL     OW 4964   1.296   2.663   1.598 -0.3819  0.0515 -0.2705
 1377SOL    HW1 4965   1.265   2.727   1.661  1.0415  0.9870 -0.4784
 1377SOL    HW2 4966   1.258   2.691   1.514  0.2225  0.6221 -0.3568
 1378SOL     OW 4967   5.127   1.736   6.946  0.2374 -0.2054 -0.0491
 1378SOL    HW1 4968   5.219   1.713   6.945 -0.0624 -1.4204 -0.3139
 1378SOL    HW2 4969   5.085   1.674   6.886 -0.8387 -0.0859  0.5546
 1379SOL     OW 4970   1.774   5.908   6.176  0.2004 -0.3961  0.2017
 1379SOL    HW1 4971   1.832   5.960   6.232  2.4826 -2.6398  0.1151
 1379SOL    HW2 4972   1.800   5.931   6.087 -2.6084  2.2790 -0.0787
 1380SOL     OW 4973   7.601   1.645   0.817 -0.4927 -0.5063  0.0941
 1380SOL    HW1 4974   7.680   1.593   0.800 -0.4518 -0.7744  1.0302
 1380SOL    HW2 4975   7.630   1.736   0.806 -0.3787 -0.6476 -0.8155
 1381SOL     OW 4976   4.987   7.525   1.384 -0.1553 -0.2627  0.4880
 1381SOL    HW1 4977   5.056   7.551   1.445  1.5318 -0.7978 -1.1147
 1381SOL    HW2 4978   5.009   7.436   1.359  0.4470  0.6214 -2.4749
 1382SOL     OW 4979   1.036   3.591   6.395  0.4192 -0.0632  0.3164
 1382SOL    HW1 4980   1.059   3.516   6.340  0.3830 -2.7769  3.6389
 1382SOL    HW2 4981   0.963   3.634   6.350  0.7105 -1.7373 -1.9100
 1383SOL     OW 4982   4.666   1.449   6.101  0.2087 -0.4548  0.2375
 1383SOL    HW1 4983   4.636   1.466   6.190  1.1387 -0.5512  0.5744
 1383SOL    HW2 4984   4.585   1.435   6.051 -0.3018 -0.7872  1.1404
 1384SOL     OW 4985   5.336   6.244   6.819 -0.7608  0.2662 -0.0511
 1384SOL    HW1 4986   5.419   6.271   6.782 -0.3226 -0.5869  0.2771
 1384SOL    HW2 4987   5.271   6.302   6.779 -0.2450 -0.2562 -1.7280
 1385SOL     OW 4988   0.789   5.166   3.560  0.1571  0.3471  0.2772
 1385SOL    HW1 4989   0.774   5.211   3.642 -1.4227  1.3583 -0.5147
 1385SOL    HW2 4990   0.713   5.108   3.550 -0.0739  0.8140 -0.8275
 1386SOL     OW 4991   3.923   7.583   7.124  0.2261 -0.6580 -0.4527
 1386SOL    HW1 4992   3.961   7.560   7.040 -1.0046  0.5044 -1.3731
 1386SOL    HW2 4993   3.978   7.654   7.157  0.0293 -0.3365 -0.8211
 1387SOL     OW 4994   5.439   4.592   6.217  0.6663 -0.2254  0.1499
 1387SOL    HW1 4995   5.398   4.506   6.209  0.2563  0.0626 -1.1357
 1387SOL    HW2 4996   5.480   4.606   6.131  0.2041  1.1127  0.1307
 1388SOL     OW 4997   3.923   2.431   3.538  0.4570  0.0181 -0.2940
 1388SOL    HW1 4998   3.980   2.354   3.550  0.2794 -0.0117  0.3698
 1388SOL    HW2 4999   3.974   2.504   3.573  0.3281  0.0854 -0.2485
 1389SOL     OW 5000   4.989   1.852   3.028  0.3136  0.1163  0.2100
 1389SOL    HW1 5001   4.903   1.815   3.006  0.9701 -0.0998 -2.1995
 1389SOL    HW2 5002   5.001   1.831   3.121 -1.5960 -1.1109  0.2237
 1390SOL     OW 5003   4.807   0.835   2.180 -0.1523  0.6551  0.1427
 1390SOL    HW1 5004   4.739   0.849   2.245 -0.5152 -2.6988  0.6526
 1390SOL    HW2 5005   4.794   0.746   2.149  1.5300  1.2632 -2.7854
 1391SOL     OW 5006   7.874   0.093   5.067 -0.1540  0.0077  0.4220
 1391SOL    HW1 5007   7.897   0.118   5.157 -0.8219 -0.6545  0.7842
 1391SOL    HW2 5008   7.847   0.176   5.026  2.5892  0.8156  0.0155
 1392SOL     OW 5009   7.163   4.677   3.740  0.2070  0.0421  0.1632
 1392SOL    HW1 5010   7.068   4.664   3.740  0.3273 -1.0067 -0.8510
 1392SOL    HW2 5011   7.176   4.760   3.695 -0.1731 -0.5554 -1.1041
 1393SOL     OW 5012   1.972   7.852   7.418 -0.2725 -0.1790  0.1376
 1393SOL    HW1 5013   2.011   7.767   7.436 -1.2027 -0.4168  1.1496
 1393SOL    HW2 5014   1.933   7.844   7.332  0.2108 -0.5566 -0.0507
 1394SOL     OW 5015   7.411   7.933   7.224 -0.7151 -0.4976 -0.5662
 1394SOL    HW1 5016   7.360   7.866   7.178  0.4583 -0.7965 -1.4613
 1394SOL    HW2 5017   7.496   7.892   7.240 -0.1060  0.6371 -0.7874
 1395SOL     OW 5018   6.791   1.266   7.566 -0.8677  0.2997  0.0867
 1395SOL    HW1 5019   6.766   1.333   7.630  0.1030 -0.2279  1.0676
 1395SOL    HW2 5020   6.887   1.262   7.572 -0.8926 -1.0936 -0.0112
 1396SOL     OW 5021   1.647   4.131   5.108 -0.4719 -0.4034  0.0029
 1396SOL    HW1 5022   1.729   4.181   5.104 -0.6699  0.0249  1.0155
 1396SOL    HW2 5023   1.597   4.161   5.032 -0.3052  0.4384  0.2126
 1397SOL     OW 5024   2.792   3.370   6.460  0.1613 -0.0098 -0.0791
 1397SOL    HW1 5025   2.738   3.347   6.535  0.5481 -0.1134  0.1722
 1397SOL    HW2 5026   2.859   3.428   6.496  1.5351 -1.6063  0.0635
 1398SOL     OW 5027   4.187   7.890   3.277 -0.2341  0.2097  0.3348
 1398SOL    HW1 5028   4.138   7.855   3.203 -1.3448  0.5015  0.9049
 1398SOL    HW2 5029   4.127   7.952   3.318  0.1183 -0.4023  1.8469
 1399SOL     OW 5030   2.442   5.807   3.406 -0.2441 -0.2177 -0.5212
 1399SOL    HW1 5031   2.468   5.828   3.317 -2.1091  2.5609 -0.5381
 1399SOL    HW2 5032   2.349   5.786   3.400 -0.5388  0.5575  0.7974
 1400SOL     OW 5033   1.799   2.939   6.857  0.5036 -0.3613 -0.3076
 1400SOL    HW1 5034   1.743   2.916   6.930 -1.0474  0.2402 -1.2711
 1400SOL    HW2 5035   1.887   2.943   6.895 -0.2589 -0.0348  1.5143
 1401SOL     OW 5036   1.940   1.400   5.215  0.3542  0.0591  0.4952
 1401SOL    HW1 5037   1.881   1.445   5.155  0.5482 -1.9798 -1.3227
 1401SOL    HW2 5038   1.886   1.382   5.292 -0.7784  0.0980 -0.2657
 1402SOL     OW 5039   6.065   2.005   2.082  0.0479 -0.3462  0.0340
 1402SOL    HW1 5040   5.983   2.042   2.049  0.4877  0.0356 -0.6683
 1402SOL    HW2 5041   6.077   2.044   2.168 -0.1012  0.2156 -0.1996
 1403SOL     OW 5042   4.414   4.686   2.949  0.2635  0.8850  0.0216
 1403SOL    HW1 5043   4.321   4.676   2.926 -0.0863 -1.8515  2.1532
 1403SOL    HW2 5044   4.461   4.658   2.870 -0.7321  1.0331 -0.6496
 1404SOL     OW 5045   2.996   0.378   3.961  0.1140  0.1693  0.3580
 1404SOL    HW1 5046   2.916   0.429   3.952 -0.8078 -1.2227  0.3517
 1404SOL    HW2 5047   3.045   0.396   3.881 -0.9114 -0.1530 -0.3617
 1405SOL     OW 5048   7.686   6.680   0.406 -0.0801 -0.2421  0.5356
 1405SOL    HW1 5049   7.743   6.607   0.380 -2.1643 -1.7304 -0.1556
 1405SOL    HW2 5050   7.715   6.702   0.494  2.3187 -0.1110 -0.2365
 1406SOL     OW 5051   3.442   2.282   7.146  0.2127 -0.3512  0.5494
 1406SOL    HW1 5052   3.487   2.296   7.229  1.3402 -0.5573 -0.0092
 1406SOL    HW2 5053   3.486   2.341   7.085 -1.2207  0.4892  0.2951
 1407SOL     OW 5054   2.264   6.014   4.320 -0.7766  0.5351 -0.5755
 1407SOL    HW1 5055   2.207   6.090   4.327 -2.0035 -0.0708 -2.9477
 1407SOL    HW2 5056   2.237   5.970   4.240  1.5815 -1.0364 -0.6371
 1408SOL     OW 5057   2.342   2.630   5.344 -0.0988 -0.4119 -0.1793
 1408SOL    HW1 5058   2.305   2.636   5.257 -1.9015 -0.4703  0.5530
 1408SOL    HW2 5059   2.337   2.719   5.379  2.7605  0.1429 -0.9043
 1409SOL     OW 5060   4.939   2.875   1.456 -0.3175  0.0395 -0.2781
 1409SOL    HW1 5061   4.914   2.906   1.369  0.4264 -0.9649 -0.8662
 1409SOL    HW2 5062   4.896   2.790   1.465 -1.9162  0.9151  1.1170
 1410SOL     OW 5063   3.911   1.098   0.898  0.1481 -0.3263  0.4279
 1410SOL    HW1 5064   3.965   1.140   0.964  1.2001 -0.8103 -0.1073
 1410SOL    HW2 5065   3.972   1.049   0.844 -0.7691 -0.5003 -0.4912
 1411SOL     OW 5066   6.427   5.091   2.962 -0.2992 -0.2277 -0.0845
 1411SOL    HW1 5067   6.420   5.063   2.871 -0.2165 -1.6195  0.3260
 1411SOL    HW2 5068   6.355   5.153   2.974  0.3808  0.8773 -1.4002
 1412SOL     OW 5069   1.406   1.563   3.405  0.1410  0.0069 -0.6639
 1412SOL    HW1 5070   1.497   1.591   3.394  0.4358  0.2112  1.8395
 1412SOL    HW2 5071   1.395   1.551   3.499 -1.9057 -1.8461 -1.0417
 1413SOL     OW 5072   6.914   7.794   7.780 -0.3953  1.1329 -0.2056
 1413SOL    HW1 5073   6.850   7.743   7.729  0.1387  1.2322 -1.0044
 1413SOL    HW2 5074   6.982   7.816   7.716  1.6062 -0.9160  1.1222
 1414SOL     OW 5075   1.329   0.376   2.713 -0.2171 -0.1624 -0.1645
 1414SOL    HW1 5076   1.311   0.285   2.690  1.4914 -0.5571 -0.0611
 1414SOL    HW2 5077   1.370   0.414   2.635 -0.2750  0.3138  0.0300
 1415SOL     OW 5078   1.104   3.468   2.249  0.7342  0.1744  0.1427
 1415SOL    HW1 5079   1.112   3.415   2.329  0.1877  0.2085  0.2260
 1415SOL    HW2 5080   1.010   3.482   2.240  0.4385 -2.5594 -2.3045
 1416SOL     OW 5081   1.958   3.236   7.738  0.0093 -0.1486 -0.0262
 1416SOL    HW1 5082   1.886   3.191   7.782  2.2321 -1.7990  2.2036
 1416SOL    HW2 5083   1.985   3.305   7.800  1.1124 -0.3701 -0.2417
 1417SOL     OW 5084   7.188   7.011   4.179 -0.4747 -0.4538  0.4833
 1417SOL    HW1 5085   7.282   6.995   4.172 -0.0684  1.2769  1.4039
 1417SOL    HW2 5086   7.155   6.938   4.232 -0.1741 -2.5476 -1.9890
 1418SOL     OW 5087   4.376   2.245   5.567  0.1127 -0.2356  0.1278
 1418SOL    HW1 5088   4.299   2.300   5.584 -0.4059 -0.4024 -1.5128
 1418SOL    HW2 5089   4.381   2.187   5.643  1.4293  2.7963  2.6327
 1419SOL     OW 5090   4.373   4.748   6.970 -0.4757 -0.3563  0.2133
 1419SOL    HW1 5091   4.405   4.767   6.882  0.0022 -0.5560  0.3418
 1419SOL    HW2 5092   4.445   4.701   7.013 -0.1290  1.0157  1.1966
 1420SOL     OW 5093   0.787   6.770   3.239  0.5338  0.3134  0.0139
 1420SOL    HW1 5094   0.705   6.816   3.256  0.4521 -0.4140  1.8522
 1420SOL    HW2 5095   0.801   6.717   3.317  0.7866 -2.5715 -1.8395
 1421SOL     OW 5096   0.328   1.595   6.176 -0.4261 -0.6226 -0.0159
 1421SOL    HW1 5097   0.320   1.670   6.235 -3.3082 -2.5127  2.3112
 1421SOL    HW2 5098   0.412   1.556   6.198  0.0973  0.6552  0.3357
 1422SOL     OW 5099   5.437   1.131   7.005 -0.4000 -0.3329  0.5957
 1422SOL    HW1 5100   5.527   1.101   7.016 -0.6145 -1.3192 -0.2141
 1422SOL    HW2 5101   5.409   1.157   7.093  0.8001  0.3933  0.7957
 1423SOL     OW 5102   3.948   1.830   7.045 -0.3806 -0.8768  0.7112
 1423SOL    HW1 5103   3.887   1.792   6.981  1.4367  0.5447 -2.0662
 1423SOL    HW2 5104   3.997   1.754   7.078 -0.8911 -1.5983 -0.1212
 1424SOL     OW 5105   0.655   7.332   5.772  0.0394 -0.7119  0.2010
 1424SOL    HW1 5106   0.648   7.427   5.780  0.8025 -0.5488 -0.8066
 1424SOL    HW2 5107   0.696   7.304   5.853 -2.7598 -0.5607  1.8107
 1425SOL     OW 5108   3.983   6.685   2.102  0.0497  0.3213  0.0052
 1425SOL    HW1 5109   4.033   6.760   2.071 -1.1688  1.0660 -0.1844
 1425SOL    HW2 5110   3.893   6.701   2.073 -0.0038 -1.9050 -1.3279
 1426SOL     OW 5111   6.736   1.394   6.030 -0.3834 -0.5036  0.3944
 1426SOL    HW1 5112   6.776   1.325   5.978 -1.2934 -0.0144 -1.0125
 1426SOL    HW2 5113   6.780   1.474   6.002 -0.5795 -0.2860  0.6961
 1427SOL     OW 5114   4.879   2.665   3.878  0.6425 -0.4953  0.4408
 1427SOL    HW1 5115   4.797   2.678   3.831  0.5818  0.6067  0.8273
 1427SOL    HW2 5116   4.939   2.630   3.812 -0.0974 -1.2190  0.1337
 1428SOL     OW 5117   2.493   0.935   3.598  0.2377 -0.0802 -0.3406
 1428SOL    HW1 5118   2.583   0.957   3.572 -0.4200  1.2829 -1.5959
 1428SOL    HW2 5119   2.458   0.886   3.524  0.4539 -2.2252  0.8772
 1429SOL     OW 5120   0.902   7.042   3.175  1.4436  0.0940 -0.0406
 1429SOL    HW1 5121   0.955   6.962   3.183 -0.0010 -0.8964  0.0210
 1429SOL    HW2 5122   0.824   7.014   3.126 -0.8378  0.4959  3.0279
 1430SOL     OW 5123   0.605   7.884   5.607  0.6869  0.2287  0.3572
 1430SOL    HW1 5124   0.527   7.887   5.552 -0.1527 -0.5337  1.4553
 1430SOL    HW2 5125   0.659   7.815   5.569 -0.2716 -0.8704  0.9387
 1431SOL     OW 5126   7.187   4.167   6.112 -0.1512 -0.3013  0.2987
 1431SOL    HW1 5127   7.274   4.130   6.098  0.5039  1.3493 -0.1847
 1431SOL    HW2 5128   7.146   4.164   6.025  1.1840  3.1228 -0.6137
 1432SOL     OW 5129   3.658   6.590   6.336 -0.5092 -0.1170 -0.0198
 1432SOL    HW1 5130   3.607   6.660   6.376 -0.1956  0.6494 -0.9155
 1432SOL    HW2 5131   3.705   6.633   6.264 -0.3989 -1.2726 -0.6613
 1433SOL     OW 5132   1.786   2.710   2.759  0.3504 -0.4116 -0.0131
 1433SOL    HW1 5133   1.737   2.628   2.760  0.0220 -0.2156  0.0822
 1433SOL    HW2 5134   1.724   2.776   2.789  0.9051 -0.2866  0.9279
 1434SOL     OW 5135   5.491   0.714   0.051  0.4668 -0.2533 -0.0400
 1434SOL    HW1 5136   5.511   0.651   0.120 -2.4964 -0.7472  0.4675
 1434SOL    HW2 5137   5.460   0.661  -0.022 -1.3702  0.5258  0.1325
 1435SOL     OW 5138   6.918   4.476   1.710  0.3752  0.6511 -0.6638
 1435SOL    HW1 5139   6.975   4.413   1.755 -0.5436  0.6866  0.5867
 1435SOL    HW2 5140   6.953   4.479   1.621  1.6193 -0.1865 -0.2438
 1436SOL     OW 5141   1.776   2.732   7.569 -0.5802 -0.2592 -0.1385
 1436SOL    HW1 5142   1.770   2.810   7.625  0.6212  0.2537 -0.6906
 1436SOL    HW2 5143   1.741   2.761   7.484 -0.5469 -0.4515 -0.2181
 1437SOL     OW 5144   3.268   2.727   1.354 -0.0508 -0.1686 -0.1630
 1437SOL    HW1 5145   3.362   2.735   1.338 -0.0112  0.9163  0.5793
 1437SOL    HW2 5146   3.247   2.800   1.412 -1.7379  0.8843 -1.9822
 1438SOL     OW 5147   5.284   1.869   6.648 -0.1622 -0.3710 -0.5177
 1438SOL    HW1 5148   5.323   1.873   6.561  0.7941 -1.5489 -0.1671
 1438SOL    HW2 5149   5.336   1.929   6.701 -1.3927  1.1467 -0.9665
 1439SOL     OW 5150   2.994   1.785   7.093  0.2568  0.6191 -0.6065
 1439SOL    HW1 5151   2.901   1.770   7.080 -0.4504  0.1880  3.5335
 1439SOL    HW2 5152   3.002   1.880   7.101  0.4995  0.7823 -2.3968
 1440SOL     OW 5153   6.324   0.536   7.206  0.2593 -0.2390  0.8901
 1440SOL    HW1 5154   6.401   0.509   7.256 -0.0087 -1.2157  0.7934
 1440SOL    HW2 5155   6.349   0.525   7.114 -0.2690 -1.3996  0.8670
 1441SOL     OW 5156   5.651   3.470   4.825 -0.1857 -0.7684  0.1479
 1441SOL    HW1 5157   5.706   3.488   4.901 -0.9751 -0.3501  0.6413
 1441SOL    HW2 5158   5.638   3.555   4.784 -0.3186 -0.8869 -0.0551
 1442SOL     OW 5159   2.319   1.076   6.697 -0.0073 -0.1299  0.1499
 1442SOL    HW1 5160   2.244   1.130   6.721  1.7195  2.3048  0.4406
 1442SOL    HW2 5161   2.395   1.133   6.709  1.9749 -2.6051  0.3142
 1443SOL     OW 5162   0.727   6.300   3.787 -0.1056 -0.6449 -0.5223
 1443SOL    HW1 5163   0.681   6.323   3.707  1.3300 -2.9622 -2.1374
 1443SOL    HW2 5164   0.818   6.325   3.771 -0.3730  2.8045  2.1600
 1444SOL     OW 5165   1.087   2.471   4.388 -0.5932 -0.2063 -0.2489
 1444SOL    HW1 5166   1.067   2.564   4.376 -2.3843 -0.4989  0.1188
 1444SOL    HW2 5167   1.176   2.470   4.424 -1.1850  1.4962  1.4534
 1445SOL     OW 5168   6.407   4.160   1.559  0.7462 -0.1584 -0.0238
 1445SOL    HW1 5169   6.329   4.108   1.579  0.7799 -0.0376  0.4487
 1445SOL    HW2 5170   6.476   4.094   1.549  0.4609 -0.3077 -1.0893
 1446SOL     OW 5171   7.647   7.087   7.057 -0.1253  0.0814  0.1590
 1446SOL    HW1 5172   7.680   7.116   6.972 -1.8895  3.5878  0.5084
 1446SOL    HW2 5173   7.725   7.055   7.103  1.5305  1.4451 -1.5236
 1447SOL     OW 5174   7.495   4.896   0.293 -0.3291 -0.3555 -0.0795
 1447SOL    HW1 5175   7.581   4.887   0.333 -0.3155 -1.6610 -0.3525
 1447SOL    HW2 5176   7.492   4.987   0.262  0.9865 -0.3187 -0.1596
 1448SOL     OW 5177   2.016   1.524   2.784  0.1088 -0.6962 -0.0687
 1448SOL    HW1 5178   2.102   1.543   2.746  0.3592  0.0274  0.8181
 1448SOL    HW2 5179   1.993   1.437   2.750  0.3796 -0.1693 -1.7312
 1449SOL     OW 5180   2.194   7.514   1.088 -0.1953 -0.6215  0.6679
 1449SOL    HW1 5181   2.147   7.431   1.096 -1.9182  0.1931 -0.1614
 1449SOL    HW2 5182   2.141   7.565   1.026 -0.0929  1.6856  2.3305
 1450SOL     OW 5183   3.446   1.348   3.803 -0.1924  0.6631  0.0924
 1450SOL    HW1 5184   3.410   1.272   3.757  1.4350  0.6194 -1.2211
 1450SOL    HW2 5185   3.442   1.324   3.896 -0.5911 -0.6298 -0.2394
 1451SOL     OW 5186   1.079   1.872   5.262  0.3925  0.7568  0.2540
 1451SOL    HW1 5187   1.044   1.959   5.280 -1.8094 -0.2471  1.2503
 1451SOL    HW2 5188   1.148   1.859   5.328  1.2905  1.9882 -0.4030
 1452SOL     OW 5189   1.349   2.105   1.082 -0.3687 -0.1630  0.5338
 1452SOL    HW1 5190   1.353   2.022   1.034 -0.5353  0.7948 -1.2323
 1452SOL    HW2 5191   1.294   2.161   1.027 -0.7098  0.9541  1.9659
 1453SOL     OW 5192   0.369   3.138   4.649  0.1117  0.2898  0.4619
 1453SOL    HW1 5193   0.281   3.173   4.662 -0.3482 -1.0871  1.2557
 1453SOL    HW2 5194   0.420   3.177   4.720 -0.2787 -0.2169  1.0360
 1454SOL     OW 5195   4.085   0.130   7.487  0.0975  0.5402 -0.2411
 1454SOL    HW1 5196   4.044   0.091   7.564 -0.8775 -0.5113 -1.2578
 1454SOL    HW2 5197   4.068   0.224   7.496 -3.0236  0.1370 -0.8422
 1455SOL     OW 5198   7.171   6.605   1.900  0.3310 -0.1562  0.1800
 1455SOL    HW1 5199   7.095   6.548   1.884  1.3847 -1.5134 -0.1521
 1455SOL    HW2 5200   7.193   6.640   1.814 -0.5833  1.1689  0.4466
 1456SOL     OW 5201   4.629   0.191   1.732  0.2000 -0.3205  0.5815
 1456SOL    HW1 5202   4.625   0.233   1.646  1.5484 -0.0163  0.6382
 1456SOL    HW2 5203   4.547   0.143   1.740 -0.2142  0.1627 -0.6081
 1457SOL     OW 5204   3.799   7.339   2.510 -0.1008  0.2721  0.0778
 1457SOL    HW1 5205   3.892   7.360   2.498  0.3156 -1.1593  0.6163
 1457SOL    HW2 5206   3.799   7.264   2.569 -1.4959 -1.1590 -1.6499
 1458SOL     OW 5207   1.127   3.253   2.931  0.1238 -0.3782  0.1226
 1458SOL    HW1 5208   1.219   3.233   2.948 -0.0379 -0.8855  0.4138
 1458SOL    HW2 5209   1.094   3.286   3.015 -0.0744 -0.6360  0.1475
 1459SOL     OW 5210   2.708   4.042   2.571  0.2539 -0.7063 -0.5734
 1459SOL    HW1 5211   2.772   4.014   2.506  1.2304 -0.3004  0.2017
 1459SOL    HW2 5212   2.645   4.094   2.522  0.3639 -1.3170 -1.3873
 1460SOL     OW 5213   6.605   4.112   0.906 -0.0925  0.1103  0.1363
 1460SOL    HW1 5214   6.669   4.164   0.954 -0.3984  0.1966  0.4494
 1460SOL    HW2 5215   6.520   4.143   0.936 -0.2840 -0.0737 -0.2040
 1461SOL     OW 5216   0.204   2.574   2.892 -0.1281 -0.3025  0.1099
 1461SOL    HW1 5217   0.263   2.548   2.963 -0.7858  2.0081  1.6188
 1461SOL    HW2 5218   0.236   2.660   2.865 -0.3122 -0.8409 -1.9742
 1462SOL     OW 5219   3.359   1.174   3.590 -0.2454 -0.1163 -0.1920
 1462SOL    HW1 5220   3.334   1.106   3.527  2.1589 -1.6607  0.4053
 1462SOL    HW2 5221   3.341   1.256   3.545 -3.0325 -1.0688 -1.0358
 1463SOL     OW 5222   4.725   2.093   6.377  0.4267  0.3106  0.1355
 1463SOL    HW1 5223   4.821   2.096   6.385  0.5964 -0.9614 -0.9795
 1463SOL    HW2 5224   4.708   2.130   6.290  0.1019 -1.1719 -0.4691
 1464SOL     OW 5225   7.911   7.812   7.790 -0.4451  0.6680  0.5111
 1464SOL    HW1 5226   7.940   7.789   7.878 -0.6036 -0.4089  0.3011
 1464SOL    HW2 5227   7.968   7.884   7.763  0.2489  0.3551  1.1264
 1465SOL     OW 5228   1.493   0.184   5.035 -0.0574 -0.1956  0.3309
 1465SOL    HW1 5229   1.424   0.234   4.992  1.3894  1.1969 -0.4952
 1465SOL    HW2 5230   1.534   0.245   5.096  0.0874 -1.1741  1.2592
 1466SOL     OW 5231   5.758   3.980   6.581  0.1856 -0.9085  0.2078
 1466SOL    HW1 5232   5.700   3.905   6.593  0.7112 -1.2790  0.4700
 1466SOL    HW2 5233   5.752   4.001   6.488 -3.3328  1.5032  0.7667
 1467SOL     OW 5234   0.254   0.312   0.810  0.4311  1.0628 -0.0759
 1467SOL    HW1 5235   0.216   0.342   0.727  0.1946  0.8022 -0.0627
 1467SOL    HW2 5236   0.179   0.278   0.860  0.7312  0.1582 -0.2177
 1468SOL     OW 5237   2.736   5.117   2.556 -0.2955  0.2629  0.2016
 1468SOL    HW1 5238   2.774   5.203   2.571 -1.2837  0.4591  1.7534
 1468SOL    HW2 5239   2.775   5.061   2.623 -1.5845  0.1189  0.8604
 1469SOL     OW 5240   6.113   5.181   7.722  0.3524  0.1031  0.1410
 1469SOL    HW1 5241   6.073   5.150   7.641  2.1907  1.3428 -1.3172
 1469SOL    HW2 5242   6.203   5.151   7.718  0.0203 -1.4837  2.7162
 1470SOL     OW 5243   7.688   2.066   1.804 -0.3088 -0.3997 -0.3004
 1470SOL    HW1 5244   7.725   2.141   1.850  0.8338 -1.6915  0.9965
 1470SOL    HW2 5245   7.708   1.991   1.860 -2.4710 -1.5402 -0.9602
 1471SOL     OW 5246   3.494   5.144   6.043 -0.6245 -0.0675  0.0719
 1471SOL    HW1 5247   3.411   5.118   6.084 -0.2683 -0.7010  0.4127
 1471SOL    HW2 5248   3.550   5.067   6.053 -0.4178 -0.1227 -1.3197
 1472SOL     OW 5249   5.365   1.719   4.995  0.1405  0.1093  0.3672
 1472SOL    HW1 5250   5.414   1.759   4.924 -0.3069 -0.4667 -0.2765
 1472SOL    HW2 5251   5.429   1.709   5.066  0.7315  0.1641 -0.1535
 1473SOL     OW 5252   2.536   0.214   2.771 -0.2748  0.0025 -0.1844
 1473SOL    HW1 5253   2.522   0.152   2.843  0.2581 -0.3247 -0.3533
 1473SOL    HW2 5254   2.592   0.166   2.710 -0.6658  0.3061 -0.7832
 1474SOL     OW 5255   5.462   4.513   1.059 -0.1973 -0.3537 -0.1036
 1474SOL    HW1 5256   5.431   4.549   1.142 -1.8253 -1.4885 -0.1580
 1474SOL    HW2 5257   5.477   4.589   1.004 -0.2747  0.3718  0.8501
 1475SOL     OW 5258   4.349   5.085   3.796  0.3235 -0.1299 -0.1576
 1475SOL    HW1 5259   4.305   5.066   3.879  0.3107  1.0619  0.1230
 1475SOL    HW2 5260   4.290   5.143   3.750  0.5975 -0.3204 -0.7577
 1476SOL     OW 5261   7.623   6.932   5.325  0.0158  0.6520 -0.1052
 1476SOL    HW1 5262   7.547   6.899   5.277 -0.4803  0.0703  1.0507
 1476SOL    HW2 5263   7.687   6.952   5.257 -0.6929 -0.0978 -1.0203
 1477SOL     OW 5264   7.610   5.831   7.877  0.2275 -0.0027 -0.5208
 1477SOL    HW1 5265   7.704   5.817   7.883  0.3326  1.3265  1.8886
 1477SOL    HW2 5266   7.601   5.916   7.834  0.2956  1.1118  1.5364
 1478SOL     OW 5267   4.521   6.241   4.891 -0.2935 -0.1882 -0.0614
 1478SOL    HW1 5268   4.494   6.256   4.800 -0.2339  2.1004  0.2318
 1478SOL    HW2 5269   4.443   6.205   4.933 -0.8874  0.3871 -0.6436
 1479SOL     OW 5270   7.396   3.874   0.752  0.2459  0.0303  0.1314
 1479SOL    HW1 5271   7.419   3.907   0.665 -0.3527 -0.5195 -0.2467
 1479SOL    HW2 5272   7.424   3.943   0.812  0.3020  0.5944 -0.5305
 1480SOL     OW 5273   7.228   2.959   6.642 -0.5486  0.2171  0.1721
 1480SOL    HW1 5274   7.155   2.966   6.580 -0.5300 -1.7495 -0.1568
 1480SOL    HW2 5275   7.268   2.875   6.621  0.0920 -0.0324  2.1995
 1481SOL     OW 5276   6.862   5.726   5.744 -0.0027  0.7837 -0.0255
 1481SOL    HW1 5277   6.891   5.782   5.673 -0.9603 -1.1828 -2.0847
 1481SOL    HW2 5278   6.771   5.753   5.760  0.3739  1.5795  0.8743
 1482SOL     OW 5279   5.459   7.704   3.856  0.3806  1.2199  0.3635
 1482SOL    HW1 5280   5.539   7.653   3.870  0.9811  1.7994 -0.8394
 1482SOL    HW2 5281   5.407   7.688   3.934  1.3236  0.1847  0.8098
 1483SOL     OW 5282   4.588   3.055   1.439 -0.0572  0.1810  0.1370
 1483SOL    HW1 5283   4.596   3.075   1.532  1.5442  0.0377  0.0486
 1483SOL    HW2 5284   4.673   3.077   1.402 -0.0703 -1.4717 -0.9750
 1484SOL     OW 5285   6.120   0.178   4.224 -0.4103  0.4535  0.2069
 1484SOL    HW1 5286   6.139   0.108   4.287 -0.6824  1.5531  1.5637
 1484SOL    HW2 5287   6.193   0.238   4.233  0.2924 -0.0731 -1.6298
 1485SOL     OW 5288   4.106   1.598   2.886 -0.1151  0.0655  0.0530
 1485SOL    HW1 5289   4.177   1.648   2.845  0.5200  1.1433  2.3364
 1485SOL    HW2 5290   4.131   1.507   2.872  0.0808  0.3595 -1.8624
 1486SOL     OW 5291   7.850   7.285   0.828  0.1273  0.2852 -0.3530
 1486SOL    HW1 5292   7.931   7.251   0.865 -1.2219 -2.2799  0.4910
 1486SOL    HW2 5293   7.833   7.229   0.752 -1.4506 -0.0910  0.2268
 1487SOL     OW 5294   2.367   6.906   0.280  0.2648  0.1034  0.1384
 1487SOL    HW1 5295   2.302   6.896   0.211 -1.0630  0.0095  1.3537
 1487SOL    HW2 5296   2.445   6.940   0.236 -0.8495  0.9552 -1.2301
 1488SOL     OW 5297   7.601   1.403   0.026 -0.3871 -0.2625 -0.2389
 1488SOL    HW1 5298   7.540   1.476   0.030 -0.2442 -0.1747  0.5148
 1488SOL    HW2 5299   7.687   1.442   0.038 -0.3217 -0.5623  0.3369
 1489SOL     OW 5300   5.816   3.988   1.633 -0.0055 -0.0824 -0.5272
 1489SOL    HW1 5301   5.841   4.034   1.713  1.3549  1.2164 -1.6519
 1489SOL    HW2 5302   5.871   3.909   1.633 -0.0861 -0.1406 -0.1295
 1490SOL     OW 5303   1.921   5.600   5.986 -0.4332  0.0142 -0.9549
 1490SOL    HW1 5304   1.950   5.654   5.913  1.4126 -1.2548 -1.2505
 1490SOL    HW2 5305   1.970   5.518   5.976  0.4433  0.0346  2.0805
 1491SOL     OW 5306   2.813   4.366   1.388  0.5899 -0.3555  0.3993
 1491SOL    HW1 5307   2.796   4.315   1.467 -1.1809  0.9470  0.9016
 1491SOL    HW2 5308   2.829   4.455   1.419  0.1025  0.1252 -0.6966
 1492SOL     OW 5309   0.875   0.924   7.665 -0.6089 -0.2535 -0.6633
 1492SOL    HW1 5310   0.785   0.933   7.635 -1.9167  1.0797  3.0752
 1492SOL    HW2 5311   0.867   0.899   7.758  2.8121  0.9291  0.0877
 1493SOL     OW 5312   3.309   5.369   3.170 -0.1993 -0.3879  0.1089
 1493SOL    HW1 5313   3.263   5.336   3.093 -0.2943 -0.2797  0.1181
 1493SOL    HW2 5314   3.239   5.391   3.232 -0.0711 -1.9771  0.8596
 1494SOL     OW 5315   5.348   6.285   7.670  0.1467  0.2366 -0.1152
 1494SOL    HW1 5316   5.363   6.213   7.730  0.0607  1.8278  1.9230
 1494SOL    HW2 5317   5.363   6.248   7.583 -1.6413 -2.6687  0.6849
 1495SOL     OW 5318   2.358   4.602   1.709  0.4674 -0.5377  0.3727
 1495SOL    HW1 5319   2.283   4.584   1.766 -0.1180 -1.7811 -0.7389
 1495SOL    HW2 5320   2.422   4.643   1.767 -1.5990  2.0549  1.0442
 1496SOL     OW 5321   0.027   5.846   3.584  0.3140 -0.5824  0.3875
 1496SOL    HW1 5322   0.042   5.766   3.533  0.4993 -1.6386  2.0113
 1496SOL    HW2 5323   0.107   5.897   3.572 -0.1051 -0.2482 -1.2679
 1497SOL     OW 5324   4.387   6.496   1.919  0.1851 -0.0643  0.3711
 1497SOL    HW1 5325   4.406   6.432   1.850  0.4276 -0.5039  0.8443
 1497SOL    HW2 5326   4.300   6.471   1.951  0.2957 -0.1775  0.5808
 1498SOL     OW 5327   1.945   3.012   6.221  0.1421 -0.2086 -0.4913
 1498SOL    HW1 5328   1.951   3.067   6.143  0.6453 -0.3382 -0.5468
 1498SOL    HW2 5329   1.931   2.923   6.187 -1.8639  0.0127 -0.3817
 1499SOL     OW 5330   2.189   3.818   3.113 -0.9556  0.0049 -0.1122
 1499SOL    HW1 5331   2.215   3.809   3.022 -2.1890  0.5008 -0.5326
 1499SOL    HW2 5332   2.157   3.731   3.138 -0.7876 -0.0832 -0.2019
 1500SOL     OW 5333   6.800   2.178   5.421  0.0351 -0.2130 -0.0156
 1500SOL    HW1 5334   6.724   2.209   5.470  0.2989 -0.4888  0.5825
 1500SOL    HW2 5335   6.866   2.160   5.489 -0.0278 -1.8423 -0.3435
 1501SOL     OW 5336   4.077   5.637   7.569 -0.1912  0.2571 -0.2368
 1501SOL    HW1 5337   4.105   5.558   7.616  0.3999  2.0468  2.6518
 1501SOL    HW2 5338   4.156   5.670   7.528  0.0234  0.4550  0.3259
 1502SOL     OW 5339   5.169   1.580   2.247  0.5243  0.2267 -0.0447
 1502SOL    HW1 5340   5.111   1.509   2.274 -0.9328  1.2989 -0.2617
 1502SOL    HW2 5341   5.252   1.536   2.228 -0.2003 -1.3552  0.2367
 1503SOL     OW 5342   5.389   3.326   7.660  0.1423  0.2432  0.2752
 1503SOL    HW1 5343   5.448   3.252   7.668  0.7043  0.6515 -0.0430
 1503SOL    HW2 5344   5.301   3.288   7.665  0.3837 -0.1842  2.5591
 1504SOL     OW 5345   2.489   7.681   4.260 -0.0698 -0.4219  0.5058
 1504SOL    HW1 5346   2.529   7.756   4.214  0.8481 -0.3641  1.3712
 1504SOL    HW2 5347   2.472   7.617   4.191  0.2728  0.0938 -0.0693
 1505SOL     OW 5348   3.333   5.609   3.729  0.2451 -0.1366  0.0071
 1505SOL    HW1 5349   3.305   5.518   3.723 -0.8812  0.1857  0.1296
 1505SOL    HW2 5350   3.414   5.606   3.779 -1.0325 -0.8771  2.1783
 1506SOL     OW 5351   1.690   5.842   4.908 -0.3595 -0.3745 -0.1483
 1506SOL    HW1 5352   1.625   5.899   4.950 -0.7620 -0.0564 -1.1718
 1506SOL    HW2 5353   1.659   5.833   4.818 -0.2590 -2.1593 -0.0373
 1507SOL     OW 5354   3.183   3.786   5.940  0.1442 -0.4116  0.0974
 1507SOL    HW1 5355   3.158   3.768   5.850  2.9808  0.4983 -1.0020
 1507SOL    HW2 5356   3.137   3.867   5.962  0.4812  0.1078 -1.0534
 1508SOL     OW 5357   3.699   2.607   7.461  0.0446 -0.0916  0.3593
 1508SOL    HW1 5358   3.788   2.630   7.488  0.0469 -0.4860  0.6976
 1508SOL    HW2 5359   3.647   2.683   7.485  0.0127 -0.4965  1.6794
 1509SOL     OW 5360   2.667   1.673   1.900  0.6125 -0.6417 -0.0407
 1509SOL    HW1 5361   2.662   1.753   1.847 -2.2396 -0.6822 -0.0135
 1509SOL    HW2 5362   2.661   1.705   1.990  3.3500 -0.7112  0.2313
 1510SOL     OW 5363   3.797   2.059   2.782  0.2517 -0.4041 -0.4639
 1510SOL    HW1 5364   3.883   2.082   2.746  0.1498  0.7491 -0.0006
 1510SOL    HW2 5365   3.814   1.978   2.831  1.2068  0.1043  0.0838
 1511SOL     OW 5366   5.170   6.200   1.823  0.1025 -0.2500  0.3819
 1511SOL    HW1 5367   5.188   6.222   1.732 -0.8251 -2.3603 -0.3726
 1511SOL    HW2 5368   5.129   6.278   1.859  0.9205  0.7871 -0.8429
 1512SOL     OW 5369   7.433   1.738   1.640 -1.0766 -0.4092  0.2657
 1512SOL    HW1 5370   7.526   1.724   1.620 -1.0579  0.8513 -0.6283
 1512SOL    HW2 5371   7.391   1.655   1.618 -0.2832 -0.7122 -0.1502
 1513SOL     OW 5372   7.341   3.840   1.365  0.0040  0.3172  1.0031
 1513SOL    HW1 5373   7.381   3.801   1.443 -0.6519 -1.5137  0.4738
 1513SOL    HW2 5374   7.323   3.931   1.390  1.6339  0.3413  2.2862
 1514SOL     OW 5375   0.902   2.317   6.863 -0.1520  0.1071 -0.1518
 1514SOL    HW1 5376   0.927   2.360   6.945 -0.5514 -0.8149  0.4832
 1514SOL    HW2 5377   0.806   2.326   6.860 -0.4953 -2.3213  0.9857
 1515SOL     OW 5378   3.442   5.632   5.739  0.3010  0.5375  0.3073
 1515SOL    HW1 5379   3.391   5.701   5.782  0.8487  2.5426 -2.0411
 1515SOL    HW2 5380   3.376   5.574   5.701 -0.1943  0.5738  1.0975
 1516SOL     OW 5381   2.624   0.572   6.573  0.4329 -0.4234 -0.3410
 1516SOL    HW1 5382   2.608   0.646   6.515  2.0864  1.7139  1.7165
 1516SOL    HW2 5383   2.543   0.564   6.625  1.2775  2.2274  1.6317
 1517SOL     OW 5384   7.794   7.305   6.195  0.4356  0.1539 -0.6590
 1517SOL    HW1 5385   7.849   7.381   6.217  1.0201 -0.5086  0.2083
 1517SOL    HW2 5386   7.809   7.292   6.101  2.2078 -0.3315 -0.3572
 1518SOL     OW 5387   7.137   7.576   6.763 -0.5569 -0.2925 -0.1676
 1518SOL    HW1 5388   7.121   7.650   6.705 -3.8490 -0.6303  0.1524
 1518SOL    HW2 5389   7.231   7.582   6.784 -0.5438  3.4193 -0.6192
 1519SOL     OW 5390   6.903   4.105   1.502  0.4354  0.6701 -0.0081
 1519SOL    HW1 5391   6.936   4.129   1.416  1.9412  1.4244  0.7351
 1519SOL    HW2 5392   6.961   4.150   1.564  0.2736 -0.9450  1.4158
 1520SOL     OW 5393   6.454   7.914   3.856  0.1092 -0.6046 -0.0431
 1520SOL    HW1 5394   6.503   7.951   3.782  1.3430 -1.7896  0.1423
 1520SOL    HW2 5395   6.462   7.981   3.924  0.7366 -0.3925 -0.3070
 1521SOL     OW 5396   1.475   1.349   7.431 -0.6082  0.2757  0.0551
 1521SOL    HW1 5397   1.395   1.389   7.395  0.6901  2.0317 -1.0380
 1521SOL    HW2 5398   1.503   1.409   7.500 -0.5603 -0.6819  0.8949
 1522SOL     OW 5399   6.269   2.945   7.826  0.4302 -0.4467  0.9650
 1522SOL    HW1 5400   6.247   2.957   7.919 -0.7325 -3.2851  1.1551
 1522SOL    HW2 5401   6.214   2.872   7.797 -0.8291  1.6731 -2.5932
 1523SOL     OW 5402   5.573   4.192   2.436  0.0451 -0.3557  0.5319
 1523SOL    HW1 5403   5.540   4.102   2.438 -0.5179 -0.1342  1.4545
 1523SOL    HW2 5404   5.502   4.245   2.473  0.3812  0.4751  0.0323
 1524SOL     OW 5405   5.852   7.490   1.830 -0.2606  0.0496 -0.0958
 1524SOL    HW1 5406   5.850   7.558   1.898 -0.2704 -0.5713  0.5380
 1524SOL    HW2 5407   5.770   7.443   1.840 -0.1535 -0.2050 -0.3761
 1525SOL     OW 5408   0.559   7.224   3.940  0.3129 -0.3104 -0.1439
 1525SOL    HW1 5409   0.562   7.308   3.986  1.6243 -0.0517 -0.6367
 1525SOL    HW2 5410   0.647   7.215   3.902 -0.4251 -0.9521 -1.7785
 1526SOL     OW 5411   2.418   3.129   4.559  0.0717 -0.5915  0.0226
 1526SOL    HW1 5412   2.445   3.181   4.636 -0.5857  0.3967 -0.3888
 1526SOL    HW2 5413   2.481   3.153   4.491 -1.3358  1.1945 -0.7369
 1527SOL     OW 5414   0.334   1.012   5.161  0.5969  0.1504 -0.1026
 1527SOL    HW1 5415   0.273   0.964   5.218  0.9497 -0.3519 -0.1449
 1527SOL    HW2 5416   0.289   1.017   5.077 -0.3191  1.6739  0.4359
 1528SOL     OW 5417   2.856   2.345   4.253 -0.4806 -0.1240  0.1772
 1528SOL    HW1 5418   2.778   2.383   4.212  1.4266  0.5688 -3.2073
 1528SOL    HW2 5419   2.839   2.251   4.255 -0.6101 -0.2678 -2.7738
 1529SOL     OW 5420   6.147   6.548   5.633  0.0657 -0.1342 -0.0175
 1529SOL    HW1 5421   6.174   6.636   5.606 -2.1870 -0.0619 -2.4219
 1529SOL    HW2 5422   6.201   6.489   5.579  0.8563 -0.2268  0.8563
 1530SOL     OW 5423   7.573   0.194   3.193  0.1641  0.8511 -0.0828
 1530SOL    HW1 5424   7.598   0.278   3.155  0.1336  1.7667  1.8483
 1530SOL    HW2 5425   7.477   0.192   3.187  0.1719  0.8890 -0.2276
 1531SOL     OW 5426   0.660   2.099   5.481  0.1494 -0.4683  0.6625
 1531SOL    HW1 5427   0.567   2.120   5.489  0.5752  1.9628 -0.0602
 1531SOL    HW2 5428   0.663   2.031   5.414 -1.1397 -1.1893  1.2872
 1532SOL     OW 5429   0.201   7.142   6.892  0.6624 -0.0971 -0.2693
 1532SOL    HW1 5430   0.261   7.215   6.909  0.8973  0.3966 -2.8062
 1532SOL    HW2 5431   0.255   7.076   6.849 -0.1988 -0.4325 -0.8640
 1533SOL     OW 5432   6.380   2.228   3.040 -0.0536 -0.0023  0.5342
 1533SOL    HW1 5433   6.376   2.139   3.075  1.8928  0.6204  2.5315
 1533SOL    HW2 5434   6.298   2.238   2.991  0.3722 -3.3931 -1.1698
 1534SOL     OW 5435   6.523   3.601   1.197 -0.7692  0.1383  0.0111
 1534SOL    HW1 5436   6.434   3.635   1.193 -0.9506 -0.3959 -0.9419
 1534SOL    HW2 5437   6.577   3.670   1.158 -0.6925  0.6441  0.9835
 1535SOL     OW 5438   3.364   0.380   6.706  0.3006 -0.0373  0.0356
 1535SOL    HW1 5439   3.310   0.341   6.638 -2.7084  1.0680  1.6392
 1535SOL    HW2 5440   3.361   0.474   6.688  2.1648  0.0424 -0.0813
 1536SOL     OW 5441   3.554   7.727   7.880 -1.0195  0.2380  0.1526
 1536SOL    HW1 5442   3.608   7.683   7.814  0.9806  1.9169  0.5547
 1536SOL    HW2 5443   3.525   7.656   7.938  1.8143 -0.6743  0.6224
 1537SOL     OW 5444   0.810   3.400   0.940  0.4135  0.6919 -0.0137
 1537SOL    HW1 5445   0.742   3.416   1.006 -1.0584 -1.3953 -0.8883
 1537SOL    HW2 5446   0.865   3.331   0.978 -0.4178 -0.4905 -0.8816
 1538SOL     OW 5447   7.127   0.190   0.684  0.5630  0.9173 -0.0626
 1538SOL    HW1 5448   7.075   0.113   0.709  0.8386  0.7457 -0.0131
 1538SOL    HW2 5449   7.208   0.182   0.734  0.7304  1.0671 -0.3052
 1539SOL     OW 5450   5.167   5.657   7.022  0.2133 -0.2115 -0.2762
 1539SOL    HW1 5451   5.077   5.626   7.011 -0.1092  1.0723 -1.4513
 1539SOL    HW2 5452   5.221   5.580   7.004 -0.6005 -0.4564 -1.7637
 1540SOL     OW 5453   1.309   3.984   5.416 -0.3274  0.5851  0.3466
 1540SOL    HW1 5454   1.252   3.952   5.345  0.3959 -0.3339  0.1584
 1540SOL    HW2 5455   1.249   4.011   5.485 -1.0129 -0.3203  0.1305
 1541SOL     OW 5456   3.362   2.894   5.681  0.0081  0.6778 -0.1461
 1541SOL    HW1 5457   3.309   2.878   5.759 -2.0954  1.1425 -1.4233
 1541SOL    HW2 5458   3.413   2.813   5.671 -0.7119  0.0620  0.9127
 1542SOL     OW 5459   1.126   0.613   0.872  0.1414  0.1847  0.7775
 1542SOL    HW1 5460   1.168   0.555   0.809 -1.4114 -0.6197  0.4257
 1542SOL    HW2 5461   1.100   0.556   0.944 -0.0388  0.7188  1.1453
 1543SOL     OW 5462   2.611   5.848   3.163  0.4357 -0.3491 -0.5114
 1543SOL    HW1 5463   2.603   5.854   3.067 -1.9644 -3.2158 -0.6487
 1543SOL    HW2 5464   2.687   5.792   3.177 -0.0823 -1.1564 -0.8483
 1544SOL     OW 5465   4.624   4.941   3.940  0.3350 -0.2619  0.7070
 1544SOL    HW1 5466   4.547   4.945   3.996  1.6779  1.8676  2.5994
 1544SOL    HW2 5467   4.615   5.015   3.881  1.7089  1.2056  2.2096
 1545SOL     OW 5468   6.271   2.659   3.893 -0.5507 -0.3192  0.2052
 1545SOL    HW1 5469   6.198   2.711   3.859 -1.1514 -1.6456 -0.6211
 1545SOL    HW2 5470   6.231   2.603   3.960 -0.5197 -1.6726 -0.8528
 1546SOL     OW 5471   6.962   0.393   5.754  0.2806  0.1556  0.4675
 1546SOL    HW1 5472   6.876   0.401   5.712  0.1613  2.0163  0.9931
 1546SOL    HW2 5473   6.947   0.331   5.826  0.3267 -2.5249 -1.6659
 1547SOL     OW 5474   7.293   7.067   3.368  0.5742 -0.2602  0.8943
 1547SOL    HW1 5475   7.250   7.017   3.438 -1.2100 -1.9614 -1.2910
 1547SOL    HW2 5476   7.379   7.090   3.405 -0.3411 -0.8838  3.6823
 1548SOL     OW 5477   6.717   3.232   4.986 -0.1056  0.1100 -0.5436
 1548SOL    HW1 5478   6.804   3.268   4.967  0.0773 -1.1412 -2.3445
 1548SOL    HW2 5479   6.728   3.137   4.978 -1.7084 -0.0565 -1.2121
 1549SOL     OW 5480   3.772   0.889   3.915  0.5957  0.3181 -0.0821
 1549SOL    HW1 5481   3.841   0.906   3.979 -0.4960  0.7240  1.0284
 1549SOL    HW2 5482   3.762   0.972   3.868  0.4394  0.4591  0.1961
 1550SOL     OW 5483   5.202   6.386   3.878  0.3210 -0.1129 -0.4820
 1550SOL    HW1 5484   5.128   6.373   3.938 -0.2169 -1.5556 -1.4129
 1550SOL    HW2 5485   5.161   6.416   3.796  0.9324  0.6065 -0.5366
 1551SOL     OW 5486   4.877   3.636   1.378 -0.1662 -0.3171  0.3661
 1551SOL    HW1 5487   4.831   3.572   1.433 -0.5520 -0.7259 -0.4125
 1551SOL    HW2 5488   4.828   3.636   1.296 -0.7374  1.6828  0.6589
 1552SOL     OW 5489   6.561   6.727   6.322  0.2564  0.3562 -0.0226
 1552SOL    HW1 5490   6.588   6.688   6.405  1.1695  0.8206 -0.0882
 1552SOL    HW2 5491   6.518   6.655   6.275 -0.1927  0.0680  0.8068
 1553SOL     OW 5492   1.550   7.395   0.931  0.1490  0.2771  0.9358
 1553SOL    HW1 5493   1.559   7.378   0.837 -0.3719  0.4536  0.8454
 1553SOL    HW2 5494   1.614   7.463   0.949  0.4937 -0.0055  0.7783
 1554SOL     OW 5495   3.073   4.219   3.146  0.0348  0.0972  0.5657
 1554SOL    HW1 5496   3.079   4.303   3.192 -1.1649  0.0886  0.7641
 1554SOL    HW2 5497   3.058   4.243   3.054 -0.2026  0.1053  0.6056
 1555SOL     OW 5498   2.660   2.958   4.190  0.5872  0.1602  0.6745
 1555SOL    HW1 5499   2.721   3.028   4.214  1.2200  0.2080 -0.9424
 1555SOL    HW2 5500   2.717   2.884   4.168  0.0002 -0.1685  0.2641
 1556SOL     OW 5501   2.546   1.249   1.556 -0.3459 -0.5822 -0.1301
 1556SOL    HW1 5502   2.476   1.194   1.588 -1.7568  0.3527 -1.4352
 1556SOL    HW2 5503   2.516   1.339   1.572  0.3956 -0.1543 -1.0080
 1557SOL     OW 5504   1.920   5.413   6.588  0.0716 -0.1116 -0.4746
 1557SOL    HW1 5505   2.003   5.390   6.547 -0.2366 -1.1343 -0.5315
 1557SOL    HW2 5506   1.931   5.505   6.612  0.7916  0.0963 -1.5158
 1558SOL     OW 5507   6.551   3.454   1.873 -0.3977 -0.7795 -0.1499
 1558SOL    HW1 5508   6.541   3.370   1.829  1.1840 -0.8784 -0.3813
 1558SOL    HW2 5509   6.621   3.440   1.936 -0.3621  0.2754  0.0604
 1559SOL     OW 5510   7.470   5.113   3.140 -0.1802  0.3218  0.1747
 1559SOL    HW1 5511   7.521   5.049   3.091 -0.6505 -0.4787  0.7103
 1559SOL    HW2 5512   7.475   5.193   3.088  0.1709 -0.2302 -0.6504
 1560SOL     OW 5513   5.689   7.256   7.577  0.0491 -0.0774  0.6095
 1560SOL    HW1 5514   5.618   7.193   7.571  0.0588 -0.0319 -0.1309
 1560SOL    HW2 5515   5.766   7.209   7.543  0.3351 -0.0745  1.2460
 1561SOL     OW 5516   5.328   3.320   4.127 -0.1690 -0.0811 -0.2256
 1561SOL    HW1 5517   5.300   3.392   4.070 -0.1921  1.1576  1.2767
 1561SOL    HW2 5518   5.280   3.335   4.209 -0.0273 -1.7213  0.2012
 1562SOL     OW 5519   5.513   7.070   7.536 -0.6855  0.0716  0.1850
 1562SOL    HW1 5520   5.546   6.987   7.504  0.4037  0.4533  0.2750
 1562SOL    HW2 5521   5.440   7.046   7.594  0.4660 -0.9279  1.2997
 1563SOL     OW 5522   3.455   5.155   5.057  0.5883 -0.3416  0.0971
 1563SOL    HW1 5523   3.413   5.186   5.138 -0.5772 -1.2829 -0.1253
 1563SOL    HW2 5524   3.548   5.174   5.070  0.1922  1.2617  0.8563
 1564SOL     OW 5525   4.077   3.749   7.928 -0.5751 -0.4725 -0.3402
 1564SOL    HW1 5526   4.056   3.789   7.844 -0.5776 -1.0077 -0.5968
 1564SOL    HW2 5527   3.992   3.731   7.968 -0.6102 -1.4477 -0.8149
 1565SOL     OW 5528   7.878   2.431   0.972  0.1307  0.4518 -0.3185
 1565SOL    HW1 5529   7.828   2.351   0.984  1.9792 -0.9621 -1.4807
 1565SOL    HW2 5530   7.871   2.450   0.878 -0.7971  2.0440  0.0339
 1566SOL     OW 5531   3.072   5.809   6.184  0.5413  0.1618 -0.2460
 1566SOL    HW1 5532   3.166   5.798   6.199  0.4984  1.9219  1.7119
 1566SOL    HW2 5533   3.031   5.778   6.265 -0.4645  0.8405 -0.4726
 1567SOL     OW 5534   3.394   4.556   3.567 -0.4207  0.6556 -0.2559
 1567SOL    HW1 5535   3.396   4.509   3.650  1.4063 -0.5310 -0.9182
 1567SOL    HW2 5536   3.419   4.645   3.589  0.8784  0.1538  0.3743
 1568SOL     OW 5537   5.644   5.064   0.487 -0.1719  0.1337 -0.4746
 1568SOL    HW1 5538   5.654   5.035   0.578 -2.3780 -0.0260 -0.2124
 1568SOL    HW2 5539   5.667   5.157   0.489  0.2062  0.0307  0.1620
 1569SOL     OW 5540   3.041   3.728   3.593 -0.1114 -0.8905 -0.6533
 1569SOL    HW1 5541   2.954   3.688   3.588 -0.6801  0.1854  0.2722
 1569SOL    HW2 5542   3.072   3.728   3.502 -0.6821 -2.0979 -0.8707
 1570SOL     OW 5543   3.619   3.794   3.440 -0.4551 -0.0048 -0.4244
 1570SOL    HW1 5544   3.608   3.880   3.480 -1.1120 -0.8796  1.3848
 1570SOL    HW2 5545   3.656   3.739   3.509 -0.6750 -1.3395 -1.3194
 1571SOL     OW 5546   2.476   0.743   3.318  0.3085  0.3718 -0.0228
 1571SOL    HW1 5547   2.507   0.665   3.364 -0.5798  0.4192  0.6821
 1571SOL    HW2 5548   2.381   0.733   3.314 -0.0206  2.1880  1.5726
 1572SOL     OW 5549   0.216   1.101   3.864  0.1391  0.1873  0.0038
 1572SOL    HW1 5550   0.255   1.014   3.866  0.0645  0.1573  0.9322
 1572SOL    HW2 5551   0.205   1.121   3.771 -1.4196 -1.4970 -0.2244
 1573SOL     OW 5552   5.108   0.806   2.422  0.6803 -0.1897  0.3598
 1573SOL    HW1 5553   5.091   0.780   2.331  1.4909 -2.5339  0.7937
 1573SOL    HW2 5554   5.101   0.724   2.471 -0.6445  1.1740  2.5891
 1574SOL     OW 5555   2.260   5.110   2.444 -0.8334 -0.3638  0.0429
 1574SOL    HW1 5556   2.286   5.094   2.354 -0.3141 -0.5851  0.2294
 1574SOL    HW2 5557   2.186   5.051   2.459 -2.7033  1.5648 -1.0591
 1575SOL     OW 5558   2.236   6.629   1.403 -0.3416 -0.4671 -0.5511
 1575SOL    HW1 5559   2.209   6.538   1.395 -0.0845 -0.7679  1.6056
 1575SOL    HW2 5560   2.302   6.630   1.472  0.0991  1.2731 -0.9296
 1576SOL     OW 5561   0.363   6.400   2.476  0.2379  0.0920 -0.3613
 1576SOL    HW1 5562   0.385   6.308   2.488  0.6328  0.2583  0.2030
 1576SOL    HW2 5563   0.416   6.428   2.401  2.9603  0.7958  1.6765
 1577SOL     OW 5564   4.220   6.807   2.864 -0.2011 -0.4724 -0.0461
 1577SOL    HW1 5565   4.184   6.755   2.935 -1.4120 -0.7196 -0.7994
 1577SOL    HW2 5566   4.313   6.786   2.863  0.1001  0.4726  2.2144
 1578SOL     OW 5567   1.166   3.439   1.998 -0.4831 -0.0910 -0.0683
 1578SOL    HW1 5568   1.157   3.404   2.086 -0.6137  0.3782  0.1060
 1578SOL    HW2 5569   1.157   3.362   1.941 -1.1825 -0.2840  0.2897
 1579SOL     OW 5570   0.542   2.153   1.136  0.2456  0.1730  0.0697
 1579SOL    HW1 5571   0.626   2.118   1.107 -0.2556 -1.2497  0.2223
 1579SOL    HW2 5572   0.549   2.158   1.231  0.1764  0.0978  0.0790
 1580SOL     OW 5573   3.348   0.554   1.937 -0.6438  0.0684 -0.2692
 1580SOL    HW1 5574   3.272   0.523   1.888  0.3901 -0.4181 -1.6473
 1580SOL    HW2 5575   3.393   0.473   1.964  0.0886  0.3388 -0.6466
 1581SOL     OW 5576   6.474   1.342   7.843 -0.0789 -0.5013 -0.1292
 1581SOL    HW1 5577   6.515   1.415   7.796 -0.8479 -1.1133 -1.7966
 1581SOL    HW2 5578   6.395   1.322   7.794 -0.9395 -1.1911  1.4438
 1582SOL     OW 5579   1.446   3.222   1.299  0.5742  0.6245 -0.4796
 1582SOL    HW1 5580   1.451   3.227   1.395 -1.0176 -0.7189 -0.2730
 1582SOL    HW2 5581   1.504   3.150   1.276 -0.4182 -0.2593 -0.3087
 1583SOL     OW 5582   0.707   0.703   2.604 -0.4564 -0.5958  0.3920
 1583SOL    HW1 5583   0.759   0.718   2.525 -1.9906  0.5966 -0.4556
 1583SOL    HW2 5584   0.738   0.769   2.666 -0.8736  0.0569 -0.0814
 1584SOL     OW 5585   1.362   0.621   1.242 -0.0420  0.1162  0.1466
 1584SOL    HW1 5586   1.358   0.640   1.335 -0.4769 -1.3639  0.4583
 1584SOL    HW2 5587   1.454   0.599   1.226  0.2397  1.3610  0.0035
 1585SOL     OW 5588   1.503   0.666   5.056  0.1813  0.1124 -0.3354
 1585SOL    HW1 5589   1.485   0.593   4.996 -0.5109 -0.0271  0.0297
 1585SOL    HW2 5590   1.431   0.727   5.040 -0.6363 -0.4143  1.1076
 1586SOL     OW 5591   2.289   3.186   2.835 -0.1073  0.0451  0.5944
 1586SOL    HW1 5592   2.211   3.154   2.880  0.1522  0.0420  1.0465
 1586SOL    HW2 5593   2.292   3.279   2.855 -1.5284  0.6607 -1.7025
 1587SOL     OW 5594   0.316   1.098   0.113  0.1931 -0.4487 -0.1339
 1587SOL    HW1 5595   0.388   1.159   0.130  0.0956 -0.3047 -0.2394
 1587SOL    HW2 5596   0.301   1.055   0.197  1.0634 -1.1922 -0.3382
 1588SOL     OW 5597   7.005   7.416   5.647  0.2909  0.5979 -0.6108
 1588SOL    HW1 5598   6.978   7.477   5.578  1.5589  1.2186 -0.5923
 1588SOL    HW2 5599   6.924   7.393   5.692 -0.5435  0.3517 -2.1518
 1589SOL     OW 5600   6.305   0.551   1.081  0.0284  0.1693  0.2939
 1589SOL    HW1 5601   6.342   0.527   0.996 -0.4392 -0.9172  0.3883
 1589SOL    HW2 5602   6.377   0.595   1.126  0.3857  0.4564 -0.5262
 1590SOL     OW 5603   1.390   5.371   6.385 -0.3945  0.1475  0.2703
 1590SOL    HW1 5604   1.328   5.378   6.457  1.0894  1.4186  1.5093
 1590SOL    HW2 5605   1.471   5.411   6.419  0.5764  0.1428 -1.8572
 1591SOL     OW 5606   7.830   3.630   2.608  0.3431 -0.2168  0.1592
 1591SOL    HW1 5607   7.825   3.709   2.554  2.1020 -0.7382 -0.8421
 1591SOL    HW2 5608   7.919   3.631   2.644  0.5758 -2.0068 -0.3120
 1592SOL     OW 5609   1.425   3.436   7.177  0.1728  0.2360  0.6773
 1592SOL    HW1 5610   1.503   3.396   7.139 -1.2721 -1.6748 -0.4262
 1592SOL    HW2 5611   1.398   3.501   7.112 -1.0688 -1.5260 -0.6505
 1593SOL     OW 5612   0.730   3.257   4.448  0.1376  0.0861 -0.1197
 1593SOL    HW1 5613   0.696   3.204   4.520 -1.4261  1.3363  0.1266
 1593SOL    HW2 5614   0.692   3.219   4.369 -0.4291  0.4033 -0.0061
 1594SOL     OW 5615   4.273   5.594   3.882  0.2941 -0.2984  0.0322
 1594SOL    HW1 5616   4.195   5.608   3.935  0.8082 -0.2522  0.7964
 1594SOL    HW2 5617   4.321   5.677   3.887 -0.6273  0.4421 -2.2109
 1595SOL     OW 5618   2.603   6.972   0.157 -0.0672  0.3244 -0.1873
 1595SOL    HW1 5619   2.665   6.907   0.123  0.7045  1.3642 -0.8309
 1595SOL    HW2 5620   2.657   7.032   0.209 -0.6563  0.8170 -0.1389
 1596SOL     OW 5621   1.025   6.335   6.965  0.3795  0.4473 -0.1567
 1596SOL    HW1 5622   0.935   6.368   6.959 -0.3449 -1.3200  0.2052
 1596SOL    HW2 5623   1.023   6.275   7.039  2.6771  2.6699  1.8722
 1597SOL     OW 5624   6.912   0.221   7.932 -0.2731  0.7926 -0.2264
 1597SOL    HW1 5625   6.860   0.170   7.994 -0.0552  0.4778 -0.2993
 1597SOL    HW2 5626   7.001   0.215   7.965 -0.0266 -0.0377 -0.9929
 1598SOL     OW 5627   4.414   7.621   4.411  0.0354  0.2029  1.0172
 1598SOL    HW1 5628   4.393   7.605   4.319  1.6963 -0.6321  0.7475
 1598SOL    HW2 5629   4.497   7.576   4.424  0.6507  1.6983  2.5040
 1599SOL     OW 5630   7.598   2.732   5.764 -0.3015  0.3033  0.2031
 1599SOL    HW1 5631   7.559   2.745   5.851  0.6661 -0.1672  0.7202
 1599SOL    HW2 5632   7.666   2.666   5.778 -0.7474 -0.4542 -1.0969
 1600SOL     OW 5633   5.773   3.812   2.498 -0.0216  0.2826  0.1712
 1600SOL    HW1 5634   5.696   3.756   2.494  0.5596 -0.5078 -0.1616
 1600SOL    HW2 5635   5.799   3.824   2.406  0.5419  0.1233  0.3031
 1601SOL     OW 5636   6.364   1.364   3.495 -0.1170  0.4174 -0.0100
 1601SOL    HW1 5637   6.270   1.349   3.483 -0.0070 -0.9241  0.6616
 1601SOL    HW2 5638   6.396   1.387   3.408 -1.0643  0.9495 -0.2412
 1602SOL     OW 5639   2.945   6.856   2.496  0.2575  0.4677  0.0406
 1602SOL    HW1 5640   2.939   6.945   2.531  0.9591 -1.1441  5.0963
 1602SOL    HW2 5641   3.037   6.834   2.503  0.2523 -0.4075 -2.1204
 1603SOL     OW 5642   2.925   7.489   1.473  0.0313  0.0741 -0.1468
 1603SOL    HW1 5643   2.855   7.444   1.426 -1.1899  0.6488  1.0785
 1603SOL    HW2 5644   3.003   7.474   1.419 -0.6815 -1.9701 -0.6960
 1604SOL     OW 5645   0.508   2.001   4.550  0.3537 -0.0951  0.2383
 1604SOL    HW1 5646   0.473   2.042   4.629  0.5401 -0.7492  0.6701
 1604SOL    HW2 5647   0.466   1.915   4.548  1.0990 -0.4631  0.1639
 1605SOL     OW 5648   1.029   7.946   2.759  0.2165 -0.5047  0.1708
 1605SOL    HW1 5649   0.968   7.960   2.687 -0.8577  0.0638  1.1631
 1605SOL    HW2 5650   0.974   7.917   2.832  1.1706 -0.2532  1.0162
 1606SOL     OW 5651   3.318   6.958   7.147  0.2147 -0.0226 -0.6581
 1606SOL    HW1 5652   3.290   7.032   7.201  0.7620 -0.5205  0.3422
 1606SOL    HW2 5653   3.287   6.979   7.059  0.4918  1.4707 -0.4244
 1607SOL     OW 5654   7.692   5.950   3.556  0.1214  0.3113 -0.5325
 1607SOL    HW1 5655   7.698   5.991   3.469 -0.3577  2.6442  0.4755
 1607SOL    HW2 5656   7.783   5.934   3.580  0.2276 -2.6446 -2.3956
 1608SOL     OW 5657   5.754   2.183   5.515  0.1083 -0.7493  0.9472
 1608SOL    HW1 5658   5.660   2.166   5.507 -0.1505  0.4219  1.2064
 1608SOL    HW2 5659   5.792   2.147   5.435 -1.1043  2.1089 -1.1145
 1609SOL     OW 5660   3.700   0.704   2.724  0.1109  0.1183 -0.1185
 1609SOL    HW1 5661   3.612   0.694   2.758 -0.5230  0.8090 -1.4836
 1609SOL    HW2 5662   3.689   0.721   2.630  1.7328 -0.7339 -0.5150
 1610SOL     OW 5663   0.033   2.833   1.410  0.4120  0.4692  0.3009
 1610SOL    HW1 5664   0.025   2.737   1.408  0.2947  0.4687  0.8145
 1610SOL    HW2 5665   0.042   2.854   1.502  0.0822  0.9913  0.2118
 1611SOL     OW 5666   5.990   6.016   3.597 -0.8418  0.0416  0.1617
 1611SOL    HW1 5667   5.903   6.003   3.560 -1.2925  1.9913  0.4200
 1611SOL    HW2 5668   5.985   5.977   3.685 -1.1814 -0.5498 -0.1100
 1612SOL     OW 5669   4.165   6.584   0.299  0.2640 -0.1992 -0.5319
 1612SOL    HW1 5670   4.106   6.648   0.260  0.2874  0.3203  0.2653
 1612SOL    HW2 5671   4.253   6.611   0.270  0.3127  0.3811  0.1282
 1613SOL     OW 5672   1.665   2.992   6.138  0.4200  0.0604  0.0825
 1613SOL    HW1 5673   1.695   2.919   6.192 -0.1258 -0.4346 -0.2731
 1613SOL    HW2 5674   1.655   2.955   6.051 -2.2694 -0.1283  0.3827
 1614SOL     OW 5675   0.726   5.356   6.989  0.1093  0.1056 -0.1041
 1614SOL    HW1 5676   0.807   5.391   6.952 -1.1721  1.9542 -1.3582
 1614SOL    HW2 5677   0.722   5.392   7.077  0.7911 -0.2376  0.0696
 1615SOL     OW 5678   0.131   3.044   6.095 -0.4358  0.2146  0.2680
 1615SOL    HW1 5679   0.171   3.031   6.009 -1.1581  0.9881 -0.2073
 1615SOL    HW2 5680   0.149   3.136   6.116 -1.1187  0.3078  0.4795
 1616SOL     OW 5681   1.921   4.344   4.204  0.3729 -0.2133  0.5059
 1616SOL    HW1 5682   2.009   4.330   4.238  1.1911  1.6470 -0.6839
 1616SOL    HW2 5683   1.921   4.436   4.176 -1.4730 -0.5931 -0.8961
 1617SOL     OW 5684   1.212   6.461   2.122 -0.2496 -0.1138 -0.2589
 1617SOL    HW1 5685   1.159   6.449   2.043 -0.1810 -1.5454 -0.1173
 1617SOL    HW2 5686   1.199   6.380   2.172  2.2603 -0.6677 -0.3445
 1618SOL     OW 5687   7.777   5.613   7.044 -0.1951  0.4097  0.0694
 1618SOL    HW1 5688   7.785   5.646   7.134  0.1748 -0.2241  0.2783
 1618SOL    HW2 5689   7.847   5.657   6.996 -0.6519  1.0608 -0.0065
 1619SOL     OW 5690   3.431   4.548   0.937  0.3815  0.0137 -0.6894
 1619SOL    HW1 5691   3.525   4.534   0.953  0.4144  0.8616 -0.1176
 1619SOL    HW2 5692   3.390   4.465   0.962  0.9520 -0.2777 -0.7044
 1620SOL     OW 5693   7.411   4.822   3.296 -0.3774  0.5710  0.0004
 1620SOL    HW1 5694   7.326   4.815   3.340 -0.4699  0.4745 -0.1930
 1620SOL    HW2 5695   7.437   4.913   3.309 -1.7311  1.3465 -2.1573
 1621SOL     OW 5696   7.711   6.053   7.728  0.0084 -0.3447 -0.0301
 1621SOL    HW1 5697   7.799   6.089   7.742 -0.7588  2.4375 -1.4817
 1621SOL    HW2 5698   7.682   6.095   7.647 -2.2734 -1.9982 -0.1298
 1622SOL     OW 5699   4.835   3.681   2.344  0.7184  0.3253 -0.0195
 1622SOL    HW1 5700   4.846   3.610   2.407 -0.5839 -0.2700 -0.4301
 1622SOL    HW2 5701   4.818   3.758   2.398 -1.1801 -0.3317  0.3840
 1623SOL     OW 5702   6.168   5.985   5.484  0.1950 -0.3186  0.2686
 1623SOL    HW1 5703   6.152   6.079   5.495 -0.6328 -0.3569 -0.4601
 1623SOL    HW2 5704   6.134   5.945   5.564  0.3969 -0.0144  0.5083
 1624SOL     OW 5705   0.627   0.791   6.994  0.2411  0.9719  0.0148
 1624SOL    HW1 5706   0.687   0.721   6.966 -0.2653  1.0750 -1.4154
 1624SOL    HW2 5707   0.583   0.756   7.071  1.0587  0.3097  0.1965
 1625SOL     OW 5708   5.494   2.644   3.744 -0.3643  0.7127 -0.3270
 1625SOL    HW1 5709   5.452   2.687   3.670 -1.0752 -1.1524 -1.0789
 1625SOL    HW2 5710   5.421   2.615   3.799 -0.0680 -1.1109 -0.8125
 1626SOL     OW 5711   2.513   7.305   0.249 -0.1555  0.2265  0.4251
 1626SOL    HW1 5712   2.507   7.398   0.229  1.0961  0.0859 -0.7429
 1626SOL    HW2 5713   2.484   7.261   0.169 -0.7826 -0.3999  0.9831
 1627SOL     OW 5714   3.495   7.449   4.978  0.4735 -0.0352 -0.2058
 1627SOL    HW1 5715   3.475   7.542   4.970 -0.5009 -0.1908  0.2850
 1627SOL    HW2 5716   3.553   7.430   4.904 -0.8451  0.5509 -1.4257
 1628SOL     OW 5717   3.278   5.286   1.663  0.1425  0.0670  0.2132
 1628SOL    HW1 5718   3.195   5.249   1.634  0.6819 -1.0002 -0.0152
 1628SOL    HW2 5719   3.345   5.226   1.629  1.0550  1.2172 -0.1104
 1629SOL     OW 5720   7.243   5.044   3.924 -0.2549 -0.5030 -0.0264
 1629SOL    HW1 5721   7.166   4.993   3.950 -1.2330  0.7125 -0.4227
 1629SOL    HW2 5722   7.210   5.134   3.916  0.8627 -0.2026 -1.6876
 1630SOL     OW 5723   1.364   4.315   2.912  0.3608 -0.1744  0.1733
 1630SOL    HW1 5724   1.319   4.243   2.867  0.3835 -0.3548  0.4338
 1630SOL    HW2 5725   1.333   4.394   2.868  0.4359 -0.3517 -0.2038
 1631SOL     OW 5726   2.063   7.216   1.751 -0.8156 -0.5322  0.1364
 1631SOL    HW1 5727   2.051   7.310   1.745  1.0542 -0.2225  0.5175
 1631SOL    HW2 5728   2.049   7.184   1.662  0.7721  0.4424 -0.5092
 1632SOL     OW 5729   0.720   7.789   7.722  0.0701  0.4581  0.1244
 1632SOL    HW1 5730   0.662   7.730   7.771 -0.5641  0.2364 -0.8655
 1632SOL    HW2 5731   0.692   7.780   7.631  2.8267 -1.0106 -0.6696
 1633SOL     OW 5732   3.792   4.144   6.618  0.3507 -0.3269 -0.0706
 1633SOL    HW1 5733   3.751   4.058   6.618  1.2563 -0.7675 -0.0886
 1633SOL    HW2 5734   3.846   4.145   6.697 -0.7176  0.7540  0.6800
 1634SOL     OW 5735   0.257   0.133   7.581 -0.2125 -0.6052 -0.0124
 1634SOL    HW1 5736   0.317   0.130   7.507  1.2156 -0.6461  1.1041
 1634SOL    HW2 5737   0.231   0.041   7.595  2.0420 -1.1115  1.4586
 1635SOL     OW 5738   0.025   2.039   0.188  0.2373  0.4595  0.2594
 1635SOL    HW1 5739  -0.009   2.129   0.180  0.5901  0.6364  0.6968
 1635SOL    HW2 5740  -0.017   1.991   0.117 -1.0173  0.6430  0.8418
 1636SOL     OW 5741   3.870   4.502   6.393  0.0444 -0.1979  0.0683
 1636SOL    HW1 5742   3.845   4.591   6.416  3.5453  1.2510 -1.1063
 1636SOL    HW2 5743   3.819   4.482   6.314  0.4369  1.4422 -0.6398
 1637SOL     OW 5744   5.266   2.277   1.621  0.0639 -0.3743  0.1760
 1637SOL    HW1 5745   5.317   2.293   1.542 -0.9020 -1.4666 -0.6978
 1637SOL    HW2 5746   5.318   2.214   1.671  0.0216 -0.7961 -0.2951
 1638SOL     OW 5747   3.542   7.448   6.333 -0.0123 -0.0091  0.0750
 1638SOL    HW1 5748   3.586   7.521   6.290  0.3859 -1.0445 -1.3570
 1638SOL    HW2 5749   3.596   7.372   6.312 -1.5409 -1.0433 -0.2713
 1639SOL     OW 5750   7.050   5.031   3.175  0.2952 -0.1947 -0.6154
 1639SOL    HW1 5751   7.127   5.086   3.189 -0.0474  0.2193 -0.3356
 1639SOL    HW2 5752   7.014   5.060   3.091  0.1397 -0.0179 -0.4891
 1640SOL     OW 5753   4.366   7.799   7.133  0.3895 -0.0724 -0.1778
 1640SOL    HW1 5754   4.446   7.851   7.143  0.5583 -0.5747  1.3543
 1640SOL    HW2 5755   4.311   7.827   7.206  0.5805 -2.1682  0.8505
 1641SOL     OW 5756   0.996   0.093   6.575  0.1505  0.4402 -0.3274
 1641SOL    HW1 5757   1.076   0.064   6.531 -0.2151 -0.2263 -0.5720
 1641SOL    HW2 5758   1.022   0.172   6.622  0.5602  1.1882 -1.7482
 1642SOL     OW 5759   5.989   0.390   1.432  0.4839  0.0532 -0.1387
 1642SOL    HW1 5760   5.933   0.328   1.480  0.5131  0.1871  0.0684
 1642SOL    HW2 5761   6.075   0.347   1.430  0.2325 -0.4480 -1.0118
 1643SOL     OW 5762   3.131   2.713   3.683 -0.2937 -0.3695  0.7005
 1643SOL    HW1 5763   3.045   2.749   3.705  0.4861  2.6480 -0.6524
 1643SOL    HW2 5764   3.192   2.760   3.740  0.8307  0.8986 -1.4262
 1644SOL     OW 5765   0.881   0.216   0.665  0.1611 -0.0460 -0.7369
 1644SOL    HW1 5766   0.929   0.160   0.604 -0.6384  1.1165 -2.5533
 1644SOL    HW2 5767   0.817   0.158   0.706  1.7848 -1.1987  0.2755
 1645SOL     OW 5768   3.969   2.692   6.110 -0.2220  0.2524  0.2149
 1645SOL    HW1 5769   3.912   2.739   6.049  1.2984 -1.1839 -2.4997
 1645SOL    HW2 5770   4.043   2.751   6.123  0.1653 -0.0282 -0.6128
 1646SOL     OW 5771   2.939   6.405   1.293  0.4290 -0.2842  0.0287
 1646SOL    HW1 5772   2.934   6.500   1.305  0.1514 -0.4158  1.0322
 1646SOL    HW2 5773   2.904   6.390   1.205  0.3749  0.5307 -0.0933
 1647SOL     OW 5774   1.303   2.772   2.566 -0.0434 -0.0535 -0.1862
 1647SOL    HW1 5775   1.361   2.705   2.602  1.9666  1.4213 -0.4721
 1647SOL    HW2 5776   1.216   2.733   2.568  0.8295 -2.0795  1.0343
 1648SOL     OW 5777   2.775   3.123   5.635 -0.4346  0.6014 -0.6365
 1648SOL    HW1 5778   2.860   3.160   5.661  0.2134 -0.9507 -0.4441
 1648SOL    HW2 5779   2.796   3.036   5.602 -1.7973  0.7950 -2.0867
 1649SOL     OW 5780   7.910   6.994   3.122 -0.5364 -0.4583 -0.4660
 1649SOL    HW1 5781   7.911   6.999   3.026  1.6430  0.1987 -0.4708
 1649SOL    HW2 5782   7.892   7.084   3.151 -0.8356 -0.5862 -0.2403
 1650SOL     OW 5783   1.307   1.561   3.949  0.0010  0.0161  0.7540
 1650SOL    HW1 5784   1.323   1.598   3.862 -0.3738  0.8875  1.0456
 1650SOL    HW2 5785   1.325   1.468   3.938  0.7363  0.2296 -0.0627
 1651SOL     OW 5786   3.853   5.226   5.103 -0.2356 -0.2267  0.1693
 1651SOL    HW1 5787   3.907   5.287   5.052 -1.4385  1.0067  0.3231
 1651SOL    HW2 5788   3.829   5.158   5.040 -1.5015  1.1485 -0.9092
 1652SOL     OW 5789   2.063   7.322   7.339 -0.1548 -0.3717  0.6781
 1652SOL    HW1 5790   1.969   7.315   7.322 -0.1487  1.1882 -0.2198
 1652SOL    HW2 5791   2.093   7.232   7.347 -1.3152 -1.0133 -1.4048
 1653SOL     OW 5792   3.800   5.260   0.277 -0.1288  0.5895 -0.1004
 1653SOL    HW1 5793   3.715   5.238   0.238 -0.7849  0.5867  1.2858
 1653SOL    HW2 5794   3.780   5.328   0.341  0.9432  0.6562  0.1762
 1654SOL     OW 5795   3.660   3.328   5.476 -0.0697 -0.2722 -0.0784
 1654SOL    HW1 5796   3.582   3.310   5.424 -0.6589  2.1756 -0.1457
 1654SOL    HW2 5797   3.729   3.276   5.434 -1.2662 -1.0768 -1.1264
 1655SOL     OW 5798   0.355   3.410   3.775 -0.2312  0.5684 -0.1376
 1655SOL    HW1 5799   0.442   3.391   3.738 -0.8341  0.5539 -1.6230
 1655SOL    HW2 5800   0.326   3.326   3.811 -0.1023  0.2766 -0.6927
 1656SOL     OW 5801   2.385   3.586   5.160 -0.3268 -0.4937 -0.3448
 1656SOL    HW1 5802   2.295   3.611   5.136 -0.5275 -0.5013  0.3814
 1656SOL    HW2 5803   2.374   3.523   5.231  0.2636  0.2312  0.4130
 1657SOL     OW 5804   0.631   2.694   0.261 -0.1268 -0.3169 -0.1674
 1657SOL    HW1 5805   0.695   2.679   0.329  0.1121 -0.3955 -0.4087
 1657SOL    HW2 5806   0.548   2.663   0.298  0.1251 -1.0114 -0.1788
 1658SOL     OW 5807   5.801   1.320   7.933 -0.3103 -0.2447 -0.6078
 1658SOL    HW1 5808   5.708   1.308   7.949 -0.1607  0.7068  1.2994
 1658SOL    HW2 5809   5.838   1.232   7.935 -0.7980 -0.4382  1.4090
 1659SOL     OW 5810   2.423   2.376   3.171  0.0459  0.5912  0.7943
 1659SOL    HW1 5811   2.478   2.351   3.097 -1.0047  0.8608 -0.1025
 1659SOL    HW2 5812   2.390   2.463   3.148 -0.5925  0.5169  1.3966
 1660SOL     OW 5813   0.132   0.014   5.750 -1.1584 -0.8936 -0.4260
 1660SOL    HW1 5814   0.163  -0.036   5.825  0.8639  0.2102 -0.4500
 1660SOL    HW2 5815   0.049   0.054   5.779 -0.2218 -0.1666  1.3861
 1661SOL     OW 5816   1.934   7.775   1.235 -0.0567  0.0759  0.1171
 1661SOL    HW1 5817   1.973   7.834   1.300  0.5172 -0.4035  0.2208
 1661SOL    HW2 5818   1.876   7.718   1.286  0.6666 -0.5361  0.2805
 1662SOL     OW 5819   2.834   2.711   2.559 -0.1417  0.4047 -0.0464
 1662SOL    HW1 5820   2.888   2.671   2.626 -0.7318  1.0103  0.8019
 1662SOL    HW2 5821   2.817   2.800   2.590 -2.0442  0.0829  0.0018
 1663SOL     OW 5822   3.728   2.343   0.333 -0.1712 -0.0287 -0.1923
 1663SOL    HW1 5823   3.791   2.274   0.311 -1.7449 -1.2843 -0.9330
 1663SOL    HW2 5824   3.656   2.297   0.376 -0.4176  1.4400  1.0677
 1664SOL     OW 5825   1.592   3.334   5.486  0.2304  0.2491 -0.2339
 1664SOL    HW1 5826   1.600   3.428   5.503  0.6403  0.3078 -0.7475
 1664SOL    HW2 5827   1.556   3.329   5.398  2.4097 -0.0884 -1.1515
 1665SOL     OW 5828   0.538   5.079   4.676 -0.0461 -0.2580  0.5198
 1665SOL    HW1 5829   0.622   5.091   4.719  0.2714  0.3350 -0.2596
 1665SOL    HW2 5830   0.559   5.032   4.595 -0.6521 -1.4641  1.0320
 1666SOL     OW 5831   1.407   0.639   0.249  0.2885  0.2886 -0.2171
 1666SOL    HW1 5832   1.346   0.659   0.320 -0.1903 -2.8817  0.3786
 1666SOL    HW2 5833   1.465   0.573   0.285  1.2046 -0.0882 -2.2375
 1667SOL     OW 5834   1.032   4.289   0.333  0.5207  0.0216 -0.2160
 1667SOL    HW1 5835   0.984   4.364   0.369  1.2557 -0.7607  2.6929
 1667SOL    HW2 5836   0.965   4.238   0.287 -0.0596  2.1960 -1.9389
 1668SOL     OW 5837   1.912   2.163   4.427  0.2182 -0.2235  0.6668
 1668SOL    HW1 5838   1.924   2.199   4.339  0.8323  2.2004  1.6386
 1668SOL    HW2 5839   1.847   2.094   4.417 -0.2396  0.4587 -1.5710
 1669SOL     OW 5840   3.084   5.198   7.753 -0.3290  0.6842  0.5491
 1669SOL    HW1 5841   3.120   5.277   7.711  0.0631  0.5326  0.5988
 1669SOL    HW2 5842   3.025   5.161   7.687  0.9777 -0.0655 -0.2472
 1670SOL     OW 5843   7.315   7.631   1.790 -0.2502  0.5081 -0.1603
 1670SOL    HW1 5844   7.341   7.597   1.705  0.2982 -1.5567  0.7854
 1670SOL    HW2 5845   7.397   7.649   1.835 -0.4998 -0.3408  0.6568
 1671SOL     OW 5846   1.596   6.702   6.176  0.8392 -0.3195  0.4817
 1671SOL    HW1 5847   1.604   6.795   6.195  0.8197 -0.7290  2.8278
 1671SOL    HW2 5848   1.505   6.691   6.145  1.0849  0.5166 -0.5890
 1672SOL     OW 5849   3.822   5.458   7.017  0.0945  0.4762 -0.2071
 1672SOL    HW1 5850   3.907   5.500   7.025  0.0926  0.7562 -1.4053
 1672SOL    HW2 5851   3.824   5.418   6.930 -1.5362  1.7631 -0.8976
 1673SOL     OW 5852   5.335   7.450   7.206  0.7751  0.4784  0.5866
 1673SOL    HW1 5853   5.317   7.435   7.113  1.4449 -0.5567  0.6081
 1673SOL    HW2 5854   5.425   7.483   7.209  0.5647  1.0405  0.8307
 1674SOL     OW 5855   2.683   4.773   5.540 -0.2480 -0.2698  0.0691
 1674SOL    HW1 5856   2.626   4.842   5.504 -0.9700  1.1412  3.4859
 1674SOL    HW2 5857   2.631   4.693   5.535 -0.4059 -0.0890 -1.6319
 1675SOL     OW 5858   6.513   1.836   7.081 -0.5107 -0.4396 -0.5653
 1675SOL    HW1 5859   6.524   1.752   7.125  2.3506 -0.0101 -0.2646
 1675SOL    HW2 5860   6.600   1.875   7.081 -1.8426  2.9400  0.0725
 1676SOL     OW 5861   7.730   0.056   3.351  0.5830  0.4670  0.1334
 1676SOL    HW1 5862   7.686   0.109   3.284 -0.7670 -1.9381 -1.0044
 1676SOL    HW2 5863   7.663  -0.007   3.379  2.5542 -1.6693  0.2658
 1677SOL     OW 5864   1.212   2.793   0.392 -0.3385  0.2083  0.0465
 1677SOL    HW1 5865   1.129   2.841   0.397 -1.3827 -1.3587 -1.2685
 1677SOL    HW2 5866   1.207   2.729   0.463 -0.5676 -0.3198 -0.4378
 1678SOL     OW 5867   1.848   0.426   2.848 -0.3216 -0.2478  0.4000
 1678SOL    HW1 5868   1.824   0.454   2.937  0.3096  2.6370 -0.2219
 1678SOL    HW2 5869   1.926   0.477   2.828  0.3479 -1.8640 -1.3497
 1679SOL     OW 5870   4.753   1.255   1.383 -0.1423 -0.0336  0.0942
 1679SOL    HW1 5871   4.828   1.313   1.379 -1.9105  2.3598 -0.9535
 1679SOL    HW2 5872   4.774   1.193   1.453  2.0017  1.6565  1.0533
 1680SOL     OW 5873   1.417   0.005   7.763  0.0701  0.4338  0.8225
 1680SOL    HW1 5874   1.359  -0.067   7.787  0.7733  0.0150  1.2967
 1680SOL    HW2 5875   1.358   0.073   7.731 -0.6086 -0.3513  0.3435
 1681SOL     OW 5876   5.485   1.799   4.319 -0.2102  0.3056 -0.0913
 1681SOL    HW1 5877   5.397   1.820   4.289 -0.6464  1.4621  1.7931
 1681SOL    HW2 5878   5.541   1.812   4.243 -1.4305  1.5304 -0.8255
 1682SOL     OW 5879   0.113   6.653   5.244 -0.3046  0.2671 -0.2557
 1682SOL    HW1 5880   0.181   6.696   5.191  0.5003 -0.7036 -0.0524
 1682SOL    HW2 5881   0.138   6.673   5.334 -1.9505  2.3357 -0.1835
 1683SOL     OW 5882   2.381   5.233   1.764  0.1154 -0.5565  0.8515
 1683SOL    HW1 5883   2.355   5.269   1.849 -0.0796  1.0568  0.1353
 1683SOL    HW2 5884   2.379   5.308   1.705  0.6313 -1.5846 -0.5010
 1684SOL     OW 5885   4.316   3.825   3.753  0.4266  0.3034 -0.1971
 1684SOL    HW1 5886   4.331   3.887   3.682  0.3544  0.2581 -0.2526
 1684SOL    HW2 5887   4.267   3.753   3.713 -0.2051  0.5900  0.0392
 1685SOL     OW 5888   2.909   6.387   5.697  1.0454  0.2379  0.5040
 1685SOL    HW1 5889   2.946   6.413   5.613  1.5623 -1.0180  0.3318
 1685SOL    HW2 5890   2.962   6.313   5.726  0.5310  0.3007  1.6769
 1686SOL     OW 5891   6.620   0.478   5.951  0.1485 -0.3219 -0.0763
 1686SOL    HW1 5892   6.616   0.384   5.932 -0.8832 -0.1301 -0.8833
 1686SOL    HW2 5893   6.529   0.504   5.964  0.1634  0.9799 -2.1070
 1687SOL     OW 5894   1.672   3.875   6.249  0.3115  0.3874 -0.5238
 1687SOL    HW1 5895   1.682   3.970   6.253  1.6101  0.2443  0.1355
 1687SOL    HW2 5896   1.580   3.859   6.272 -0.6472  1.6029 -3.0900
 1688SOL     OW 5897   5.131   5.956   0.180  0.2474 -0.3341  0.2664
 1688SOL    HW1 5898   5.082   6.021   0.229 -3.9495 -1.8046 -1.5173
 1688SOL    HW2 5899   5.150   5.886   0.243  1.0777  0.7111  1.2172
 1689SOL     OW 5900   3.320   5.856   5.407  0.2760  0.2338  0.2714
 1689SOL    HW1 5901   3.405   5.817   5.428 -0.6990 -1.4847  1.3182
 1689SOL    HW2 5902   3.267   5.782   5.376 -1.2692  0.9503  1.0781
 1690SOL     OW 5903   0.323   0.413   7.693  0.6677 -0.5209 -0.1497
 1690SOL    HW1 5904   0.357   0.347   7.754  1.3934  0.2457  0.3011
 1690SOL    HW2 5905   0.345   0.379   7.607  0.8566 -0.9704  0.0722
 1691SOL     OW 5906   2.173   2.518   3.730 -0.1104  0.3034 -0.1438
 1691SOL    HW1 5907   2.142   2.608   3.746  2.6153  1.0686  1.5596
 1691SOL    HW2 5908   2.268   2.526   3.727  0.1919 -2.4741 -0.7072
 1692SOL     OW 5909   2.660   5.994   6.297  0.3645 -0.1171  0.2064
 1692SOL    HW1 5910   2.691   5.904   6.307 -0.0780 -0.3869 -0.7584
 1692SOL    HW2 5911   2.696   6.022   6.213 -0.4124  0.2253 -0.0208
 1693SOL     OW 5912   7.400   6.938   6.003  0.2612 -0.1024  0.0060
 1693SOL    HW1 5913   7.453   6.905   6.076  0.0585  1.1167  0.7344
 1693SOL    HW2 5914   7.323   6.978   6.045 -0.6421 -0.7787 -0.9704
 1694SOL     OW 5915   6.650   5.487   5.505 -0.2602  0.3263  0.0870
 1694SOL    HW1 5916   6.664   5.580   5.524 -0.3915  0.1611  0.9868
 1694SOL    HW2 5917   6.572   5.486   5.449 -1.6847  0.5935  1.9876
 1695SOL     OW 5918   7.189   4.487   5.849  0.2624 -0.1927 -0.8477
 1695SOL    HW1 5919   7.105   4.478   5.894  0.8110  2.0779  0.8179
 1695SOL    HW2 5920   7.166   4.524   5.763 -0.5337 -0.9844 -0.9841
 1696SOL     OW 5921   2.322   2.311   7.596 -0.0734 -0.0015  0.8396
 1696SOL    HW1 5922   2.407   2.278   7.567 -0.1161  0.2288  0.4473
 1696SOL    HW2 5923   2.294   2.248   7.662 -1.1485 -2.0207 -1.3902
 1697SOL     OW 5924   7.653   4.388   3.847  0.1529 -0.2292 -0.1054
 1697SOL    HW1 5925   7.687   4.319   3.903  0.7897  2.0045  2.4596
 1697SOL    HW2 5926   7.686   4.469   3.886 -1.3454  1.6015 -2.3839
 1698SOL     OW 5927   5.147   7.043   2.359  0.1287  0.1873 -0.0992
 1698SOL    HW1 5928   5.080   7.087   2.411 -0.9730 -1.1415 -0.3266
 1698SOL    HW2 5929   5.218   7.107   2.352 -0.8946  1.4494  0.5805
 1699SOL     OW 5930   4.420   3.087   5.997  0.0601 -0.0090 -0.1876
 1699SOL    HW1 5931   4.330   3.062   6.018 -0.2764  1.5548  0.3577
 1699SOL    HW2 5932   4.473   3.030   6.054 -0.5360 -1.1688 -0.7418
 1700SOL     OW 5933   4.940   7.632   2.852  0.1954  0.6727  0.2750
 1700SOL    HW1 5934   4.974   7.720   2.839 -0.4007  1.1499  1.6997
 1700SOL    HW2 5935   4.995   7.595   2.921 -0.0145  0.2073  0.1983
 1701SOL     OW 5936   2.776   3.180   4.293  0.7229 -0.0153 -0.3371
 1701SOL    HW1 5937   2.865   3.168   4.327  0.3479 -0.2978  0.5659
 1701SOL    HW2 5938   2.749   3.265   4.327 -0.6281 -1.4049  2.3786
 1702SOL     OW 5939   3.115   5.415   0.259  0.5820 -0.1494  0.2791
 1702SOL    HW1 5940   3.030   5.458   0.266  1.1710  1.2730 -0.7440
 1702SOL    HW2 5941   3.128   5.402   0.165  2.2830  1.4232  0.2270
 1703SOL     OW 5942   4.454   0.751   3.403  0.2169  0.0809  0.1092
 1703SOL    HW1 5943   4.395   0.694   3.354 -0.8278  1.0531  0.2052
 1703SOL    HW2 5944   4.433   0.734   3.495 -1.8568  2.3321  0.1387
 1704SOL     OW 5945   0.532   0.680   7.533 -0.0762  0.1112  0.2531
 1704SOL    HW1 5946   0.483   0.679   7.615  2.8886 -2.0086  2.2250
 1704SOL    HW2 5947   0.492   0.611   7.481 -1.6681  1.1375  0.0257
 1705SOL     OW 5948   3.611   1.835   7.264 -0.0040 -0.3641 -0.3246
 1705SOL    HW1 5949   3.617   1.917   7.214  2.8638 -0.9136 -1.0579
 1705SOL    HW2 5950   3.580   1.771   7.201 -1.8263  0.0040  0.1391
 1706SOL     OW 5951   0.625   4.476   2.134  0.0271 -0.0732  0.2340
 1706SOL    HW1 5952   0.712   4.440   2.118 -0.2255 -0.6424  0.0959
 1706SOL    HW2 5953   0.568   4.399   2.139 -0.6910  0.3255 -1.0740
 1707SOL     OW 5954   1.397   1.346   0.093  0.4197 -0.8023 -0.3954
 1707SOL    HW1 5955   1.472   1.287   0.087  0.8000 -0.6728  2.0573
 1707SOL    HW2 5956   1.320   1.288   0.096  0.6872 -1.1212  0.5597
 1708SOL     OW 5957   0.420   0.204   1.097 -0.1489  0.0696  0.2042
 1708SOL    HW1 5958   0.329   0.235   1.100 -0.7048 -1.3772 -0.7254
 1708SOL    HW2 5959   0.422   0.141   1.025  0.7376 -2.5292  2.3273
 1709SOL     OW 5960   4.753   0.201   5.592  0.0894  0.0539  0.0629
 1709SOL    HW1 5961   4.697   0.184   5.517 -0.0219 -1.7458  0.5171
 1709SOL    HW2 5962   4.825   0.138   5.584 -1.0985 -1.8031  2.6282
 1710SOL     OW 5963   3.723   0.435   1.121 -0.0497 -0.0530  0.2496
 1710SOL    HW1 5964   3.801   0.465   1.076  0.8168  0.0238  1.7358
 1710SOL    HW2 5965   3.721   0.341   1.104  0.8667 -0.2055  0.8910
 1711SOL     OW 5966   1.821   3.353   5.770  0.3634  0.2122  0.2243
 1711SOL    HW1 5967   1.726   3.359   5.755  0.0697 -1.7607  0.9564
 1711SOL    HW2 5968   1.859   3.356   5.682 -0.3663  0.9726 -0.0826
 1712SOL     OW 5969   5.188   1.321   1.920 -0.8650  0.0923  0.2224
 1712SOL    HW1 5970   5.223   1.232   1.931 -0.6125  0.1955  0.2467
 1712SOL    HW2 5971   5.133   1.335   1.997  0.4412  0.6003  1.0754
 1713SOL     OW 5972   3.372   1.057   5.394 -0.1030 -0.2230 -0.3358
 1713SOL    HW1 5973   3.286   1.019   5.374  0.0145 -0.6086 -0.1236
 1713SOL    HW2 5974   3.394   1.022   5.481 -0.0437  0.4324 -0.0835
 1714SOL     OW 5975   7.309   1.275   2.607  0.6192 -0.6863  0.2667
 1714SOL    HW1 5976   7.347   1.229   2.682  1.7299 -1.4976 -0.7646
 1714SOL    HW2 5977   7.364   1.251   2.533 -1.2011 -0.9800 -1.0865
 1715SOL     OW 5978   3.520   3.333   1.722  0.3985 -0.1453  0.0641
 1715SOL    HW1 5979   3.612   3.360   1.721  0.0047  1.3621  1.5005
 1715SOL    HW2 5980   3.513   3.276   1.799 -0.2444  1.2772  1.0936
 1716SOL     OW 5981   3.925   5.816   0.207  0.5660 -0.1069 -0.2070
 1716SOL    HW1 5982   3.951   5.755   0.138  2.9343  0.9944 -0.4096
 1716SOL    HW2 5983   3.926   5.902   0.165 -3.8606  0.1173 -0.2283
 1717SOL     OW 5984   0.305   0.510   1.249 -0.1572 -0.1654  0.0883
 1717SOL    HW1 5985   0.280   0.425   1.212 -1.6146 -0.6051  1.9497
 1717SOL    HW2 5986   0.291   0.571   1.177 -1.6348 -1.1666 -0.5476
 1718SOL     OW 5987   6.912   6.523   7.690 -0.1458  0.1885 -0.3493
 1718SOL    HW1 5988   6.989   6.516   7.747 -0.8345 -4.2811  0.3944
 1718SOL    HW2 5989   6.946   6.505   7.602 -0.1233 -0.4262 -0.2183
 1719SOL     OW 5990   7.788   0.975   5.273  0.1518 -0.1648  0.0327
 1719SOL    HW1 5991   7.804   1.001   5.364  2.8333  1.1619 -0.7260
 1719SOL    HW2 5992   7.875   0.964   5.235 -0.8814 -2.1525 -2.0348
 1720SOL     OW 5993   1.525   4.773   2.894 -0.5173 -0.2035  0.2185
 1720SOL    HW1 5994   1.495   4.837   2.958  0.5987  0.2083  0.3568
 1720SOL    HW2 5995   1.596   4.726   2.938  0.2661  0.0864 -0.6903
 1721SOL     OW 5996   7.792   0.838   1.748 -0.0144 -0.2297  0.1346
 1721SOL    HW1 5997   7.770   0.931   1.743  0.1274 -0.0934  1.7450
 1721SOL    HW2 5998   7.838   0.828   1.831  2.1335 -1.3210 -1.0939
 1722SOL     OW 5999   3.781   2.214   7.361 -0.0333 -0.0619 -0.5685
 1722SOL    HW1 6000   3.811   2.228   7.450 -0.5840  0.3708 -0.4443
 1722SOL    HW2 6001   3.831   2.277   7.308  0.9052 -0.8936 -0.6994
 1723SOL     OW 6002   1.954   1.775   6.386 -0.0298  0.0479  0.0470
 1723SOL    HW1 6003   2.046   1.768   6.364 -0.0083  0.9856 -0.2079
 1723SOL    HW2 6004   1.924   1.854   6.341 -0.5404  0.7048  1.4735
 1724SOL     OW 6005   3.894   6.942   4.268  0.1296 -0.7120  0.0044
 1724SOL    HW1 6006   3.855   6.890   4.197 -0.3730  1.2069 -1.1977
 1724SOL    HW2 6007   3.965   6.888   4.301 -0.8113 -2.4544 -0.6952
 1725SOL     OW 6008   0.660   0.821   6.362  0.0079 -0.2813  0.0419
 1725SOL    HW1 6009   0.722   0.866   6.304  1.0770 -1.8573 -0.0944
 1725SOL    HW2 6010   0.715   0.789   6.434 -0.1823 -3.5283 -1.1038
 1726SOL     OW 6011   5.416   3.594   0.479  0.5226 -0.2081  0.4050
 1726SOL    HW1 6012   5.430   3.686   0.504  0.2743 -0.0040 -0.2023
 1726SOL    HW2 6013   5.501   3.552   0.494  0.6226  0.1094  0.7342
 1727SOL     OW 6014   5.601   4.224   7.450  0.4342 -0.0813  0.0886
 1727SOL    HW1 6015   5.518   4.265   7.424  1.1276  1.6860  0.4959
 1727SOL    HW2 6016   5.664   4.296   7.450  2.2425 -1.5582 -1.2511
 1728SOL     OW 6017   6.982   3.859   3.879 -0.3871 -0.6105  0.0848
 1728SOL    HW1 6018   6.956   3.900   3.962 -0.3159  0.0073 -0.1921
 1728SOL    HW2 6019   7.033   3.927   3.834  0.4191 -1.2798 -0.0389
 1729SOL     OW 6020   0.018   2.342   2.526 -0.4096 -0.1820 -0.2234
 1729SOL    HW1 6021   0.061   2.427   2.533 -1.4198  0.2107  2.3173
 1729SOL    HW2 6022  -0.054   2.355   2.466 -0.7441  0.8614  0.3899
 1730SOL     OW 6023   0.654   6.429   5.892  0.2837  0.2070 -0.0095
 1730SOL    HW1 6024   0.567   6.462   5.870  0.0276 -0.3865  0.0884
 1730SOL    HW2 6025   0.646   6.398   5.982 -0.4740 -3.2744 -1.1340
 1731SOL     OW 6026   5.132   5.378   3.610  0.0840  0.4869 -0.1626
 1731SOL    HW1 6027   5.037   5.388   3.616  0.1811  0.5488  3.5657
 1731SOL    HW2 6028   5.145   5.286   3.586 -0.8299  0.7759 -1.9661
 1732SOL     OW 6029   5.976   3.548   4.026  0.0460 -0.7195 -0.2953
 1732SOL    HW1 6030   5.914   3.588   4.088 -1.9103 -1.8033 -1.4275
 1732SOL    HW2 6031   5.994   3.617   3.962 -0.2711 -0.4986 -0.1517
 1733SOL     OW 6032   4.545   0.460   4.337  0.3037  0.4661 -0.0746
 1733SOL    HW1 6033   4.489   0.387   4.362  1.6480 -1.2070 -1.6623
 1733SOL    HW2 6034   4.619   0.454   4.398  0.2133  0.7859  0.0681
 1734SOL     OW 6035   1.742   0.294   1.790 -0.3425  0.5328 -0.5395
 1734SOL    HW1 6036   1.731   0.261   1.880 -2.6941  1.7896 -0.2899
 1734SOL    HW2 6037   1.809   0.362   1.797  1.4829 -1.2036 -0.2972
 1735SOL     OW 6038   0.961   0.047   3.595  0.0318 -0.0087  0.1733
 1735SOL    HW1 6039   0.916  -0.037   3.595 -0.1529  0.0743 -0.7449
 1735SOL    HW2 6040   0.903   0.105   3.645 -1.5828  0.4202 -2.0332
 1736SOL     OW 6041   5.230   5.568   6.436  0.2247 -0.1530  0.0213
 1736SOL    HW1 6042   5.240   5.603   6.525 -1.0730 -0.8037  0.4415
 1736SOL    HW2 6043   5.318   5.536   6.413  1.5900  3.4476 -0.4714
 1737SOL     OW 6044   2.913   4.156   1.900  0.1259  0.5225  0.4444
 1737SOL    HW1 6045   2.880   4.080   1.948  0.9014  0.1170  0.3396
 1737SOL    HW2 6046   2.995   4.178   1.943  0.3135  0.7994 -0.0479
 1738SOL     OW 6047   0.822   0.055   2.098 -0.0232  0.3112  0.0835
 1738SOL    HW1 6048   0.896  -0.001   2.120  0.8012  1.1872 -0.3971
 1738SOL    HW2 6049   0.861   0.140   2.077 -1.2449  1.1287  0.9453
 1739SOL     OW 6050   3.653   5.691   6.876 -0.1366 -0.1645 -0.6370
 1739SOL    HW1 6051   3.707   5.622   6.913 -0.8834 -0.4828 -0.0987
 1739SOL    HW2 6052   3.593   5.714   6.947 -1.8018 -0.9758 -1.7121
 1740SOL     OW 6053   3.130   5.331   2.591  0.0765  0.3585 -0.5873
 1740SOL    HW1 6054   3.039   5.350   2.570  0.3200  0.8686 -1.2061
 1740SOL    HW2 6055   3.166   5.414   2.620 -0.6126 -0.5657  3.4169
 1741SOL     OW 6056   7.459   1.325   7.221 -0.0774 -0.1927 -0.4031
 1741SOL    HW1 6057   7.371   1.315   7.185 -0.8096  0.4840  1.0989
 1741SOL    HW2 6058   7.487   1.411   7.191  0.7264 -1.0167 -2.1388
 1742SOL     OW 6059   5.284   7.888   1.113 -0.0897  0.0547 -0.5649
 1742SOL    HW1 6060   5.232   7.965   1.091 -1.0499 -0.7515 -1.2170
 1742SOL    HW2 6061   5.245   7.817   1.061  0.1895 -1.0582  0.6848
 1743SOL     OW 6062   0.046   5.399   3.890 -1.0329  0.7664 -0.3345
 1743SOL    HW1 6063   0.067   5.472   3.948 -2.4512  1.8201 -1.1018
 1743SOL    HW2 6064   0.100   5.327   3.923  0.8758  2.2875  0.0519
 1744SOL     OW 6065   2.669   6.415   5.839 -0.0589 -0.2893  0.2513
 1744SOL    HW1 6066   2.709   6.429   5.925 -1.0061  0.2279  0.6282
 1744SOL    HW2 6067   2.743   6.410   5.778  0.5920  0.0749  1.0004
 1745SOL     OW 6068   3.670   5.911   1.601 -0.3563 -0.4586  0.4029
 1745SOL    HW1 6069   3.613   5.972   1.648  0.1582  0.4733 -0.1466
 1745SOL    HW2 6070   3.627   5.897   1.517  0.9993  1.6459 -0.7485
 1746SOL     OW 6071   0.981   0.621   2.156 -0.0218 -0.9990 -0.1435
 1746SOL    HW1 6072   0.937   0.649   2.076 -0.4263 -0.7282  0.1670
 1746SOL    HW2 6073   1.051   0.563   2.126  1.6451  1.2479 -0.9117
 1747SOL     OW 6074   3.596   1.711   5.647  0.5986 -0.2807 -0.0654
 1747SOL    HW1 6075   3.534   1.784   5.650 -1.6138 -2.0356  0.2166
 1747SOL    HW2 6076   3.622   1.697   5.738  2.2818  1.0779 -0.2906
 1748SOL     OW 6077   4.651   3.062   7.870 -0.1582 -0.2546 -0.3626
 1748SOL    HW1 6078   4.681   3.150   7.893 -0.4115 -0.6568  1.7741
 1748SOL    HW2 6079   4.640   3.018   7.955  1.5602 -2.9047 -1.3996
 1749SOL     OW 6080   2.098   1.241   0.844  0.3389  0.8082 -0.0112
 1749SOL    HW1 6081   2.099   1.157   0.891  2.2185  0.8880  0.1814
 1749SOL    HW2 6082   2.106   1.216   0.752  0.6274  0.7491  0.0269
 1750SOL     OW 6083   0.662   5.068   6.133 -0.0611 -0.1236 -0.0946
 1750SOL    HW1 6084   0.680   5.126   6.059 -0.6796  0.5821  0.2910
 1750SOL    HW2 6085   0.595   5.008   6.100 -0.3990  0.2443 -0.0854
 1751SOL     OW 6086   2.624   4.189   5.746 -0.7990 -0.1015  0.6298
 1751SOL    HW1 6087   2.547   4.207   5.799 -1.0183 -1.1385  0.6973
 1751SOL    HW2 6088   2.594   4.125   5.681 -0.3530  0.5792 -0.2741
 1752SOL     OW 6089   6.691   5.148   0.118  0.0748 -0.8145  1.0131
 1752SOL    HW1 6090   6.636   5.100   0.055  0.5709  0.4314 -0.4016
 1752SOL    HW2 6091   6.692   5.238   0.086  1.8375 -0.5237  1.7881
 1753SOL     OW 6092   2.689   4.397   3.270  0.0444  0.6273 -0.4280
 1753SOL    HW1 6093   2.753   4.413   3.339  0.7162  0.5319 -1.0137
 1753SOL    HW2 6094   2.616   4.455   3.292 -0.4121 -0.5092  1.1888
 1754SOL     OW 6095   4.163   6.321   5.098 -0.2865  0.2141 -0.1568
 1754SOL    HW1 6096   4.226   6.390   5.115  1.1500 -1.3640  1.3591
 1754SOL    HW2 6097   4.206   6.264   5.034  0.4378 -1.5350  1.7925
 1755SOL     OW 6098   4.667   0.676   4.883 -0.0600  0.4308  0.0233
 1755SOL    HW1 6099   4.602   0.661   4.952  0.8058 -1.0484  0.5609
 1755SOL    HW2 6100   4.641   0.759   4.844 -1.9257  0.1869  0.6176
 1756SOL     OW 6101   7.936   4.723   7.230  0.1200  0.1063 -0.6971
 1756SOL    HW1 6102   7.988   4.792   7.271 -1.5859  1.6776 -1.0421
 1756SOL    HW2 6103   7.893   4.679   7.304 -2.7110  2.7386 -0.5849
 1757SOL     OW 6104   6.841   7.739   6.241 -0.0659  0.2323  0.1027
 1757SOL    HW1 6105   6.896   7.764   6.166  1.5472  1.4000  1.5752
 1757SOL    HW2 6106   6.837   7.643   6.236 -1.3015  0.3254 -2.2921
 1758SOL     OW 6107   6.656   1.213   1.940 -0.0866  0.2287  0.7174
 1758SOL    HW1 6108   6.596   1.275   1.898  0.6722  1.6474  1.6582
 1758SOL    HW2 6109   6.739   1.261   1.947  1.0604 -1.5025 -0.0927
 1759SOL     OW 6110   5.326   4.022   5.246 -0.2356  0.2970  0.0785
 1759SOL    HW1 6111   5.353   4.042   5.156  2.7102  2.4445  1.2639
 1759SOL    HW2 6112   5.254   4.082   5.264 -0.0056  0.7400 -0.4663
 1760SOL     OW 6113   0.840   3.412   2.658 -0.2380  0.0936 -0.1501
 1760SOL    HW1 6114   0.823   3.433   2.750 -2.5392 -2.5959  0.1695
 1760SOL    HW2 6115   0.917   3.355   2.660  0.0502  0.4858  0.0353
 1761SOL     OW 6116   0.042   4.841   5.830 -0.5992  0.1535 -0.8448
 1761SOL    HW1 6117   0.125   4.795   5.842 -0.3463  0.8110  0.0476
 1761SOL    HW2 6118  -0.022   4.771   5.819 -0.2306 -0.4463  0.5792
 1762SOL     OW 6119   3.701   4.736   6.818 -0.0936  0.1020 -0.0257
 1762SOL    HW1 6120   3.700   4.801   6.889  3.5498  1.1381 -0.7668
 1762SOL    HW2 6121   3.792   4.708   6.812 -1.1000 -3.3256 -1.3983
 1763SOL     OW 6122   3.791   1.590   4.964  0.0666 -0.0992 -0.1864
 1763SOL    HW1 6123   3.733   1.665   4.979  1.2825  0.5889  1.3673
 1763SOL    HW2 6124   3.748   1.517   5.008 -0.4035  0.0345 -0.4228
 1764SOL     OW 6125   6.120   6.860   5.416 -0.4586  0.0258 -0.3186
 1764SOL    HW1 6126   6.151   6.821   5.333  0.3172  1.9663 -1.0063
 1764SOL    HW2 6127   6.185   6.831   5.480 -1.1003 -1.5555 -0.3234
 1765SOL     OW 6128   1.351   2.844   2.173 -0.5067  0.1926 -0.6166
 1765SOL    HW1 6129   1.344   2.918   2.233 -0.0573 -0.6541  0.5041
 1765SOL    HW2 6130   1.261   2.824   2.148 -0.8403 -0.4253  1.0073
 1766SOL     OW 6131   5.783   1.543   5.751 -0.1709  0.1802  0.0854
 1766SOL    HW1 6132   5.759   1.617   5.695 -0.7922  0.2249  0.3908
 1766SOL    HW2 6133   5.747   1.466   5.707  1.6534 -0.1296 -0.9282
 1767SOL     OW 6134   4.066   4.345   7.826  0.3172  0.0554  0.1109
 1767SOL    HW1 6135   3.979   4.341   7.866  0.2291 -1.3060 -0.1715
 1767SOL    HW2 6136   4.104   4.259   7.842  2.6036  1.3331  2.3284
 1768SOL     OW 6137   6.517   4.830   2.980 -0.4152 -1.0014  0.5308
 1768SOL    HW1 6138   6.464   4.909   2.974 -0.6529 -1.2873 -2.8002
 1768SOL    HW2 6139   6.454   4.759   2.965  0.3688 -1.5350 -0.3506
 1769SOL     OW 6140   2.800   5.513   1.527  0.7666  0.7759  0.2056
 1769SOL    HW1 6141   2.875   5.564   1.556  0.8124  0.1995  1.1325
 1769SOL    HW2 6142   2.727   5.545   1.581  1.0194 -0.8669  1.6025
 1770SOL     OW 6143   0.404   7.500   7.682  0.3842  0.2892 -0.1969
 1770SOL    HW1 6144   0.470   7.517   7.749  1.8024  0.0819 -1.4907
 1770SOL    HW2 6145   0.326   7.546   7.713  1.7940  2.5002  0.2373
 1771SOL     OW 6146   7.175   2.915   0.378  0.1625  0.3576 -0.0621
 1771SOL    HW1 6147   7.121   2.837   0.391  1.4065 -0.5028  0.0750
 1771SOL    HW2 6148   7.119   2.975   0.328 -0.1813 -1.3422 -1.8098
 1772SOL     OW 6149   5.798   3.729   0.967  0.0323 -0.3467  0.2471
 1772SOL    HW1 6150   5.715   3.776   0.969  0.3946  0.3635 -0.6841
 1772SOL    HW2 6151   5.777   3.645   0.926 -0.6837 -1.1921  2.2148
 1773SOL     OW 6152   1.387   3.486   3.036 -0.5267  0.4149 -0.2695
 1773SOL    HW1 6153   1.438   3.540   3.097  1.9367 -1.3456 -0.5972
 1773SOL    HW2 6154   1.404   3.525   2.950  0.1613 -0.0606 -0.3572
 1774SOL     OW 6155   5.200   5.149   4.709 -0.6351 -0.7810  0.2935
 1774SOL    HW1 6156   5.264   5.174   4.775 -2.1321 -0.3234  1.6259
 1774SOL    HW2 6157   5.175   5.060   4.732  0.5184 -1.5123 -1.0849
 1775SOL     OW 6158   5.869   1.357   6.053  0.0207  0.6507  0.2838
 1775SOL    HW1 6159   5.831   1.274   6.024  2.5526  0.1536 -2.0598
 1775SOL    HW2 6160   5.834   1.422   5.992 -0.3238  0.9607  0.8023
 1776SOL     OW 6161   0.451   3.104   2.446 -0.2797 -0.0449  0.6556
 1776SOL    HW1 6162   0.376   3.139   2.496  0.1539  1.9090  0.0258
 1776SOL    HW2 6163   0.526   3.150   2.482  0.1114  1.0283 -1.4066
 1777SOL     OW 6164   4.191   5.271   3.648 -0.4240 -0.0096  0.0405
 1777SOL    HW1 6165   4.235   5.355   3.632  1.0444 -0.5208  1.1240
 1777SOL    HW2 6166   4.099   5.294   3.661 -0.0227  1.4630  0.4951
 1778SOL     OW 6167   6.552   6.108   0.996  0.3196  0.8701  0.7737
 1778SOL    HW1 6168   6.548   6.046   0.924 -0.8063  2.5100 -0.6721
 1778SOL    HW2 6169   6.624   6.167   0.973  1.2884  0.2468  2.0522
 1779SOL     OW 6170   0.715   6.414   2.311  0.1501 -0.6263  0.2505
 1779SOL    HW1 6171   0.765   6.333   2.302  0.9900  0.0300 -1.3538
 1779SOL    HW2 6172   0.779   6.480   2.338  0.3855  0.3430 -2.3463
 1780SOL     OW 6173   7.642   5.253   1.928  0.1992  0.1955  0.6025
 1780SOL    HW1 6174   7.658   5.242   2.022 -1.0763  1.7011  1.0460
 1780SOL    HW2 6175   7.723   5.293   1.895 -0.2175  2.0293  1.6084
 1781SOL     OW 6176   6.482   7.824   1.008  0.0199  0.2857 -0.9722
 1781SOL    HW1 6177   6.550   7.811   1.075  0.1822 -1.1418 -1.3743
 1781SOL    HW2 6178   6.400   7.826   1.057  0.1825 -0.1727 -0.6775
 1782SOL     OW 6179   5.338   4.230   1.950  0.6157 -0.0204  0.5781
 1782SOL    HW1 6180   5.400   4.240   2.022  1.9049 -0.9142 -0.3628
 1782SOL    HW2 6181   5.393   4.213   1.873 -0.8328 -2.3153 -0.0331
 1783SOL     OW 6182   0.393   0.841   6.430  0.3258  0.4696 -0.3296
 1783SOL    HW1 6183   0.355   0.805   6.350 -1.2289  1.6692 -0.1730
 1783SOL    HW2 6184   0.488   0.832   6.417  0.0970  0.1143 -2.0465
 1784SOL     OW 6185   3.702   2.848   0.648 -0.2266 -0.0541  0.6951
 1784SOL    HW1 6186   3.754   2.777   0.687 -2.6259 -2.6076 -0.4334
 1784SOL    HW2 6187   3.621   2.850   0.700 -0.7487  1.0020 -0.1202
 1785SOL     OW 6188   0.413   7.503   3.836 -0.1876 -0.1978 -0.2386
 1785SOL    HW1 6189   0.471   7.524   3.909 -0.3653  0.5406 -0.3076
 1785SOL    HW2 6190   0.466   7.521   3.758  0.2836 -1.7569 -0.3125
 1786SOL     OW 6191   4.940   2.440   1.316 -0.1816  0.2790  0.1788
 1786SOL    HW1 6192   4.885   2.362   1.325  0.0289  0.0613 -0.3932
 1786SOL    HW2 6193   5.030   2.406   1.320 -0.0844  0.3910 -0.8496
 1787SOL     OW 6194   1.040   6.513   1.905  0.2367  0.1433  0.6957
 1787SOL    HW1 6195   0.998   6.575   1.965  1.5055 -0.2864  2.0979
 1787SOL    HW2 6196   1.056   6.564   1.825 -2.2092  0.5030  0.3692
 1788SOL     OW 6197   5.446   5.502   6.752 -0.4077 -0.5034 -0.0760
 1788SOL    HW1 6198   5.481   5.585   6.718 -2.4212  0.1512 -0.7154
 1788SOL    HW2 6199   5.502   5.435   6.713 -0.3676  0.4334 -1.7499
 1789SOL     OW 6200   3.008   1.283   3.589  0.0310 -0.4169  0.3644
 1789SOL    HW1 6201   3.056   1.366   3.585  0.3128 -0.5985 -0.2502
 1789SOL    HW2 6202   2.931   1.297   3.533 -0.3831 -0.2882  0.9561
 1790SOL     OW 6203   1.367   3.622   6.542 -0.1905  0.0811  0.0255
 1790SOL    HW1 6204   1.396   3.546   6.493  0.0223  0.5405 -0.5743
 1790SOL    HW2 6205   1.372   3.595   6.634  1.7775  0.0018 -0.0635
 1791SOL     OW 6206   1.716   3.890   5.543 -0.0183 -0.6508 -0.1461
 1791SOL    HW1 6207   1.685   3.802   5.564 -0.6022 -0.4248 -0.0424
 1791SOL    HW2 6208   1.683   3.907   5.455 -0.3246 -0.3538  0.0203
 1792SOL     OW 6209   4.930   5.316   1.943  0.5294  0.3952 -0.1366
 1792SOL    HW1 6210   4.843   5.275   1.945  1.6771 -2.2389 -0.7962
 1792SOL    HW2 6211   4.987   5.249   1.906  3.3075  1.1751  2.3794
 1793SOL     OW 6212   6.947   4.340   3.930  0.6575  0.5689  0.2003
 1793SOL    HW1 6213   7.029   4.354   3.883  0.1486  1.2157 -0.5231
 1793SOL    HW2 6214   6.883   4.395   3.884 -0.0565  0.5246  1.1064
 1794SOL     OW 6215   6.365   5.552   5.357 -0.5571  0.2708 -0.1923
 1794SOL    HW1 6216   6.329   5.566   5.270 -0.7936  0.4111 -0.0727
 1794SOL    HW2 6217   6.347   5.633   5.404  1.4717  1.0615 -0.6577
 1795SOL     OW 6218   6.033   4.786   1.692 -0.1849 -0.5888 -0.2122
 1795SOL    HW1 6219   6.031   4.805   1.786  0.6368  0.2304 -0.3433
 1795SOL    HW2 6220   6.112   4.830   1.661 -1.6311  1.0612 -1.6936
 1796SOL     OW 6221   1.292   1.883   2.670 -0.2151 -0.0653  0.4409
 1796SOL    HW1 6222   1.387   1.874   2.669  0.0435  2.0940  1.0429
 1796SOL    HW2 6223   1.270   1.896   2.762 -0.9901  0.3760  0.1975
 1797SOL     OW 6224   4.445   7.463   4.026 -0.0151  0.0543 -0.2132
 1797SOL    HW1 6225   4.493   7.390   4.064 -0.6864  0.3239  1.2017
 1797SOL    HW2 6226   4.380   7.422   3.968  0.4121 -0.4011 -0.3781
 1798SOL     OW 6227   3.994   7.223   3.598  0.3340  0.8209  0.4925
 1798SOL    HW1 6228   3.992   7.183   3.511  1.3931  1.3808  0.1993
 1798SOL    HW2 6229   3.918   7.280   3.600  0.1714  0.6268  0.0143
 1799SOL     OW 6230   0.620   3.648   5.031 -0.3006  0.0035 -0.0109
 1799SOL    HW1 6231   0.576   3.682   4.952  1.5114  1.3662 -0.5036
 1799SOL    HW2 6232   0.713   3.663   5.014  0.1212  0.6206  2.5121
 1800SOL     OW 6233   5.659   3.211   0.740 -0.3196  0.3169  0.2896
 1800SOL    HW1 6234   5.586   3.225   0.801  0.1449 -1.5731  1.3680
 1800SOL    HW2 6235   5.637   3.264   0.664 -1.0106  2.6768  2.0191
 1801SOL     OW 6236   6.312   3.624   7.567  0.7727  0.1378  0.2860
 1801SOL    HW1 6237   6.367   3.548   7.547  0.3670  0.1090 -0.8048
 1801SOL    HW2 6238   6.370   3.699   7.552  0.4345  0.1256 -1.2980
 1802SOL     OW 6239   5.126   4.666   3.912 -0.8145 -0.0451  0.0528
 1802SOL    HW1 6240   5.072   4.689   3.836 -0.6738 -2.6473 -0.9100
 1802SOL    HW2 6241   5.216   4.662   3.878 -0.4736  0.6161  0.8194
 1803SOL     OW 6242   3.677   4.818   7.853 -0.3781  0.2173 -0.7867
 1803SOL    HW1 6243   3.729   4.897   7.844 -1.4680  0.9384 -0.8980
 1803SOL    HW2 6244   3.740   4.751   7.879  0.3568  1.4161  0.6749
 1804SOL     OW 6245   4.560   0.108   0.528 -0.4605  0.0318 -0.3233
 1804SOL    HW1 6246   4.485   0.152   0.569 -0.9674 -1.6291  0.6548
 1804SOL    HW2 6247   4.631   0.119   0.591  0.1634  1.6141 -1.2555
 1805SOL     OW 6248   5.097   1.411   6.958  0.6836 -0.5963  0.4702
 1805SOL    HW1 6249   5.007   1.428   6.931  0.8323 -0.7956 -0.1702
 1805SOL    HW2 6250   5.118   1.325   6.922  0.1595 -1.9529  3.1448
 1806SOL     OW 6251   3.280   4.383   6.807 -0.0373 -0.0259  0.0595
 1806SOL    HW1 6252   3.291   4.342   6.721  0.9577  1.1329 -0.3871
 1806SOL    HW2 6253   3.363   4.427   6.824 -1.3627  2.6879  0.0344
 1807SOL     OW 6254   3.637   0.761   3.062  0.3595  0.6352  0.3280
 1807SOL    HW1 6255   3.713   0.779   3.008 -1.4602  2.3543 -1.8443
 1807SOL    HW2 6256   3.586   0.698   3.011 -0.2382  0.3721  1.2196
 1808SOL     OW 6257   6.648   1.241   0.790 -0.0040 -0.6393 -0.6609
 1808SOL    HW1 6258   6.660   1.181   0.717 -0.1230 -0.7164 -0.6181
 1808SOL    HW2 6259   6.676   1.327   0.756  0.8495 -0.8448 -0.5011
 1809SOL     OW 6260   4.406   7.630   4.683  0.0788 -0.4363 -0.5199
 1809SOL    HW1 6261   4.385   7.638   4.590 -1.0303 -1.0434 -0.3364
 1809SOL    HW2 6262   4.489   7.581   4.685  0.6673  0.5029 -1.2092
 1810SOL     OW 6263   7.575   7.220   4.994 -0.4928  0.6465 -0.3658
 1810SOL    HW1 6264   7.598   7.127   4.992 -0.8524  0.5665 -0.6862
 1810SOL    HW2 6265   7.513   7.227   5.067  1.1285  1.0045  1.0538
 1811SOL     OW 6266   7.104   1.497   1.488 -0.5402  0.3190 -0.1593
 1811SOL    HW1 6267   7.120   1.503   1.582  0.6741  1.4594 -0.4013
 1811SOL    HW2 6268   7.114   1.404   1.468  2.5060  0.4164  0.3610
 1812SOL     OW 6269   6.434   4.843   0.700 -0.1834 -0.4844 -0.0818
 1812SOL    HW1 6270   6.529   4.850   0.711 -0.3007 -1.3564  1.9341
 1812SOL    HW2 6271   6.400   4.839   0.790 -2.0977 -0.5105 -0.7706
 1813SOL     OW 6272   6.564   0.820   0.496 -0.1169  0.0859  0.2070
 1813SOL    HW1 6273   6.617   0.832   0.575 -0.6430 -0.9957  0.7533
 1813SOL    HW2 6274   6.551   0.725   0.491 -1.8452  0.3041  0.0004
 1814SOL     OW 6275   6.593   3.119   1.435  0.1107  0.3113 -0.2801
 1814SOL    HW1 6276   6.520   3.080   1.387  1.5136 -1.1730 -1.3067
 1814SOL    HW2 6277   6.585   3.213   1.419 -1.5550  0.1876 -0.3504
 1815SOL     OW 6278   0.802   0.656   7.425  0.1104 -0.0998 -0.4675
 1815SOL    HW1 6279   0.734   0.656   7.492  1.6142  0.9906  1.1612
 1815SOL    HW2 6280   0.780   0.729   7.367 -0.4745 -0.1937 -0.3607
 1816SOL     OW 6281   2.760   1.813   5.117 -0.2744  0.6566  0.1153
 1816SOL    HW1 6282   2.769   1.735   5.061 -1.9820 -0.1322  0.8736
 1816SOL    HW2 6283   2.736   1.777   5.203 -0.4153  2.0082  0.6546
 1817SOL     OW 6284   4.614   3.936   7.724 -0.1308  0.1016  0.5248
 1817SOL    HW1 6285   4.677   3.934   7.651 -0.5916  2.4642 -0.0067
 1817SOL    HW2 6286   4.608   3.845   7.752  1.2907 -0.6361 -1.3321
 1818SOL     OW 6287   2.920   5.504   1.102  0.4399 -0.8881 -0.3406
 1818SOL    HW1 6288   2.829   5.476   1.101  0.1892 -0.3331 -3.5651
 1818SOL    HW2 6289   2.922   5.576   1.165 -1.1682 -1.3713  0.3182
 1819SOL     OW 6290   6.142   3.446   2.022 -0.1611 -0.4042 -0.3147
 1819SOL    HW1 6291   6.054   3.483   2.011 -0.6941 -1.7462 -0.8036
 1819SOL    HW2 6292   6.191   3.514   2.069 -0.5951  1.6265 -2.5624
 1820SOL     OW 6293   6.200   4.717   3.470  0.3626  0.1374  0.1223
 1820SOL    HW1 6294   6.237   4.750   3.552  0.6642 -1.5147  0.6786
 1820SOL    HW2 6295   6.205   4.622   3.478 -0.7027 -0.0656 -1.3258
 1821SOL     OW 6296   1.768   7.031   5.453  0.3815 -0.3382 -0.7012
 1821SOL    HW1 6297   1.761   7.110   5.400 -3.0617 -0.6147 -0.8882
 1821SOL    HW2 6298   1.770   6.960   5.390 -2.0728 -0.5889 -0.5719
 1822SOL     OW 6299   7.852   4.635   2.251  0.0619  0.9315 -0.0570
 1822SOL    HW1 6300   7.820   4.724   2.236  1.1459  1.3829  0.1848
 1822SOL    HW2 6301   7.780   4.591   2.296 -0.1717  1.9634  0.6322
 1823SOL     OW 6302   3.470   0.757   2.068 -0.7782 -0.6540  0.0932
 1823SOL    HW1 6303   3.414   0.826   2.105 -0.2661 -0.2594  0.1520
 1823SOL    HW2 6304   3.410   0.701   2.019 -1.1698 -0.0256 -0.1543
 1824SOL     OW 6305   3.798   1.694   7.430  0.1667  0.3909 -0.6377
 1824SOL    HW1 6306   3.733   1.661   7.491  0.1143 -0.6085 -1.2116
 1824SOL    HW2 6307   3.747   1.732   7.358  0.2209  0.6243 -0.5535
 1825SOL     OW 6308   0.614   0.429   0.944 -0.5036 -0.4045 -0.5934
 1825SOL    HW1 6309   0.563   0.377   1.007 -0.9319 -0.2139 -0.7871
 1825SOL    HW2 6310   0.667   0.487   0.999  0.4961 -1.5133 -0.3449
 1826SOL     OW 6311   4.132   5.345   2.373  0.7854  0.5506 -0.0261
 1826SOL    HW1 6312   4.061   5.349   2.309  0.4544 -0.7833  0.2264
 1826SOL    HW2 6313   4.188   5.273   2.344  1.5309  0.9779  0.2981
 1827SOL     OW 6314   6.625   3.943   4.556  0.5719  0.1368  0.3052
 1827SOL    HW1 6315   6.551   4.002   4.545  0.9761  0.3485 -1.7910
 1827SOL    HW2 6316   6.689   3.994   4.605  0.2694  0.8639 -0.0396
 1828SOL     OW 6317   4.187   5.279   0.487 -0.5768 -0.3481 -0.4817
 1828SOL    HW1 6318   4.130   5.269   0.564 -1.2758 -1.7236 -1.1347
 1828SOL    HW2 6319   4.274   5.256   0.519 -0.5771  0.6077  0.2497
 1829SOL     OW 6320   7.407   2.699   7.753  0.0785  0.2431  0.3936
 1829SOL    HW1 6321   7.469   2.740   7.693  1.2259  0.7909  1.9117
 1829SOL    HW2 6322   7.329   2.754   7.747  0.1659  0.2860 -0.5723
 1830SOL     OW 6323   2.277   3.171   1.795  0.0551  0.1763  0.6400
 1830SOL    HW1 6324   2.298   3.252   1.842  0.3396 -0.3103  1.3731
 1830SOL    HW2 6325   2.235   3.116   1.860  1.4695 -0.9391  0.6395
 1831SOL     OW 6326   5.204   3.733   0.101  0.1825  0.9344 -0.2202
 1831SOL    HW1 6327   5.137   3.753   0.167 -1.7385  0.3647 -1.8868
 1831SOL    HW2 6328   5.154   3.703   0.025  2.3777  0.3040 -1.4971
 1832SOL     OW 6329   0.573   1.943   3.035  0.0520  0.5763 -0.1144
 1832SOL    HW1 6330   0.542   1.884   3.105 -0.1299  0.4889 -0.2667
 1832SOL    HW2 6331   0.575   1.887   2.957  2.1573  0.1372  0.1975
 1833SOL     OW 6332   6.698   5.127   5.997  0.1821 -0.6399 -0.2015
 1833SOL    HW1 6333   6.652   5.172   6.068  1.3787  0.4500 -0.0714
 1833SOL    HW2 6334   6.637   5.129   5.924  0.3767  1.8094 -0.3952
 1834SOL     OW 6335   3.416   3.866   5.658 -0.0504  0.0979 -0.4285
 1834SOL    HW1 6336   3.331   3.827   5.637 -0.2669  0.0587  0.4834
 1834SOL    HW2 6337   3.448   3.817   5.733 -0.5505  1.9081  1.0653
 1835SOL     OW 6338   3.131   7.848   4.765 -0.0178 -0.5014  0.2872
 1835SOL    HW1 6339   3.115   7.906   4.690 -1.0706 -2.1304 -0.8233
 1835SOL    HW2 6340   3.196   7.785   4.732  0.6018 -0.3817  1.2463
 1836SOL     OW 6341   5.060   6.618   5.653 -0.6717 -0.1134 -0.3510
 1836SOL    HW1 6342   5.009   6.638   5.574 -1.8991  0.0663  0.4453
 1836SOL    HW2 6343   5.040   6.690   5.713  1.2623  0.4337 -0.3033
 1837SOL     OW 6344   7.062   3.543   1.716  1.1775 -0.2292  0.0875
 1837SOL    HW1 6345   7.103   3.529   1.631  1.4605 -1.3220  0.3981
 1837SOL    HW2 6346   7.112   3.615   1.755  1.2904  0.0136 -0.4931
 1838SOL     OW 6347   5.926   1.348   2.624 -0.4300 -0.1647  0.1055
 1838SOL    HW1 6348   5.866   1.405   2.672  1.1494  0.5726  1.2876
 1838SOL    HW2 6349   5.964   1.291   2.690  1.0163  0.1616 -0.4028
 1839SOL     OW 6350   0.259   7.838   3.453 -0.4821  0.6143 -0.2482
 1839SOL    HW1 6351   0.172   7.812   3.425 -0.1898  1.5911 -2.2255
 1839SOL    HW2 6352   0.258   7.934   3.447  0.0071  0.8327  2.0456
 1840SOL     OW 6353   4.113   0.338   7.137  0.8617  0.1433  0.1806
 1840SOL    HW1 6354   4.070   0.423   7.141 -0.4490 -0.4096 -1.2537
 1840SOL    HW2 6355   4.045   0.275   7.160  1.0095 -0.7033 -1.5263
 1841SOL     OW 6356   2.317   1.832   5.127 -0.3724 -0.1047 -0.0621
 1841SOL    HW1 6357   2.356   1.825   5.214 -1.8493  2.1158  0.8868
 1841SOL    HW2 6358   2.343   1.919   5.096 -0.4575 -0.5761 -1.5631
 1842SOL     OW 6359   6.093   1.349   3.406 -0.4006  0.1448 -0.3177
 1842SOL    HW1 6360   6.061   1.367   3.318  0.0493  0.4598 -0.4230
 1842SOL    HW2 6361   6.042   1.273   3.436 -0.9116  0.3563 -0.6487
 1843SOL     OW 6362   3.769   7.405   2.197  0.1830 -0.0046 -0.0190
 1843SOL    HW1 6363   3.676   7.394   2.178  0.1240 -0.3436  0.4453
 1843SOL    HW2 6364   3.808   7.320   2.178  0.6012  0.4339 -1.2767
 1844SOL     OW 6365   7.885   5.019   0.318  0.3172  0.3713  0.2752
 1844SOL    HW1 6366   7.854   5.068   0.394  0.0339 -0.4908  0.7261
 1844SOL    HW2 6367   7.888   4.928   0.348 -0.9868 -0.1692 -1.0963
 1845SOL     OW 6368   6.801   7.334   2.058  0.1494  0.8446  0.4453
 1845SOL    HW1 6369   6.808   7.279   2.137 -1.0744  0.0247  0.0225
 1845SOL    HW2 6370   6.870   7.301   2.000 -0.4343 -0.1394  0.2805
 1846SOL     OW 6371   7.002   6.964   6.703  0.4615  0.2759 -0.4310
 1846SOL    HW1 6372   7.087   6.969   6.659  0.7152 -0.6830 -0.0741
 1846SOL    HW2 6373   7.024   6.949   6.795 -0.0962  0.0298 -0.3367
 1847SOL     OW 6374   4.854   4.008   1.969  0.2535  0.0168 -0.7935
 1847SOL    HW1 6375   4.780   4.068   1.975  1.1968  1.0450  2.2567
 1847SOL    HW2 6376   4.918   4.053   1.914  0.0427  0.7432 -0.4493
 1848SOL     OW 6377   3.360   4.941   0.626 -0.1320 -0.2727  0.2015
 1848SOL    HW1 6378   3.302   4.941   0.550  0.4853  1.1911 -0.3073
 1848SOL    HW2 6379   3.388   5.032   0.635  3.1576 -1.0583 -0.4756
 1849SOL     OW 6380   3.748   0.369   5.510 -0.1731  0.2878 -0.1673
 1849SOL    HW1 6381   3.791   0.344   5.592  2.0043  0.8778 -1.0336
 1849SOL    HW2 6382   3.810   0.341   5.442 -3.1594 -2.8613 -1.8979
 1850SOL     OW 6383   2.159   5.730   3.359 -0.0872 -0.1758 -0.1616
 1850SOL    HW1 6384   2.132   5.748   3.269  1.1874 -0.6271 -0.6535
 1850SOL    HW2 6385   2.077   5.729   3.409 -0.9817 -1.3803 -1.5602
 1851SOL     OW 6386   0.563   0.137   1.751  0.3450  0.0355 -0.2573
 1851SOL    HW1 6387   0.562   0.233   1.742 -0.1126 -0.0529 -1.4740
 1851SOL    HW2 6388   0.479   0.110   1.714  0.5890 -0.8516 -0.1677
 1852SOL     OW 6389   5.608   4.298   1.367 -0.6665  0.3921 -0.2917
 1852SOL    HW1 6390   5.628   4.230   1.432 -0.2642  1.0039  0.2415
 1852SOL    HW2 6391   5.516   4.320   1.384 -0.6977  0.2228 -0.2363
 1853SOL     OW 6392   1.671   6.500   1.679  0.0067  0.2617 -0.9469
 1853SOL    HW1 6393   1.611   6.474   1.748  0.6755 -0.5494 -0.6584
 1853SOL    HW2 6394   1.722   6.572   1.717 -1.6861  1.9322 -1.6682
 1854SOL     OW 6395   4.188   7.353   3.939 -0.1875 -0.4618  0.4608
 1854SOL    HW1 6396   4.130   7.359   4.015 -1.4912  2.2829 -0.5959
 1854SOL    HW2 6397   4.140   7.397   3.869  1.2966 -2.1672 -1.7865
 1855SOL     OW 6398   4.037   7.753   0.474  0.4439 -0.3318  0.2277
 1855SOL    HW1 6399   4.057   7.803   0.395  0.7162 -0.7565  0.0181
 1855SOL    HW2 6400   4.120   7.711   0.497  0.7642  1.0379  1.6619
 1856SOL     OW 6401   6.637   3.338   7.070  0.1264  0.0295  0.3676
 1856SOL    HW1 6402   6.635   3.243   7.058 -0.8562 -0.1501  1.7052
 1856SOL    HW2 6403   6.721   3.355   7.112 -0.1649 -0.4074  1.1517
 1857SOL     OW 6404   3.167   5.213   0.672  0.5676 -0.4918 -0.7188
 1857SOL    HW1 6405   3.102   5.174   0.613  0.3142  1.4521 -1.8266
 1857SOL    HW2 6406   3.207   5.283   0.620  3.1202 -1.2063  0.1656
 1858SOL     OW 6407   5.527   0.236   4.248 -0.0098  0.2620  0.7216
 1858SOL    HW1 6408   5.589   0.308   4.261 -0.6092  0.7611  0.8882
 1858SOL    HW2 6409   5.566   0.184   4.178  1.1731 -0.0952  1.6081
 1859SOL     OW 6410   2.927   2.189   4.876 -0.1936 -0.3262  0.1700
 1859SOL    HW1 6411   2.991   2.143   4.823 -1.3357 -2.3118  0.4197
 1859SOL    HW2 6412   2.958   2.280   4.878  2.0605 -1.0214 -0.4827
 1860SOL     OW 6413   6.787   3.644   1.328 -0.1441 -0.0777 -0.2929
 1860SOL    HW1 6414   6.710   3.594   1.303  0.2266  0.4243 -2.6823
 1860SOL    HW2 6415   6.752   3.725   1.365 -0.8306  0.6063 -2.3161
 1861SOL     OW 6416   3.855   3.704   5.673  0.0097  0.1890 -0.5289
 1861SOL    HW1 6417   3.814   3.788   5.650  1.0129  1.6517  2.4393
 1861SOL    HW2 6418   3.782   3.649   5.701 -0.5280  0.5708 -1.1521
 1862SOL     OW 6419   4.496   1.804   1.110  0.5966  0.0594  0.5247
 1862SOL    HW1 6420   4.413   1.807   1.159  0.8495  0.9548  0.9158
 1862SOL    HW2 6421   4.489   1.725   1.056 -1.2473  1.0057 -0.7281
 1863SOL     OW 6422   2.525   7.815   0.411  0.1451  0.1517  0.3693
 1863SOL    HW1 6423   2.454   7.879   0.405  0.6753  0.6848 -0.3822
 1863SOL    HW2 6424   2.539   7.803   0.505  0.9802  2.2358  0.5649
 1864SOL     OW 6425   6.585   4.072   5.165 -0.2379  0.0346  0.9440
 1864SOL    HW1 6426   6.602   3.990   5.117  0.0498  0.2174  0.7262
 1864SOL    HW2 6427   6.502   4.057   5.211 -1.8928  0.7118 -1.5927
 1865SOL     OW 6428   0.092   7.339   3.272  0.1378 -0.0088  0.0755
 1865SOL    HW1 6429   0.040   7.391   3.333 -0.6087  0.2033 -0.7369
 1865SOL    HW2 6430   0.045   7.343   3.189  2.5896  2.1732 -1.3916
 1866SOL     OW 6431   5.911   7.744   4.937 -0.0402 -0.1089  0.5912
 1866SOL    HW1 6432   5.817   7.764   4.940  0.1521  0.9225  0.1581
 1866SOL    HW2 6433   5.920   7.663   4.987 -1.3173 -0.8283 -0.2753
 1867SOL     OW 6434   5.417   0.329   7.625  0.1986  0.3692 -0.0137
 1867SOL    HW1 6435   5.324   0.339   7.608  0.2978  0.9032 -0.2635
 1867SOL    HW2 6436   5.459   0.344   7.540  0.5782  1.2284  0.3081
 1868SOL     OW 6437   0.287   0.713   0.910  0.0634  0.8910 -0.1390
 1868SOL    HW1 6438   0.195   0.706   0.882  0.4071  3.0649 -2.0890
 1868SOL    HW2 6439   0.281   0.745   1.000 -1.0432 -2.2589  1.0403
 1869SOL     OW 6440   7.720   3.266   7.710 -0.3359  0.1678  0.5850
 1869SOL    HW1 6441   7.662   3.321   7.659  2.2064  0.7431 -1.9400
 1869SOL    HW2 6442   7.667   3.190   7.734 -2.1324  0.6541 -1.5449
 1870SOL     OW 6443   3.408   7.651   0.935 -0.4839  0.2194  0.5897
 1870SOL    HW1 6444   3.370   7.669   1.021  0.5137  1.8405  0.7156
 1870SOL    HW2 6445   3.416   7.736   0.893  0.7244 -0.3470 -0.4016
 1871SOL     OW 6446   5.133   4.290   2.529 -0.5183 -0.1340  0.0695
 1871SOL    HW1 6447   5.044   4.318   2.510  0.1980  1.5865 -1.0297
 1871SOL    HW2 6448   5.124   4.223   2.597 -2.5471  1.0060  1.0034
 1872SOL     OW 6449   5.160   0.335   7.400 -0.0210  0.1351  0.0836
 1872SOL    HW1 6450   5.175   0.404   7.465 -0.3362 -0.7574  1.1272
 1872SOL    HW2 6451   5.144   0.383   7.319 -1.0013  1.3396  0.9277
 1873SOL     OW 6452   4.607   5.547   6.146  0.2167  0.7516  0.0296
 1873SOL    HW1 6453   4.650   5.519   6.227 -1.1084  0.2107  0.5729
 1873SOL    HW2 6454   4.520   5.577   6.174 -0.2701  0.5341 -1.1910
 1874SOL     OW 6455   3.217   1.581   1.515 -0.2461  0.2273 -0.1823
 1874SOL    HW1 6456   3.168   1.654   1.554  0.2784 -0.2824  1.4876
 1874SOL    HW2 6457   3.304   1.617   1.499 -0.1943  0.1679 -0.0305
 1875SOL     OW 6458   1.963   0.359   4.314  0.1518  0.3526  0.0656
 1875SOL    HW1 6459   2.011   0.276   4.309 -1.7761 -0.8320  0.0465
 1875SOL    HW2 6460   1.938   0.367   4.406  0.6407  1.1089  0.1357
 1876SOL     OW 6461   1.296   3.845   0.436 -0.3861 -0.0128 -0.0130
 1876SOL    HW1 6462   1.387   3.874   0.445  0.3444 -2.0927 -0.1298
 1876SOL    HW2 6463   1.249   3.890   0.505  0.0471  3.4691 -1.7647
 1877SOL     OW 6464   6.237   5.200   1.622 -0.4701  0.8475  0.3079
 1877SOL    HW1 6465   6.332   5.214   1.614 -0.8078  2.9411 -0.6860
 1877SOL    HW2 6466   6.226   5.164   1.710  1.2817  0.0066  0.2304
 1878SOL     OW 6467   5.031   6.149   4.923 -0.4149  0.6783  0.3146
 1878SOL    HW1 6468   5.101   6.214   4.910  0.4426 -0.3093 -0.1581
 1878SOL    HW2 6469   4.961   6.198   4.966 -0.2875  2.2325 -1.1036
 1879SOL     OW 6470   0.383   7.486   2.281  0.1740  0.3419 -0.1427
 1879SOL    HW1 6471   0.462   7.489   2.228  0.3762  0.0548  0.1409
 1879SOL    HW2 6472   0.332   7.413   2.244  0.7977 -0.5552  0.7247
 1880SOL     OW 6473   1.169   5.144   7.301  0.2644  0.3045  0.1730
 1880SOL    HW1 6474   1.125   5.225   7.276  0.0124 -0.5202 -2.4434
 1880SOL    HW2 6475   1.109   5.075   7.271  1.3120 -0.8494  0.6387
 1881SOL     OW 6476   0.083   0.607   4.866 -0.5555  0.8940 -0.0240
 1881SOL    HW1 6477  -0.005   0.621   4.832 -0.2403  0.5877 -0.9910
 1881SOL    HW2 6478   0.139   0.606   4.789  0.2704  0.8274  0.5580
 1882SOL     OW 6479   5.127   4.969   4.081  0.0914  0.2817 -0.3811
 1882SOL    HW1 6480   5.069   5.044   4.081  1.1370  1.1186  0.2684
 1882SOL    HW2 6481   5.084   4.905   4.024 -1.1375  1.1054 -0.4121
 1883SOL     OW 6482   0.363   6.979   0.892 -0.3985  0.4849  0.3502
 1883SOL    HW1 6483   0.400   7.059   0.855  0.3257 -0.3316 -0.7857
 1883SOL    HW2 6484   0.361   6.918   0.818  1.3251 -1.3225  1.6867
 1884SOL     OW 6485   1.363   0.002   0.494  0.0694 -0.1606  0.1773
 1884SOL    HW1 6486   1.395  -0.087   0.511 -0.9776 -0.7517 -0.8138
 1884SOL    HW2 6487   1.296  -0.009   0.427  1.2633  1.6111 -1.3940
 1885SOL     OW 6488   4.454   6.004   2.965  0.1049  0.2864  0.2066
 1885SOL    HW1 6489   4.439   6.082   2.912  0.2407  0.0132 -0.2358
 1885SOL    HW2 6490   4.549   6.004   2.981 -0.1245  1.2521  1.8267
 1886SOL     OW 6491   3.091   1.725   1.745 -0.4587 -0.3249 -0.0295
 1886SOL    HW1 6492   3.070   1.702   1.835 -1.4972 -0.8577 -0.3943
 1886SOL    HW2 6493   3.007   1.718   1.698  0.0324  0.1015 -1.0012
 1887SOL     OW 6494   6.038   1.540   2.992  0.5206  0.0705 -0.8264
 1887SOL    HW1 6495   5.962   1.482   2.997  0.9021 -0.4432 -0.8885
 1887SOL    HW2 6496   6.001   1.628   2.999 -0.1586 -0.1292 -1.6464
 1888SOL     OW 6497   4.703   1.184   7.821 -0.4656  0.4492  0.4853
 1888SOL    HW1 6498   4.754   1.242   7.877  1.9817 -1.2938  0.2372
 1888SOL    HW2 6499   4.723   1.212   7.732  1.6771 -1.3680  0.3153
 1889SOL     OW 6500   4.287   4.678   0.186 -0.2865  0.0845 -0.4290
 1889SOL    HW1 6501   4.341   4.684   0.108  1.1553 -1.1081  0.4252
 1889SOL    HW2 6502   4.260   4.587   0.190 -0.2595  0.1026  0.5044
 1890SOL     OW 6503   2.617   6.192   1.769  0.2805 -0.1259 -0.7008
 1890SOL    HW1 6504   2.654   6.278   1.751  0.2529 -0.0750 -0.5097
 1890SOL    HW2 6505   2.581   6.199   1.857  0.3532 -0.3589 -0.6531
 1891SOL     OW 6506   6.231   5.949   1.543  0.1406  0.0581  0.1003
 1891SOL    HW1 6507   6.317   5.923   1.510 -0.6808 -1.0714 -1.2677
 1891SOL    HW2 6508   6.226   5.911   1.631  0.7547 -0.4944 -0.0998
 1892SOL     OW 6509   4.742   2.396   7.862 -0.0551 -0.1192 -0.0595
 1892SOL    HW1 6510   4.769   2.427   7.776 -1.0676 -2.1988 -1.1819
 1892SOL    HW2 6511   4.823   2.372   7.906  0.4449  0.6576 -0.5303
 1893SOL     OW 6512   0.058   1.921   3.165  0.5605 -0.8198  0.2604
 1893SOL    HW1 6513   0.066   1.992   3.101 -0.3115  0.4345  1.5004
 1893SOL    HW2 6514   0.058   1.841   3.112  1.2571  0.1001 -1.1927
 1894SOL     OW 6515   4.240   1.904   3.143 -0.0009  0.2829  0.6138
 1894SOL    HW1 6516   4.217   1.997   3.139 -1.0014  0.0010 -0.8304
 1894SOL    HW2 6517   4.271   1.883   3.054  0.7484 -0.6389  1.0734
 1895SOL     OW 6518   4.808   3.194   3.397 -0.0998  0.0097  0.0825
 1895SOL    HW1 6519   4.874   3.128   3.378 -1.2478 -0.9221 -0.8309
 1895SOL    HW2 6520   4.838   3.273   3.352  0.5753 -0.3015 -0.0146
 1896SOL     OW 6521   0.614   6.980   1.042 -0.1230 -0.2745 -0.1959
 1896SOL    HW1 6522   0.550   6.987   0.972 -0.4910  0.1336  0.1679
 1896SOL    HW2 6523   0.561   6.976   1.122  0.2889  2.6514  0.3315
 1897SOL     OW 6524   5.813   6.809   3.929 -0.0017 -0.0109  0.1211
 1897SOL    HW1 6525   5.909   6.810   3.931 -0.0090  0.0553  0.3838
 1897SOL    HW2 6526   5.791   6.881   3.869  0.0911  0.6306  0.8415
 1898SOL     OW 6527   3.369   1.055   2.565  0.1896  0.3566  0.6987
 1898SOL    HW1 6528   3.345   1.066   2.657 -2.3854 -1.0224  0.2864
 1898SOL    HW2 6529   3.355   1.141   2.526 -2.2252  0.1769  0.9743
 1899SOL     OW 6530   1.810   7.609   1.405  0.4179  0.1240  0.8478
 1899SOL    HW1 6531   1.732   7.553   1.404 -0.3526  1.1595  0.6343
 1899SOL    HW2 6532   1.811   7.647   1.493 -0.8149  2.0800  0.0804
 1900SOL     OW 6533   5.740   4.529   5.246 -0.0720 -0.2448 -0.0218
 1900SOL    HW1 6534   5.729   4.615   5.205 -1.2812 -0.0762  0.6175
 1900SOL    HW2 6535   5.835   4.519   5.256  0.0711  1.0787  0.0490
 1901SOL     OW 6536   2.995   0.333   2.247  0.0631  0.4157  0.0727
 1901SOL    HW1 6537   2.953   0.383   2.317 -0.1499  0.2669  0.0553
 1901SOL    HW2 6538   3.088   0.355   2.253  0.1879 -0.2927  0.9867
 1902SOL     OW 6539   0.314   7.332   4.167  0.4977  0.2226 -0.3877
 1902SOL    HW1 6540   0.286   7.422   4.184  2.8395  1.1986 -1.2700
 1902SOL    HW2 6541   0.255   7.301   4.098  0.4879  1.5501 -0.9938
 1903SOL     OW 6542   3.028   3.221   0.257  0.1496  0.0263 -0.1688
 1903SOL    HW1 6543   2.977   3.177   0.326 -1.2541 -1.7453 -2.2085
 1903SOL    HW2 6544   3.017   3.314   0.274 -1.0985 -0.3584  1.3263
 1904SOL     OW 6545   5.368   4.059   4.436  0.2556  0.0551 -0.2974
 1904SOL    HW1 6546   5.276   4.034   4.445  0.4331 -0.6485 -0.3563
 1904SOL    HW2 6547   5.411   4.021   4.514  0.4983  0.3721 -0.2737
 1905SOL     OW 6548   4.923   6.127   5.540 -0.3133  0.0463  0.1457
 1905SOL    HW1 6549   4.938   6.178   5.620 -0.6544 -1.0737  0.9551
 1905SOL    HW2 6550   4.912   6.037   5.572  0.2149 -0.5254 -1.2286
 1906SOL     OW 6551   5.570   4.590   2.125 -0.0114 -0.6221  0.0419
 1906SOL    HW1 6552   5.593   4.649   2.196  0.4739 -0.4336 -0.2651
 1906SOL    HW2 6553   5.641   4.600   2.061 -0.5476 -0.6306 -0.5638
 1907SOL     OW 6554   6.856   6.246   4.659  0.3594  0.2196 -0.4363
 1907SOL    HW1 6555   6.942   6.286   4.645  0.8436  0.2983  2.1986
 1907SOL    HW2 6556   6.820   6.235   4.571  2.6523  1.0597 -1.5711
 1908SOL     OW 6557   1.490   6.998   0.416  0.1663  0.0206 -0.0096
 1908SOL    HW1 6558   1.479   7.091   0.400 -3.0000 -0.1485  0.5523
 1908SOL    HW2 6559   1.508   6.992   0.509 -2.5548  0.0540  0.6174
 1909SOL     OW 6560   2.864   0.132   7.216  0.3541 -0.0850  0.3987
 1909SOL    HW1 6561   2.840   0.151   7.125 -1.0444 -0.1487  0.7198
 1909SOL    HW2 6562   2.780   0.120   7.260  1.0491 -1.9941  1.2959
 1910SOL     OW 6563   2.378   4.379   2.757 -0.1221 -0.1018 -0.0705
 1910SOL    HW1 6564   2.379   4.430   2.676 -1.6325 -3.1850 -2.2143
 1910SOL    HW2 6565   2.468   4.349   2.768  0.0962  0.3327 -0.6404
 1911SOL     OW 6566   6.417   5.163   5.560  0.3515 -0.2589  0.0831
 1911SOL    HW1 6567   6.400   5.069   5.565 -0.1324 -0.2319 -0.9152
 1911SOL    HW2 6568   6.410   5.184   5.467 -0.7414  0.9954  0.4231
 1912SOL     OW 6569   4.447   1.137   1.959 -0.2182  0.7896  0.5824
 1912SOL    HW1 6570   4.359   1.124   1.925 -0.5394  0.6647  1.4391
 1912SOL    HW2 6571   4.492   1.054   1.944  0.8494  1.8015 -2.8686
 1913SOL     OW 6572   3.878   6.644   1.093  0.3360 -0.0221 -0.5645
 1913SOL    HW1 6573   3.941   6.711   1.068  0.2996 -0.7221 -2.7471
 1913SOL    HW2 6574   3.880   6.581   1.021  0.2790 -2.3403  1.3275
 1914SOL     OW 6575   5.097   2.367   5.046 -0.4601 -0.0851 -0.2007
 1914SOL    HW1 6576   5.150   2.343   4.970  0.3174  0.6894  0.0877
 1914SOL    HW2 6577   5.006   2.355   5.016 -0.1805  0.6775 -1.4226
 1915SOL     OW 6578   2.066   0.634   4.355 -0.0366  0.1555  0.2748
 1915SOL    HW1 6579   2.042   0.541   4.365  1.5823 -0.4095 -0.6912
 1915SOL    HW2 6580   2.161   0.633   4.342 -0.3100  1.7003 -2.5017
 1916SOL     OW 6581   1.210   4.407   2.374  0.0559 -0.0047  0.0176
 1916SOL    HW1 6582   1.277   4.342   2.394 -1.1465 -0.8082  1.7655
 1916SOL    HW2 6583   1.179   4.436   2.460 -1.2045  1.0119 -0.7412
 1917SOL     OW 6584   7.465   3.689   7.438  0.2995 -0.3075  0.1291
 1917SOL    HW1 6585   7.524   3.663   7.367 -0.1899 -1.1557  0.0275
 1917SOL    HW2 6586   7.378   3.689   7.398 -0.0821 -1.5443  0.9027
 1918SOL     OW 6587   3.683   0.497   1.785  0.2292  0.4166 -0.5770
 1918SOL    HW1 6588   3.767   0.535   1.812 -0.1048  1.9557 -1.5660
 1918SOL    HW2 6589   3.632   0.572   1.754 -1.8267 -0.3460  0.7310
 1919SOL     OW 6590   0.106   4.629   1.916 -0.1828 -0.1064  0.1850
 1919SOL    HW1 6591   0.048   4.570   1.867  0.6156  0.5154 -1.5751
 1919SOL    HW2 6592   0.185   4.577   1.931  0.7358  0.6171 -1.8419
 1920SOL     OW 6593   3.425   1.272   0.484  0.2238 -0.2584  0.0475
 1920SOL    HW1 6594   3.422   1.206   0.415  4.9680 -1.9813  1.1129
 1920SOL    HW2 6595   3.421   1.356   0.438  1.9872 -1.3463 -2.2786
 1921SOL     OW 6596   3.375   2.060   4.032 -0.0503  0.0867  0.0450
 1921SOL    HW1 6597   3.319   2.134   4.056  0.3602  0.0072  1.2957
 1921SOL    HW2 6598   3.330   1.984   4.069  0.7455 -0.0058  0.8409
 1922SOL     OW 6599   3.841   3.606   2.469 -0.4018  0.4448  0.3764
 1922SOL    HW1 6600   3.913   3.665   2.448 -0.4648 -0.2056 -1.9492
 1922SOL    HW2 6601   3.779   3.660   2.519 -0.2419  2.2561 -1.2611
 1923SOL     OW 6602   3.101   6.037   5.420  0.4467  0.9401 -0.5703
 1923SOL    HW1 6603   3.180   5.987   5.436  0.1906  0.6442 -0.2144
 1923SOL    HW2 6604   3.065   6.002   5.339  0.1163  0.3476 -0.1732
 1924SOL     OW 6605   5.894   5.289   2.447  0.1672  0.1624  0.1706
 1924SOL    HW1 6606   5.905   5.237   2.526  1.4924  2.1002  1.3421
 1924SOL    HW2 6607   5.804   5.272   2.419  0.1041 -1.6020  1.2787
 1925SOL     OW 6608   0.156   0.090   0.290  0.2882 -0.0048  0.4863
 1925SOL    HW1 6609   0.241   0.133   0.287  1.9104 -3.0114  0.0077
 1925SOL    HW2 6610   0.158   0.039   0.371 -2.9099  3.0387  2.8331
 1926SOL     OW 6611   3.446   7.480   4.055 -0.3437  0.3663 -0.0155
 1926SOL    HW1 6612   3.495   7.473   4.137 -0.4168  0.0509  0.0030
 1926SOL    HW2 6613   3.354   7.481   4.083 -0.3896 -0.2522 -0.1168
 1927SOL     OW 6614   1.332   1.368   7.671 -0.0213  0.1959  0.2576
 1927SOL    HW1 6615   1.402   1.345   7.732 -0.6688 -0.1220  0.8981
 1927SOL    HW2 6616   1.359   1.329   7.588 -0.8676 -2.6408  1.1884
 1928SOL     OW 6617   3.045   3.190   1.560 -0.1243  0.3139 -0.2188
 1928SOL    HW1 6618   3.069   3.107   1.520  1.7768  0.9130 -0.4452
 1928SOL    HW2 6619   3.037   3.251   1.486  0.9412  0.8538  0.0770
 1929SOL     OW 6620   7.181   4.538   5.555 -0.2879  0.0452  0.2742
 1929SOL    HW1 6621   7.127   4.616   5.546 -0.0352  0.3309  1.0982
 1929SOL    HW2 6622   7.267   4.564   5.521 -0.0351  0.3295  1.1028
 1930SOL     OW 6623   5.929   1.171   2.831  0.2073 -0.6398 -0.1193
 1930SOL    HW1 6624   6.011   1.130   2.861  0.9325 -0.4516 -1.7319
 1930SOL    HW2 6625   5.907   1.233   2.900  3.7614  2.4188 -1.4196
 1931SOL     OW 6626   6.955   1.247   2.254  0.3976  0.0243  0.2920
 1931SOL    HW1 6627   6.879   1.299   2.229  1.8011  0.5716 -3.7222
 1931SOL    HW2 6628   6.960   1.179   2.186  4.7931  1.6447 -1.3883
 1932SOL     OW 6629   6.129   6.032   0.513  0.1039 -0.2950 -0.7944
 1932SOL    HW1 6630   6.073   6.062   0.584 -0.5200 -1.1170 -0.9276
 1932SOL    HW2 6631   6.181   5.961   0.552  0.1233 -0.4071 -1.0244
 1933SOL     OW 6632   3.519   5.110   3.025  0.0656 -0.3677  0.2273
 1933SOL    HW1 6633   3.582   5.041   3.048 -2.1657 -1.4187  4.0568
 1933SOL    HW2 6634   3.561   5.191   3.055  0.7765 -0.6303 -0.0179
 1934SOL     OW 6635   7.227   4.233   2.817 -0.4317 -0.1393 -0.3049
 1934SOL    HW1 6636   7.143   4.278   2.812  0.3191  1.4405  0.3770
 1934SOL    HW2 6637   7.283   4.280   2.755  1.0003  1.4378  2.0030
 1935SOL     OW 6638   7.846   5.560   7.327  0.3374 -0.0088 -0.0601
 1935SOL    HW1 6639   7.890   5.629   7.376 -0.6431  0.2030  0.5410
 1935SOL    HW2 6640   7.914   5.493   7.314  1.6723  1.5650 -1.7560
 1936SOL     OW 6641   0.590   7.264   4.583  0.6942  0.9185  0.3789
 1936SOL    HW1 6642   0.555   7.255   4.494 -0.7912 -0.1308  1.0171
 1936SOL    HW2 6643   0.628   7.352   4.585  1.8819  0.5234 -1.6350
 1937SOL     OW 6644   3.660   6.388   1.910  0.4265  0.0362 -0.6604
 1937SOL    HW1 6645   3.625   6.300   1.898 -1.2611  0.4037  1.0089
 1937SOL    HW2 6646   3.707   6.407   1.829  0.8771 -2.3918 -1.0444
 1938SOL     OW 6647   4.421   0.271   0.706 -0.1044  0.2267 -0.5489
 1938SOL    HW1 6648   4.370   0.243   0.783  1.1603  0.1756  0.2880
 1938SOL    HW2 6649   4.464   0.352   0.734  0.7325 -0.0416 -1.0461
 1939SOL     OW 6650   3.366   4.217   6.555 -0.2921 -0.0538  0.0116
 1939SOL    HW1 6651   3.355   4.266   6.474  1.0991 -1.4969 -1.1089
 1939SOL    HW2 6652   3.459   4.223   6.574  0.0160 -2.5990 -0.4297
 1940SOL     OW 6653   4.035   1.236   2.697  0.0361 -0.4076 -0.4224
 1940SOL    HW1 6654   4.083   1.289   2.760 -0.1233 -0.0674 -0.5867
 1940SOL    HW2 6655   3.952   1.282   2.685 -0.3703 -1.0368 -0.0740
 1941SOL     OW 6656   0.082   1.943   7.110  0.6685 -0.1153  0.3041
 1941SOL    HW1 6657   0.177   1.933   7.103  0.5159 -0.6574 -1.9355
 1941SOL    HW2 6658   0.051   1.944   7.019 -1.3597  1.3215  0.9291
 1942SOL     OW 6659   6.679   0.482   2.008 -0.1330  0.1187  0.5130
 1942SOL    HW1 6660   6.607   0.420   2.013  1.1139 -1.6111 -1.1795
 1942SOL    HW2 6661   6.679   0.527   2.093 -0.4404 -2.9957  2.3094
 1943SOL     OW 6662   7.479   0.949   4.985  0.5862  0.3787  0.1205
 1943SOL    HW1 6663   7.403   0.992   5.024  0.7017  0.1334  0.6146
 1943SOL    HW2 6664   7.503   0.880   5.047  1.4974  0.7480  0.2035
 1944SOL     OW 6665   5.589   3.287   4.151  0.1140 -0.1236  0.4305
 1944SOL    HW1 6666   5.494   3.283   4.166  0.0117  1.0364  0.1705
 1944SOL    HW2 6667   5.623   3.209   4.194 -1.2256 -1.9702 -1.6166
 1945SOL     OW 6668   7.734   1.235   7.253  0.3766  0.2073  0.3611
 1945SOL    HW1 6669   7.638   1.230   7.252  0.3778 -0.1984  1.5130
 1945SOL    HW2 6670   7.761   1.175   7.322  1.4727  0.2821  0.0171
 1946SOL     OW 6671   2.673   0.083   4.745 -0.3149  0.0412 -0.1066
 1946SOL    HW1 6672   2.689   0.157   4.688  2.2438 -0.6394 -0.3697
 1946SOL    HW2 6673   2.616   0.118   4.814  1.5632  2.5425  0.3107
 1947SOL     OW 6674   7.236   1.851   1.844  0.0976 -0.2570 -0.2109
 1947SOL    HW1 6675   7.160   1.799   1.869 -0.0703  0.4017  0.6643
 1947SOL    HW2 6676   7.201   1.922   1.790 -0.3214  1.5757  2.2936
 1948SOL     OW 6677   6.056   4.193   0.657  0.1947  0.5378 -0.0301
 1948SOL    HW1 6678   6.082   4.163   0.744 -1.1097  0.6392  0.4172
 1948SOL    HW2 6679   6.132   4.176   0.602  0.4942 -1.0249  0.7957
 1949SOL     OW 6680   5.476   1.046   4.111 -0.4479 -0.7251  0.0222
 1949SOL    HW1 6681   5.482   1.140   4.128 -1.6875 -0.9148  1.7465
 1949SOL    HW2 6682   5.524   1.005   4.182 -2.8168 -1.4571  1.3032
 1950SOL     OW 6683   0.929   0.058   2.484 -0.3519 -0.6709  0.4754
 1950SOL    HW1 6684   0.956   0.137   2.531  1.0241 -1.1571  0.5454
 1950SOL    HW2 6685   0.879   0.090   2.409 -0.7099  0.2060  1.0686
 1951SOL     OW 6686   5.190   2.634   4.620  0.0036  0.4281 -0.1202
 1951SOL    HW1 6687   5.279   2.619   4.649  0.8388  1.1248 -2.1346
 1951SOL    HW2 6688   5.139   2.643   4.700  1.4595 -1.3981  1.0957
 1952SOL     OW 6689   6.712   5.762   0.150 -0.3512 -0.1115  0.1590
 1952SOL    HW1 6690   6.647   5.747   0.218 -0.7806  1.6510  0.1817
 1952SOL    HW2 6691   6.679   5.837   0.101  0.5082 -0.6430 -1.3070
 1953SOL     OW 6692   0.652   6.524   4.342 -0.2644 -0.4462 -0.3704
 1953SOL    HW1 6693   0.639   6.509   4.436  1.6008  1.5333  0.2591
 1953SOL    HW2 6694   0.597   6.599   4.322  0.9161  0.4361 -0.3702
 1954SOL     OW 6695   7.591   3.396   1.010  0.6811 -0.1022  1.0573
 1954SOL    HW1 6696   7.527   3.336   0.970  0.1569 -0.3815  2.2423
 1954SOL    HW2 6697   7.674   3.349   1.005  1.1022  0.7615 -1.5878
 1955SOL     OW 6698   6.648   5.778   1.588  0.2630 -0.1668 -0.3101
 1955SOL    HW1 6699   6.710   5.843   1.556  0.1551  0.1718  0.1463
 1955SOL    HW2 6700   6.569   5.792   1.536 -0.1560  0.8564  0.5446
 1956SOL     OW 6701   7.698   5.871   3.834 -0.0462  0.1551 -0.3635
 1956SOL    HW1 6702   7.688   5.895   3.742 -0.7285  1.4324  0.0146
 1956SOL    HW2 6703   7.793   5.871   3.849  0.0484  0.4419 -0.9374
 1957SOL     OW 6704   7.762   7.396   4.929 -0.5736 -0.0447 -0.8096
 1957SOL    HW1 6705   7.681   7.346   4.941 -0.5091 -1.3387 -4.3888
 1957SOL    HW2 6706   7.784   7.428   5.016 -4.6065 -0.0710  0.4213
 1958SOL     OW 6707   3.624   1.710   1.762  0.3328 -0.1216 -0.5116
 1958SOL    HW1 6708   3.584   1.768   1.697  1.3643 -1.2795 -2.2584
 1958SOL    HW2 6709   3.631   1.764   1.841 -0.7185  1.4223 -1.4133
 1959SOL     OW 6710   6.478   0.179   2.665 -0.3646 -0.1491  0.0592
 1959SOL    HW1 6711   6.465   0.228   2.584 -3.4041 -1.0060 -0.1094
 1959SOL    HW2 6712   6.451   0.090   2.644  0.1526 -0.7343  1.6656
 1960SOL     OW 6713   0.655   7.290   1.292  0.1356 -0.1404  0.3843
 1960SOL    HW1 6714   0.725   7.235   1.329  0.0424 -0.7879 -0.3665
 1960SOL    HW2 6715   0.698   7.374   1.273  0.5165 -0.2736  0.6517
 1961SOL     OW 6716   6.559   5.690   0.687  0.1179 -0.1834 -0.3932
 1961SOL    HW1 6717   6.534   5.754   0.620 -1.0336 -0.6226 -0.4159
 1961SOL    HW2 6718   6.653   5.679   0.676  0.1267  0.5657 -1.2131
 1962SOL     OW 6719   4.989   0.741   4.152 -0.2055  0.0539  0.0631
 1962SOL    HW1 6720   5.042   0.705   4.081  0.5397  1.2476 -0.0014
 1962SOL    HW2 6721   4.910   0.773   4.110  0.2380  0.7672 -0.2385
 1963SOL     OW 6722   6.174   6.686   3.357 -0.1760  0.3908  0.0217
 1963SOL    HW1 6723   6.253   6.644   3.392  1.1285  1.9850 -0.8466
 1963SOL    HW2 6724   6.154   6.636   3.278 -0.8185 -0.7985  0.9075
 1964SOL     OW 6725   4.037   4.414   1.011 -0.3661 -0.0480 -0.5941
 1964SOL    HW1 6726   4.109   4.476   1.004 -0.6393  0.2402 -0.8563
 1964SOL    HW2 6727   4.042   4.382   1.101  1.0901 -1.2533 -1.0635
 1965SOL     OW 6728   1.146   1.297   4.267  0.7533  0.4087 -0.0431
 1965SOL    HW1 6729   1.142   1.244   4.347  0.1859  2.2813  1.2278
 1965SOL    HW2 6730   1.237   1.325   4.261  0.2714  2.7203  1.7242
 1966SOL     OW 6731   2.382   7.855   6.414 -0.9104 -0.2336 -0.3665
 1966SOL    HW1 6732   2.413   7.766   6.429 -0.9418 -0.3784 -1.1436
 1966SOL    HW2 6733   2.463   7.907   6.406 -0.8592 -0.4811 -1.6068
 1967SOL     OW 6734   4.283   7.595   4.188  0.6538 -0.3834 -0.7329
 1967SOL    HW1 6735   4.341   7.545   4.131 -0.8126 -0.3186 -2.3557
 1967SOL    HW2 6736   4.213   7.625   4.131  1.1484  3.0821  0.2773
 1968SOL     OW 6737   4.144   0.461   0.816  0.3519  0.6114  0.5993
 1968SOL    HW1 6738   4.231   0.502   0.816  0.9538 -0.5562 -1.0110
 1968SOL    HW2 6739   4.159   0.375   0.856 -0.4916  1.1202  2.0990
 1969SOL     OW 6740   1.696   2.452   2.795 -0.1163  0.0529 -0.4685
 1969SOL    HW1 6741   1.601   2.461   2.807 -0.1191 -1.5828  1.2242
 1969SOL    HW2 6742   1.712   2.358   2.806  1.6448  0.2213 -1.3369
 1970SOL     OW 6743   0.841   1.938   0.624 -0.2502 -0.0746 -0.1458
 1970SOL    HW1 6744   0.839   1.897   0.711 -0.2960 -1.2935 -0.7051
 1970SOL    HW2 6745   0.868   2.028   0.641  0.8890 -0.6052  1.0113
 1971SOL     OW 6746   2.696   2.995   5.288  0.1146  0.6834 -0.0055
 1971SOL    HW1 6747   2.727   3.081   5.316 -0.9794  1.2936 -0.6133
 1971SOL    HW2 6748   2.657   3.010   5.202  0.8166 -0.6229 -0.5797
 1972SOL     OW 6749   0.895   4.614   5.676 -0.1282  0.0892 -0.0492
 1972SOL    HW1 6750   0.944   4.538   5.646  1.6459  0.6210  1.2901
 1972SOL    HW2 6751   0.881   4.599   5.770  0.0453  1.2811  0.1928
 1973SOL     OW 6752   3.113   6.869   6.528 -0.6929 -0.1884  0.6353
 1973SOL    HW1 6753   3.088   6.938   6.589  0.2482 -0.5236  1.4352
 1973SOL    HW2 6754   3.115   6.911   6.442 -1.9884  0.3075  0.8297
 1974SOL     OW 6755   0.916   4.096   3.440  0.1273  0.2318  0.4082
 1974SOL    HW1 6756   1.003   4.067   3.469  0.8336  2.2506  0.4465
 1974SOL    HW2 6757   0.855   4.058   3.503  0.9790 -1.1045  0.4595
 1975SOL     OW 6758   0.211   5.211   6.923 -0.0601 -0.3205 -0.4744
 1975SOL    HW1 6759   0.194   5.134   6.978  1.2766  1.0156  2.0174
 1975SOL    HW2 6760   0.127   5.258   6.922 -0.7355 -1.5074 -1.5712
 1976SOL     OW 6761   4.830   2.209   1.828  0.4988 -0.5824  0.4783
 1976SOL    HW1 6762   4.863   2.289   1.869 -0.7594  1.0922 -1.5869
 1976SOL    HW2 6763   4.907   2.169   1.787  1.0211 -0.0779  0.9463
 1977SOL     OW 6764   1.525   2.178   2.755 -0.2651  0.0379  0.0660
 1977SOL    HW1 6765   1.500   2.092   2.722 -2.4227  0.0575  1.4283
 1977SOL    HW2 6766   1.527   2.234   2.678  1.2149 -1.1939 -0.8494
 1978SOL     OW 6767   3.903   3.843   7.071  0.4334 -0.3224  0.2626
 1978SOL    HW1 6768   3.956   3.791   7.131  2.4585 -1.8781 -2.6092
 1978SOL    HW2 6769   3.963   3.910   7.038 -0.2550 -0.2284 -0.8498
 1979SOL     OW 6770   4.176   1.716   2.628  0.1786 -0.3332 -0.0459
 1979SOL    HW1 6771   4.267   1.704   2.602  0.0973  0.4679 -0.7623
 1979SOL    HW2 6772   4.158   1.808   2.609 -0.1578  0.0890  2.0760
 1980SOL     OW 6773   5.624   6.039   4.418 -0.2739 -0.5798 -0.0698
 1980SOL    HW1 6774   5.568   5.974   4.461  0.7742 -1.3728  0.1173
 1980SOL    HW2 6775   5.576   6.122   4.428 -0.2528 -0.7982  2.2761
 1981SOL     OW 6776   0.371   1.968   3.593  0.0663  0.6432  0.1608
 1981SOL    HW1 6777   0.311   1.974   3.519 -1.3601  0.8259  1.2850
 1981SOL    HW2 6778   0.323   1.917   3.658  2.0193 -1.1620  0.2935
 1982SOL     OW 6779   6.530   4.765   3.275  0.9591  0.2181  0.1442
 1982SOL    HW1 6780   6.490   4.852   3.268  0.1807 -0.1235  0.1621
 1982SOL    HW2 6781   6.518   4.727   3.189 -0.3111 -0.5299  0.6272
 1983SOL     OW 6782   4.051   0.486   2.233 -0.4087  0.4897 -0.0069
 1983SOL    HW1 6783   4.031   0.578   2.245  1.4382  0.8854  0.3559
 1983SOL    HW2 6784   4.003   0.441   2.304 -0.4414  1.2920  0.4907
 1984SOL     OW 6785   0.554   6.870   1.898  0.3215  0.4670  0.3718
 1984SOL    HW1 6786   0.533   6.840   1.810 -2.5060 -1.4112  1.5457
 1984SOL    HW2 6787   0.508   6.954   1.906  0.7417  0.7348  0.0119
 1985SOL     OW 6788   1.362   1.237   2.100 -0.0365  0.3973 -0.5894
 1985SOL    HW1 6789   1.332   1.326   2.117 -0.8773  0.2881 -1.4342
 1985SOL    HW2 6790   1.425   1.219   2.170 -0.7205  1.2267  0.2588
 1986SOL     OW 6791   4.520   3.025   0.975 -0.2914 -0.1233  0.4518
 1986SOL    HW1 6792   4.473   2.956   1.023 -2.3932  1.4048  0.7232
 1986SOL    HW2 6793   4.544   3.088   1.042  3.0683 -1.2179  0.4636
 1987SOL     OW 6794   4.288   1.280   7.527  0.0911 -0.3819  0.3543
 1987SOL    HW1 6795   4.289   1.340   7.452  1.6963  1.2482  1.5879
 1987SOL    HW2 6796   4.248   1.331   7.597  1.9292 -0.5041  1.5634
 1988SOL     OW 6797   6.152   7.422   5.866 -0.6039  0.2801 -0.0971
 1988SOL    HW1 6798   6.180   7.481   5.937  1.1102 -0.6183  0.0397
 1988SOL    HW2 6799   6.228   7.419   5.807 -1.1283 -0.8243 -0.7352
 1989SOL     OW 6800   2.449   2.123   2.620  0.1157  0.2458  0.3288
 1989SOL    HW1 6801   2.373   2.177   2.597 -1.5692 -1.5570  1.2552
 1989SOL    HW2 6802   2.453   2.127   2.715  3.1540  2.6992  0.2439
 1990SOL     OW 6803   5.940   0.930   0.344  0.3686 -0.0147  0.0601
 1990SOL    HW1 6804   5.978   0.847   0.372 -0.0227 -0.9817 -2.1391
 1990SOL    HW2 6805   5.993   0.957   0.269 -1.0378  0.4653 -0.7909
 1991SOL     OW 6806   1.000   0.576   1.813 -0.3794 -0.0902  0.0491
 1991SOL    HW1 6807   1.078   0.522   1.804 -1.3030 -1.3719 -0.6218
 1991SOL    HW2 6808   1.033   0.665   1.826  1.1960 -0.8826  1.8270
 1992SOL     OW 6809   0.091   2.898   1.677  0.6019  0.4808  0.4476
 1992SOL    HW1 6810   0.140   2.816   1.682  0.3705  0.2135 -1.2497
 1992SOL    HW2 6811   0.148   2.963   1.720  0.6887 -0.5708  2.0129
 1993SOL     OW 6812   5.050   0.317   5.898 -0.3439 -0.4659  0.2390
 1993SOL    HW1 6813   4.986   0.369   5.849  1.6224  1.6124 -0.3103
 1993SOL    HW2 6814   5.083   0.378   5.965  1.1734 -1.4070  0.3783
 1994SOL     OW 6815   7.463   3.458   7.923  0.1547  0.7016 -0.4201
 1994SOL    HW1 6816   7.433   3.465   7.833 -2.4393 -1.9974  0.0607
 1994SOL    HW2 6817   7.383   3.462   7.976  1.6583  3.4511  1.9892
 1995SOL     OW 6818   0.489   3.778   0.014 -0.6894 -0.2827  0.1487
 1995SOL    HW1 6819   0.449   3.729  -0.058 -1.4971  0.9771 -0.2940
 1995SOL    HW2 6820   0.417   3.795   0.074  0.2485 -2.7083  2.1639
 1996SOL     OW 6821   1.891   2.202   6.850 -0.4316  0.2072  0.2831
 1996SOL    HW1 6822   1.919   2.188   6.940  2.7683  0.8042 -0.5014
 1996SOL    HW2 6823   1.868   2.115   6.818 -0.1999 -0.2274  1.2736
 1997SOL     OW 6824   2.664   7.792   0.967 -0.3803  0.0526  0.3470
 1997SOL    HW1 6825   2.580   7.749   0.985 -1.1663  1.4609  0.1335
 1997SOL    HW2 6826   2.654   7.881   1.000 -0.3206  1.3868 -2.8535
 1998SOL     OW 6827   0.031   4.025   6.626 -0.7378 -0.0038 -0.7639
 1998SOL    HW1 6828   0.110   4.017   6.571 -0.0391  1.5997 -0.0642
 1998SOL    HW2 6829  -0.029   4.077   6.573 -0.9561 -0.4046 -0.9114
 1999SOL     OW 6830   5.334   2.917   3.040 -0.2216  0.4350 -0.3523
 1999SOL    HW1 6831   5.273   2.848   3.066 -0.8891  1.3365  0.5892
 1999SOL    HW2 6832   5.410   2.905   3.097 -0.3042  0.4154 -0.2444
 2000SOL     OW 6833   0.093   5.719   4.312 -0.1447  0.3367 -0.3378
 2000SOL    HW1 6834   0.030   5.742   4.243 -0.6466 -0.0137 -0.0027
 2000SOL    HW2 6835   0.039   5.686   4.384  0.3097  1.4271  0.5313
 2001SOL     OW 6836   4.058   2.396   1.420 -0.1391 -0.2594  0.1464
 2001SOL    HW1 6837   4.086   2.324   1.364 -3.1436 -2.0050  0.6216
 2001SOL    HW2 6838   4.128   2.405   1.485  1.2806 -1.2966 -1.1870
 2002SOL     OW 6839   0.927   5.365   7.287 -0.6015 -0.1214 -0.0658
 2002SOL    HW1 6840   0.989   5.438   7.292  0.1561 -0.6277 -1.5591
 2002SOL    HW2 6841   0.852   5.402   7.239 -0.7851  0.0293  0.3281
 2003SOL     OW 6842   2.471   3.991   5.545 -0.5342  0.0658  0.1234
 2003SOL    HW1 6843   2.450   4.011   5.454  1.3354 -1.1531 -0.6299
 2003SOL    HW2 6844   2.484   3.896   5.547  0.6746  0.2246  1.3910
 2004SOL     OW 6845   7.192   1.889   6.811 -0.1079 -0.3437 -0.2396
 2004SOL    HW1 6846   7.258   1.928   6.868  1.3039 -2.2511 -0.4752
 2004SOL    HW2 6847   7.109   1.916   6.849  0.8054  0.4383  1.2891
 2005SOL     OW 6848   5.361   0.923   2.954 -0.0427  0.1386 -0.0330
 2005SOL    HW1 6849   5.326   0.900   2.868 -0.9881  1.4904 -0.0507
 2005SOL    HW2 6850   5.288   0.911   3.014 -0.1660  1.5972  0.1636
 2006SOL     OW 6851   0.965   2.073   2.802  0.1647  0.5621  0.2171
 2006SOL    HW1 6852   0.964   1.988   2.759 -1.3775  1.0210 -0.7191
 2006SOL    HW2 6853   0.949   2.054   2.894 -1.1301 -0.1034 -0.1261
 2007SOL     OW 6854   5.727   5.735   0.293 -0.4107 -0.1300  0.2616
 2007SOL    HW1 6855   5.755   5.825   0.281  0.2064 -0.2102  1.0078
 2007SOL    HW2 6856   5.784   5.701   0.363  0.1673 -1.4412 -0.7897
 2008SOL     OW 6857   6.942   7.582   4.018 -0.0083  0.3346  0.4642
 2008SOL    HW1 6858   7.023   7.534   4.036  0.3554  0.3746 -0.9681
 2008SOL    HW2 6859   6.972   7.669   3.991 -0.4305 -0.0346 -1.3154
 2009SOL     OW 6860   3.136   6.980   3.426  0.4654 -0.6267  0.4002
 2009SOL    HW1 6861   3.225   7.005   3.449  0.7306  0.0330 -1.2259
 2009SOL    HW2 6862   3.140   6.886   3.411  0.6018 -0.8116  1.5195
 2010SOL     OW 6863   7.861   4.094   2.691 -0.1414  0.2131  0.0783
 2010SOL    HW1 6864   7.938   4.147   2.668 -1.0360 -0.0079 -4.4260
 2010SOL    HW2 6865   7.790   4.157   2.698 -0.2436  0.0767  0.2669
 2011SOL     OW 6866   7.678   5.290   5.287  0.4694  0.1992 -0.1200
 2011SOL    HW1 6867   7.587   5.293   5.315  0.6033  0.8439  0.2670
 2011SOL    HW2 6868   7.674   5.262   5.195 -0.0293 -1.0147  0.2631
 2012SOL     OW 6869   2.233   2.331   5.177 -0.1310 -0.2437 -0.5234
 2012SOL    HW1 6870   2.191   2.355   5.260  0.5910  1.2864 -0.5731
 2012SOL    HW2 6871   2.323   2.311   5.201 -0.0411 -0.2527 -0.8732
 2013SOL     OW 6872   1.945   5.383   7.866  0.1649 -0.5594  0.0047
 2013SOL    HW1 6873   2.003   5.387   7.943 -1.4369  0.4660  1.2292
 2013SOL    HW2 6874   1.970   5.460   7.814  0.1397 -0.3142  0.3496
 2014SOL     OW 6875   6.613   2.485   4.093  0.0535 -0.6309  0.0711
 2014SOL    HW1 6876   6.543   2.419   4.097 -0.8464  0.3188  0.3046
 2014SOL    HW2 6877   6.578   2.560   4.140 -0.5381  1.4939 -3.4309
 2015SOL     OW 6878   1.090   6.366   5.994  0.2648  0.1413  0.4529
 2015SOL    HW1 6879   1.053   6.352   6.081 -0.6874  1.6379  0.3317
 2015SOL    HW2 6880   1.106   6.278   5.960  2.2790 -0.5167  2.7734
 2016SOL     OW 6881   1.069   0.968   5.561  0.3036 -0.6538  0.8359
 2016SOL    HW1 6882   1.130   0.944   5.631  1.6527  0.2639  0.0367
 2016SOL    HW2 6883   1.057   1.062   5.570 -2.9103 -1.0842  2.3855
 2017SOL     OW 6884   1.751   3.617   6.518  0.0899  0.6019 -0.1827
 2017SOL    HW1 6885   1.699   3.576   6.449  0.1783 -0.0004  0.1048
 2017SOL    HW2 6886   1.809   3.548   6.549  0.1329  0.9010  0.4193
 2018SOL     OW 6887   1.008   6.512   5.334 -0.5274 -0.2767 -0.3702
 2018SOL    HW1 6888   1.027   6.421   5.311 -1.6174 -0.2957 -1.2781
 2018SOL    HW2 6889   1.080   6.562   5.296 -2.0472 -0.3500 -3.6287
 2019SOL     OW 6890   0.277   1.272   1.390  0.2905  0.6261 -0.1035
 2019SOL    HW1 6891   0.206   1.336   1.397 -1.0324 -0.7521 -0.3586
 2019SOL    HW2 6892   0.354   1.323   1.365 -1.1641  1.8732 -2.3411
 2020SOL     OW 6893   0.077   2.871   7.632 -0.4062  0.6247 -0.2122
 2020SOL    HW1 6894  -0.008   2.896   7.667 -0.6811  0.6406 -0.8672
 2020SOL    HW2 6895   0.087   2.779   7.655  0.4502  1.1865  1.9033
 2021SOL     OW 6896   0.423   7.688   2.526 -0.6034  0.6942 -0.1939
 2021SOL    HW1 6897   0.375   7.607   2.510  1.6372 -0.9977  1.0928
 2021SOL    HW2 6898   0.399   7.713   2.615  0.1761  0.3468  0.1191
 2022SOL     OW 6899   3.643   3.412   3.397  0.1963  0.2138  0.5954
 2022SOL    HW1 6900   3.569   3.378   3.346  0.8604 -0.1269 -0.1550
 2022SOL    HW2 6901   3.692   3.466   3.336  1.9393 -1.5426  0.3644
 2023SOL     OW 6902   6.298   5.637   5.911 -0.0343 -0.1510 -0.1656
 2023SOL    HW1 6903   6.270   5.563   5.965  0.2271 -0.4239 -0.4027
 2023SOL    HW2 6904   6.355   5.688   5.968  0.0244 -0.2920 -0.0969
 2024SOL     OW 6905   2.114   5.718   2.678  0.1114  0.1244  0.7364
 2024SOL    HW1 6906   2.099   5.811   2.695 -1.1736  0.8380 -3.2643
 2024SOL    HW2 6907   2.074   5.673   2.752  0.4197  2.6999  2.5972
 2025SOL     OW 6908   7.380   0.614   2.185 -0.1422  0.3475  0.7109
 2025SOL    HW1 6909   7.471   0.599   2.159  0.1940  2.5463  0.3940
 2025SOL    HW2 6910   7.330   0.603   2.104  0.3961  3.0479 -0.0996
 2026SOL     OW 6911   3.481   7.712   2.426  0.5627 -0.0638  0.2280
 2026SOL    HW1 6912   3.444   7.713   2.337  0.4639  1.2524  0.2700
 2026SOL    HW2 6913   3.504   7.620   2.441 -1.9718 -0.8201 -0.0939
 2027SOL     OW 6914   4.266   6.935   5.611 -0.2164 -0.0547 -0.2407
 2027SOL    HW1 6915   4.234   7.017   5.574 -0.0603  0.2116  0.2090
 2027SOL    HW2 6916   4.299   6.886   5.535  0.6267  0.7225 -0.3946
 2028SOL     OW 6917   1.670   5.542   5.716 -0.0178  0.1643 -0.2510
 2028SOL    HW1 6918   1.653   5.630   5.750 -1.5827  0.4597 -1.6844
 2028SOL    HW2 6919   1.692   5.556   5.624 -1.5130 -1.0157 -0.8206
 2029SOL     OW 6920   6.276   0.317   2.836 -0.0130  0.1452  0.6317
 2029SOL    HW1 6921   6.344   0.253   2.814  0.1490  0.6776 -0.4818
 2029SOL    HW2 6922   6.210   0.306   2.767  0.0123  1.1667  0.4367
 2030SOL     OW 6923   7.538   0.217   7.438 -0.1501  0.0444 -0.5368
 2030SOL    HW1 6924   7.461   0.161   7.434  0.0066 -0.1800 -0.4183
 2030SOL    HW2 6925   7.561   0.221   7.531  0.3313 -0.3669 -0.6330
 2031SOL     OW 6926   4.707   5.489   2.380  0.2931 -0.1825  0.5261
 2031SOL    HW1 6927   4.736   5.398   2.379  1.1661  0.0834 -0.4333
 2031SOL    HW2 6928   4.612   5.484   2.371  0.3997 -0.9898 -0.3028
 2032SOL     OW 6929   0.943   2.719   6.640  0.8299  0.0316 -0.4343
 2032SOL    HW1 6930   0.851   2.744   6.656  0.9197  1.5100 -1.8907
 2032SOL    HW2 6931   0.962   2.756   6.554  3.2405  1.0435  0.4642
 2033SOL     OW 6932   0.939   2.229   0.685 -0.0557 -0.1982 -0.4814
 2033SOL    HW1 6933   0.998   2.235   0.760  0.5838 -3.4991 -0.5461
 2033SOL    HW2 6934   0.995   2.243   0.609 -0.0257 -0.1132 -0.4440
 2034SOL     OW 6935   0.863   7.391   4.489  0.2875  0.0962 -0.2610
 2034SOL    HW1 6936   0.846   7.343   4.408  0.9787 -1.8542  0.6947
 2034SOL    HW2 6937   0.958   7.382   4.502  0.2317  0.6667  0.5995
 2035SOL     OW 6938   3.289   7.699   1.171 -0.0915  0.3011  0.5574
 2035SOL    HW1 6939   3.328   7.747   1.244 -1.7923 -0.2986  1.9180
 2035SOL    HW2 6940   3.214   7.752   1.144  0.0417  0.1049 -0.2305
 2036SOL     OW 6941   5.749   4.419   2.475 -0.3105  0.0981  0.2866
 2036SOL    HW1 6942   5.713   4.405   2.563 -1.9106  0.8441 -0.2311
 2036SOL    HW2 6943   5.772   4.330   2.445 -0.9535 -0.3087  0.9593
 2037SOL     OW 6944   1.808   2.931   1.458 -0.3921 -0.1547 -0.0550
 2037SOL    HW1 6945   1.889   2.887   1.431 -1.0031 -0.1486 -2.0811
 2037SOL    HW2 6946   1.827   3.024   1.446 -0.3509 -0.0875  0.5234
 2038SOL     OW 6947   0.352   1.952   7.115 -0.4440  0.3627 -0.3083
 2038SOL    HW1 6948   0.403   2.023   7.155 -1.5274  0.6920  0.5275
 2038SOL    HW2 6949   0.395   1.937   7.031 -0.7780  2.7395 -0.9859
 2039SOL     OW 6950   4.442   2.348   2.705  0.3121  0.3527 -0.5955
 2039SOL    HW1 6951   4.375   2.390   2.652  0.4936  2.0518  0.4625
 2039SOL    HW2 6952   4.519   2.403   2.695  1.1551 -0.8174 -0.7067
 2040SOL     OW 6953   3.361   3.240   1.502 -0.1876 -0.6314  0.3213
 2040SOL    HW1 6954   3.291   3.198   1.552  1.4782 -1.0742  2.3752
 2040SOL    HW2 6955   3.423   3.271   1.568  0.4178  1.9258 -1.2957
 2041SOL     OW 6956   0.665   2.709   7.925  0.0783 -0.0807 -0.5681
 2041SOL    HW1 6957   0.657   2.704   8.020 -0.6359 -1.0754 -0.6650
 2041SOL    HW2 6958   0.584   2.670   7.892  0.4664 -0.0556 -1.5865
 2042SOL     OW 6959   5.958   2.570   2.086 -0.3663 -0.2677  0.1312
 2042SOL    HW1 6960   6.019   2.505   2.050 -1.0533 -1.1363  0.4777
 2042SOL    HW2 6961   5.989   2.586   2.175  0.4630  0.7553 -0.3211
 2043SOL     OW 6962   0.400   4.271   6.768  0.3129 -0.1714 -0.1972
 2043SOL    HW1 6963   0.397   4.243   6.859 -0.5270 -2.4055 -0.8289
 2043SOL    HW2 6964   0.308   4.281   6.742  0.5259  0.0744 -0.8958
 2044SOL     OW 6965   1.344   2.566   3.012  0.4420  0.6467  0.1351
 2044SOL    HW1 6966   1.252   2.541   3.018  0.7867 -1.4412 -1.8729
 2044SOL    HW2 6967   1.393   2.488   3.038  1.6772  1.7875  1.3895
 2045SOL     OW 6968   3.868   4.180   3.850 -0.2625 -0.1596  0.1317
 2045SOL    HW1 6969   3.907   4.094   3.867 -1.3105 -0.4557  1.1234
 2045SOL    HW2 6970   3.942   4.241   3.857  0.4614 -0.9465 -0.4150
 2046SOL     OW 6971   1.951   1.550   0.116 -0.6528  0.2407 -0.4501
 2046SOL    HW1 6972   1.951   1.542   0.021  1.5540  2.1263 -0.7117
 2046SOL    HW2 6973   1.972   1.642   0.132  1.7832 -0.5639  1.8157
 2047SOL     OW 6974   1.376   6.282   0.471  0.2006  0.2253 -0.1366
 2047SOL    HW1 6975   1.392   6.192   0.444 -0.8597 -0.6703  1.9213
 2047SOL    HW2 6976   1.296   6.307   0.424 -1.2559 -1.0686  1.4996
 2048SOL     OW 6977   1.406   2.270   6.616 -0.8084 -0.4112  0.5440
 2048SOL    HW1 6978   1.473   2.338   6.612  0.5687 -1.7468 -0.5151
 2048SOL    HW2 6979   1.367   2.270   6.528 -1.5040 -0.2952  0.8553
 2049SOL     OW 6980   3.257   5.554   1.582  0.5742 -0.5475 -0.0644
 2049SOL    HW1 6981   3.287   5.467   1.605 -2.0610 -1.5348 -0.0781
 2049SOL    HW2 6982   3.286   5.566   1.491 -0.1676 -1.9818 -0.5173
 2050SOL     OW 6983   6.454   6.174   4.295  0.0174  0.1786 -0.1952
 2050SOL    HW1 6984   6.459   6.269   4.305  2.7896  0.2114 -0.9889
 2050SOL    HW2 6985   6.416   6.161   4.208 -0.6609  0.5389  0.0441
 2051SOL     OW 6986   5.184   6.050   4.135 -0.5249  0.1005  0.3242
 2051SOL    HW1 6987   5.256   6.055   4.072 -0.1925  1.5996  0.7721
 2051SOL    HW2 6988   5.116   6.001   4.089  1.1475 -2.4097  0.3152
 2052SOL     OW 6989   0.493   1.601   6.733  0.3507  0.2816 -0.3910
 2052SOL    HW1 6990   0.541   1.679   6.763  0.0648  0.7055 -1.0119
 2052SOL    HW2 6991   0.442   1.632   6.658 -0.2279 -0.3663 -0.2764
 2053SOL     OW 6992   1.501   7.264   0.351 -0.1057  0.1291  0.8292
 2053SOL    HW1 6993   1.568   7.293   0.290 -0.2783  0.7547  0.9325
 2053SOL    HW2 6994   1.440   7.337   0.357 -0.4212 -0.1644  1.2762
 2054SOL     OW 6995   4.887   3.542   1.945  0.3170  0.0542 -0.6840
 2054SOL    HW1 6996   4.857   3.633   1.945 -3.7341 -1.0795 -0.4501
 2054SOL    HW2 6997   4.887   3.517   1.853  0.1186 -0.0450 -0.6585
 2055SOL     OW 6998   2.332   6.763   7.315  0.3683 -0.0143 -0.0517
 2055SOL    HW1 6999   2.325   6.762   7.220 -1.2835  1.2821  0.0084
 2055SOL    HW2 7000   2.350   6.672   7.339 -0.5232 -0.6113 -1.5331
 2056SOL     OW 7001   0.895   2.555   6.191  0.6608  0.5007 -0.9368
 2056SOL    HW1 7002   0.888   2.649   6.173 -0.9212  0.3717 -1.0850
 2056SOL    HW2 7003   0.838   2.513   6.127 -0.1967 -0.4068  0.3677
 2057SOL     OW 7004   7.404   5.297   5.280 -0.0039 -0.2975 -0.0733
 2057SOL    HW1 7005   7.377   5.236   5.349 -2.4073 -0.8290 -1.3679
 2057SOL    HW2 7006   7.412   5.242   5.202  3.6245  0.1025 -0.1675
 2058SOL     OW 7007   7.657   4.699   3.328  0.4156  0.0619  0.3041
 2058SOL    HW1 7008   7.626   4.628   3.384  0.2218  0.0379  0.1667
 2058SOL    HW2 7009   7.577   4.735   3.289  0.2627  1.7838  2.0552
 2059SOL     OW 7010   5.360   1.748   0.343  0.0003  0.3551 -0.2328
 2059SOL    HW1 7011   5.393   1.833   0.312 -0.1402  0.8136  0.8505
 2059SOL    HW2 7012   5.433   1.688   0.328  0.2441  0.7446 -0.6464
 2060SOL     OW 7013   5.955   5.628   7.364  0.1252  0.6625  0.1847
 2060SOL    HW1 7014   5.931   5.663   7.278 -0.4198 -1.5601 -0.6529
 2060SOL    HW2 7015   6.033   5.678   7.389  2.1056 -0.4556 -2.9759
 2061SOL     OW 7016   1.892   4.161   3.975  0.4323 -0.3272 -0.1295
 2061SOL    HW1 7017   1.889   4.175   4.069 -1.5369 -0.3747 -0.1290
 2061SOL    HW2 7018   1.837   4.230   3.939 -1.7318 -2.3019 -0.9046
 2062SOL     OW 7019   6.317   2.743   2.687  0.1628 -0.2707  0.2480
 2062SOL    HW1 7020   6.284   2.654   2.678 -0.1389 -0.2287  0.8522
 2062SOL    HW2 7021   6.379   2.754   2.615  0.2762 -1.0011  0.2339
 2063SOL     OW 7022   7.294   5.534   6.919 -0.5336 -0.5169  0.3376
 2063SOL    HW1 7023   7.365   5.472   6.939  0.2925  1.3061  3.7979
 2063SOL    HW2 7024   7.332   5.595   6.856  0.8214  0.0658  1.6734
 2064SOL     OW 7025   7.392   1.925   6.587 -0.6146 -0.0699  0.2220
 2064SOL    HW1 7026   7.382   1.905   6.494  0.7531 -0.4911  0.1487
 2064SOL    HW2 7027   7.351   1.850   6.632  0.1294 -0.6457 -0.0478
 2065SOL     OW 7028   0.135   4.923   4.685 -0.5668  0.1142 -0.1419
 2065SOL    HW1 7029   0.192   4.928   4.762 -1.9867  0.7070  0.9205
 2065SOL    HW2 7030   0.070   4.992   4.699 -0.5143  0.6402 -2.1932
 2066SOL     OW 7031   6.043   6.372   2.510 -0.0535  0.2888 -0.8452
 2066SOL    HW1 7032   6.124   6.381   2.459  0.2082 -0.0436 -0.5008
 2066SOL    HW2 7033   6.062   6.418   2.592 -0.3143  0.4463 -0.8739
 2067SOL     OW 7034   0.342   1.507   0.249 -0.1217 -0.1768  0.2107
 2067SOL    HW1 7035   0.429   1.535   0.221  0.2411 -0.3489  1.1234
 2067SOL    HW2 7036   0.357   1.458   0.330 -0.8956 -1.6568 -0.4965
 2068SOL     OW 7037   5.488   6.518   3.859 -0.7432  0.6356  0.7793
 2068SOL    HW1 7038   5.507   6.481   3.945 -0.4034 -0.5801  0.2015
 2068SOL    HW2 7039   5.436   6.452   3.815  1.8048 -0.2883 -1.1202
 2069SOL     OW 7040   0.069   4.318   3.221 -0.1006  0.8041 -0.4544
 2069SOL    HW1 7041   0.019   4.278   3.149  1.1229  0.0617 -0.9236
 2069SOL    HW2 7042   0.159   4.320   3.189  0.3716  1.0061  0.8384
 2070SOL     OW 7043   1.311   2.995   2.751  0.3501  0.1821  0.3396
 2070SOL    HW1 7044   1.225   3.001   2.791 -0.3282 -0.8287 -0.8897
 2070SOL    HW2 7045   1.302   2.927   2.684  2.2653 -0.3940  0.5957
 2071SOL     OW 7046   5.396   3.964   5.824 -0.3868 -0.0324 -0.0431
 2071SOL    HW1 7047   5.463   3.896   5.838  1.5927  1.4764 -1.7133
 2071SOL    HW2 7048   5.337   3.927   5.758 -0.9412 -1.1542  1.0366
 2072SOL     OW 7049   4.915   2.391   2.612 -0.0315  0.1809 -0.4073
 2072SOL    HW1 7050   4.904   2.316   2.554 -1.3176 -0.7070  0.9172
 2072SOL    HW2 7051   4.874   2.464   2.566  0.8106 -0.0048 -1.4983
 2073SOL     OW 7052   6.659   0.755   6.755 -0.1358  0.4877  0.2845
 2073SOL    HW1 7053   6.723   0.826   6.745  1.1504 -0.4307  1.5591
 2073SOL    HW2 7054   6.687   0.708   6.833  0.1050 -2.4510 -1.3889
 2074SOL     OW 7055   7.500   3.479   4.715  0.0403  0.4411  0.4699
 2074SOL    HW1 7056   7.499   3.393   4.757  1.1122 -0.8428 -1.9712
 2074SOL    HW2 7057   7.463   3.464   4.628 -2.4478  3.0752  0.9278
 2075SOL     OW 7058   1.456   1.817   6.875  0.3918 -0.0569  0.5878
 2075SOL    HW1 7059   1.530   1.762   6.847  2.2570  0.9542  3.1578
 2075SOL    HW2 7060   1.450   1.884   6.807 -0.3766 -1.9846 -1.3578
 2076SOL     OW 7061   0.309   2.887   2.363 -0.4091  0.4031  0.0237
 2076SOL    HW1 7062   0.378   2.953   2.369 -1.3416  1.3766  0.3233
 2076SOL    HW2 7063   0.274   2.881   2.452 -0.9163  0.1588 -0.1898
 2077SOL     OW 7064   3.700   3.004   7.682 -0.1754 -0.1110  0.1246
 2077SOL    HW1 7065   3.695   3.099   7.685 -0.2398 -0.1005 -0.2254
 2077SOL    HW2 7066   3.688   2.976   7.772 -0.5216  0.1952  0.1739
 2078SOL     OW 7067   7.822   0.540   3.349 -0.5042  0.5376  0.1077
 2078SOL    HW1 7068   7.751   0.555   3.411  0.7828  1.4595  1.4321
 2078SOL    HW2 7069   7.865   0.460   3.380  0.5217  1.3362  0.8417
 2079SOL     OW 7070   5.882   1.113   0.527  0.4431 -0.2142 -0.5217
 2079SOL    HW1 7071   5.918   1.079   0.609 -1.8456 -0.0657  0.6122
 2079SOL    HW2 7072   5.901   1.045   0.463  0.2289 -1.4081  0.6472
 2080SOL     OW 7073   4.729   7.185   0.513 -0.3269 -0.2065 -0.2345
 2080SOL    HW1 7074   4.790   7.122   0.549 -2.6933 -1.1039  2.5806
 2080SOL    HW2 7075   4.738   7.262   0.569 -0.3015  0.4679 -1.1383
 2081SOL     OW 7076   7.229   5.316   4.288  0.2083 -0.2910 -0.5621
 2081SOL    HW1 7077   7.264   5.366   4.361  1.9438  0.8666 -2.1106
 2081SOL    HW2 7078   7.251   5.225   4.309 -1.7404 -0.3487  1.6018
 2082SOL     OW 7079   1.291   5.500   3.450 -0.7694 -0.2040  0.3233
 2082SOL    HW1 7080   1.197   5.510   3.465 -0.3754  0.9566  2.3889
 2082SOL    HW2 7081   1.328   5.585   3.474  0.9841 -1.1798  1.2546
 2083SOL     OW 7082   1.757   0.673   4.859  0.5516 -0.0252 -0.6887
 2083SOL    HW1 7083   1.686   0.738   4.860 -0.6017 -1.2092 -1.5806
 2083SOL    HW2 7084   1.750   0.630   4.944  0.3038 -0.0450 -0.7188
 2084SOL     OW 7085   7.080   0.329   0.435 -0.6420 -0.0575 -0.0768
 2084SOL    HW1 7086   6.998   0.317   0.387 -1.6703  0.5344  1.4623
 2084SOL    HW2 7087   7.082   0.258   0.499 -0.6184  0.6678  0.7526
 2085SOL     OW 7088   5.892   4.557   5.970  0.0936  0.2695  0.0366
 2085SOL    HW1 7089   5.827   4.627   5.975 -0.0080  0.3465 -1.7618
 2085SOL    HW2 7090   5.869   4.498   6.041 -0.2234  1.7049  1.1927
 2086SOL     OW 7091   5.785   2.638   4.524  0.6163 -0.1428  0.7053
 2086SOL    HW1 7092   5.697   2.675   4.516  0.9952  0.5232 -0.6381
 2086SOL    HW2 7093   5.816   2.668   4.609  1.0301  3.0323 -0.4286
 2087SOL     OW 7094   7.522   0.302   3.517  0.8242  0.6916 -0.2895
 2087SOL    HW1 7095   7.471   0.274   3.440 -0.1090 -2.0096  1.2096
 2087SOL    HW2 7096   7.572   0.225   3.542  1.1399  1.5216  1.7940
 2088SOL     OW 7097   2.815   6.828   2.866 -0.2998  0.2148 -0.3082
 2088SOL    HW1 7098   2.867   6.853   2.943 -0.5685  2.1340 -0.6838
 2088SOL    HW2 7099   2.858   6.874   2.794 -0.5340 -0.9200 -1.1812
 2089SOL     OW 7100   7.871   1.302   2.068  0.8687  0.3835 -0.1564
 2089SOL    HW1 7101   7.828   1.308   2.153  0.8011 -0.1323 -0.1482
 2089SOL    HW2 7102   7.917   1.218   2.070  1.7217  0.8343 -0.2442
 2090SOL     OW 7103   4.271   6.934   2.578 -0.0541 -0.2615  0.2475
 2090SOL    HW1 7104   4.218   7.008   2.609 -1.8954 -1.9330  1.3468
 2090SOL    HW2 7105   4.335   6.921   2.648 -0.3241 -0.2480  0.5051
 2091SOL     OW 7106   3.041   0.236   5.754  0.3130  0.0526 -0.4526
 2091SOL    HW1 7107   2.995   0.165   5.711 -2.9081  1.8138 -0.2370
 2091SOL    HW2 7108   3.099   0.193   5.817 -1.1688 -2.3947 -0.6317
 2092SOL     OW 7109   5.596   1.089   2.714  0.2592 -0.4270 -0.0465
 2092SOL    HW1 7110   5.511   1.047   2.702 -0.0477 -0.3729  1.6675
 2092SOL    HW2 7111   5.577   1.165   2.770  1.2506  0.3204 -0.6995
 2093SOL     OW 7112   1.023   1.419   6.773  0.5327  0.1194 -0.1327
 2093SOL    HW1 7113   0.984   1.497   6.813  0.5825 -0.2058  0.5645
 2093SOL    HW2 7114   0.952   1.355   6.772  0.9156 -0.3369  0.7518
 2094SOL     OW 7115   3.391   4.555   5.848  0.1164 -0.1910  0.1693
 2094SOL    HW1 7116   3.332   4.588   5.781  1.5153  3.3727  0.4905
 2094SOL    HW2 7117   3.478   4.585   5.821  1.1445 -1.2995  2.0173
 2095SOL     OW 7118   4.976   1.413   1.426  0.5327 -0.3747  0.0538
 2095SOL    HW1 7119   5.037   1.340   1.430  2.9307  1.4868 -0.6230
 2095SOL    HW2 7120   4.981   1.454   1.512 -1.2556 -1.2695  0.6343
 2096SOL     OW 7121   3.746   5.409   6.725  0.0371 -0.0299 -0.3490
 2096SOL    HW1 7122   3.800   5.438   6.652  1.0731 -1.7115 -0.3068
 2096SOL    HW2 7123   3.656   5.417   6.693  0.4386 -0.0607 -1.5345
 2097SOL     OW 7124   1.095   4.516   2.604 -0.2618  0.6509  0.2232
 2097SOL    HW1 7125   1.081   4.601   2.645  0.3817  1.2904 -0.8634
 2097SOL    HW2 7126   1.014   4.468   2.622 -0.0292  0.8990  2.2001
 2098SOL     OW 7127   7.052   2.265   5.733 -0.3410  0.0989  0.0381
 2098SOL    HW1 7128   6.961   2.284   5.709 -0.2891 -0.8781 -1.0193
 2098SOL    HW2 7129   7.046   2.218   5.816 -0.6273  2.1107  1.2262
 2099SOL     OW 7130   3.562   7.886   6.224  0.2855 -0.0984  0.3020
 2099SOL    HW1 7131   3.641   7.857   6.179  0.4772  0.0267  0.5554
 2099SOL    HW2 7132   3.525   7.953   6.166  0.1403 -0.4494 -0.0156
 2100SOL     OW 7133   7.462   6.852   2.828  0.1086 -0.6405 -0.0023
 2100SOL    HW1 7134   7.493   6.812   2.909  1.4017 -0.6576 -0.4830
 2100SOL    HW2 7135   7.394   6.914   2.855  0.6937 -0.4760  1.1213
 2101SOL     OW 7136   4.214   0.296   6.080  0.2774  0.1149 -0.3430
 2101SOL    HW1 7137   4.286   0.267   6.137  0.0931 -0.4625 -0.3965
 2101SOL    HW2 7138   4.219   0.237   6.004 -2.8166 -2.8457  1.4600
 2102SOL     OW 7139   7.297   7.554   5.284 -0.2197 -0.2174  0.1535
 2102SOL    HW1 7140   7.313   7.638   5.242 -0.1645  0.7417  1.9876
 2102SOL    HW2 7141   7.331   7.565   5.373 -1.1249 -1.8325  0.7401
 2103SOL     OW 7142   7.454   7.061   7.823  0.0793  0.1704  0.7043
 2103SOL    HW1 7143   7.541   7.028   7.848  0.0757  0.2709  0.8489
 2103SOL    HW2 7144   7.393   6.994   7.855 -0.0158  0.8709  2.0349
 2104SOL     OW 7145   4.234   2.336   4.664  0.2897 -0.0808 -0.2737
 2104SOL    HW1 7146   4.259   2.385   4.742 -0.4005 -0.7688  0.3997
 2104SOL    HW2 7147   4.144   2.363   4.647  0.6066  0.4579 -1.1564
 2105SOL     OW 7148   5.077   6.507   3.683 -0.2932  0.3208 -0.0036
 2105SOL    HW1 7149   5.043   6.463   3.605  1.1793 -0.9468  0.0189
 2105SOL    HW2 7150   5.066   6.600   3.664 -0.3255  0.0343 -1.5772
 2106SOL     OW 7151   5.084   4.911   2.137 -0.2899  0.4403  0.1995
 2106SOL    HW1 7152   5.028   4.900   2.214 -2.2095  2.1144 -0.8806
 2106SOL    HW2 7153   5.096   4.822   2.103  0.4921 -0.3099  2.2989
 2107SOL     OW 7154   0.870   7.846   0.803  0.0390 -0.1974 -0.2536
 2107SOL    HW1 7155   0.813   7.915   0.839  0.5919  0.4614 -0.6140
 2107SOL    HW2 7156   0.865   7.775   0.867  0.1432  0.5204  0.5739
 2108SOL     OW 7157   1.401   5.440   3.805 -0.7627 -0.0257  0.4550
 2108SOL    HW1 7158   1.441   5.390   3.734 -0.0068  1.2639 -0.0585
 2108SOL    HW2 7159   1.401   5.380   3.879 -3.8596 -2.3481 -1.1735
 2109SOL     OW 7160   5.280   4.436   0.401 -0.2344  0.3098 -0.7777
 2109SOL    HW1 7161   5.240   4.522   0.384  1.0298  1.1643  0.3998
 2109SOL    HW2 7162   5.309   4.406   0.315 -0.7220  1.0428 -1.2139
 2110SOL     OW 7163   5.983   2.732   2.667 -0.0336  0.2810 -0.6003
 2110SOL    HW1 7164   6.053   2.788   2.634  0.1436 -0.1025 -0.8856
 2110SOL    HW2 7165   5.963   2.768   2.754 -0.0752  0.9140 -0.8665
 2111SOL     OW 7166   0.712   5.300   0.797 -0.7424  0.2825 -0.6126
 2111SOL    HW1 7167   0.689   5.347   0.717 -0.6579  0.3135 -0.6190
 2111SOL    HW2 7168   0.763   5.363   0.848  0.4433 -0.1960 -1.1656
 2112SOL     OW 7169   7.702   6.394   3.538  0.0518  0.5486 -0.3896
 2112SOL    HW1 7170   7.704   6.486   3.514 -0.9855  1.3589  2.2167
 2112SOL    HW2 7171   7.769   6.386   3.606 -0.2079 -0.4977 -0.2320
 2113SOL     OW 7172   5.154   6.819   1.979 -0.0952  0.4177  0.7259
 2113SOL    HW1 7173   5.242   6.818   2.017  1.2986 -5.6704 -1.6223
 2113SOL    HW2 7174   5.100   6.773   2.042 -0.0072 -1.2506 -0.3456
 2114SOL     OW 7175   2.617   7.717   3.695 -0.6865  0.7118  0.5350
 2114SOL    HW1 7176   2.669   7.674   3.763 -0.6959 -1.0423 -0.4988
 2114SOL    HW2 7177   2.600   7.648   3.631 -0.1373  2.4399 -1.5956
 2115SOL     OW 7178   1.456   6.541   5.822 -0.2281 -0.2212  0.3788
 2115SOL    HW1 7179   1.532   6.543   5.880  2.2652 -1.3679 -2.5769
 2115SOL    HW2 7180   1.442   6.448   5.803 -1.5557  0.0519 -0.1428
 2116SOL     OW 7181   3.213   0.548   5.439  0.0131 -0.3306 -0.9158
 2116SOL    HW1 7182   3.216   0.481   5.507 -1.9267 -0.1523 -0.5867
 2116SOL    HW2 7183   3.250   0.506   5.361  1.6872 -0.7402  0.0699
 2117SOL     OW 7184   4.903   3.154   3.096 -0.4154 -0.1044 -0.1053
 2117SOL    HW1 7185   4.944   3.156   3.009 -1.8363  0.0762 -0.8185
 2117SOL    HW2 7186   4.937   3.231   3.141  0.3682 -0.2202 -0.4891
 2118SOL     OW 7187   6.174   5.618   3.274  0.1292 -0.0669  0.2134
 2118SOL    HW1 7188   6.160   5.672   3.351  0.0431  0.3100 -0.0660
 2118SOL    HW2 7189   6.268   5.623   3.258  0.3061 -0.9602  0.8853
 2119SOL     OW 7190   2.281   3.896   1.983  0.1657  0.1504 -0.0628
 2119SOL    HW1 7191   2.319   3.927   1.901 -0.5942 -0.4075 -0.6456
 2119SOL    HW2 7192   2.356   3.873   2.037  0.7146  1.5424 -0.1700
 2120SOL     OW 7193   7.780   0.543   6.701  0.6171 -0.1419  0.7489
 2120SOL    HW1 7194   7.810   0.624   6.659 -0.9697 -0.1064 -0.4119
 2120SOL    HW2 7195   7.689   0.560   6.723 -0.2729 -2.1107 -1.0000
 2121SOL     OW 7196   6.942   1.165   3.722  0.2576 -0.5240  0.2301
 2121SOL    HW1 7197   6.944   1.251   3.763 -0.8025 -0.8996  1.1281
 2121SOL    HW2 7198   6.938   1.184   3.628 -0.7149  0.4320  0.4412
 2122SOL     OW 7199   5.644   4.327   5.045  0.2210 -0.0355  0.5214
 2122SOL    HW1 7200   5.677   4.394   5.104  2.2766  1.1881 -1.8330
 2122SOL    HW2 7201   5.672   4.356   4.958 -0.4754 -2.9836 -0.8022
 2123SOL     OW 7202   1.714   7.213   4.672 -0.5456 -0.0908  0.0090
 2123SOL    HW1 7203   1.723   7.306   4.693 -1.6528  0.1576 -0.5129
 2123SOL    HW2 7204   1.797   7.189   4.631 -0.0283  0.5127  0.6734
 2124SOL     OW 7205   4.008   7.481   5.450 -0.2660  0.2226  0.8609
 2124SOL    HW1 7206   3.964   7.420   5.510  0.1392 -0.3278  0.6046
 2124SOL    HW2 7207   3.981   7.452   5.363  0.6807 -0.1795  0.6991
 2125SOL     OW 7208   2.526   5.182   4.454  0.2261 -1.0318 -0.6077
 2125SOL    HW1 7209   2.439   5.180   4.413  0.4393 -1.3703 -1.0563
 2125SOL    HW2 7210   2.530   5.101   4.504  0.2627 -0.9904 -0.5443
 2126SOL     OW 7211   6.797   7.535   7.614 -0.0432 -0.4042  0.0164
 2126SOL    HW1 7212   6.890   7.513   7.618 -0.5200 -2.5403  0.7750
 2126SOL    HW2 7213   6.782   7.556   7.522  1.1125 -0.3730 -0.1883
 2127SOL     OW 7214   7.844   7.531   5.173  0.3482  0.2161 -0.1916
 2127SOL    HW1 7215   7.815   7.621   5.189 -0.9037  0.1518 -1.7726
 2127SOL    HW2 7216   7.930   7.540   5.132 -0.0731  0.7721 -0.9951
 2128SOL     OW 7217   3.362   1.485   4.812  0.7032  0.1907  0.7565
 2128SOL    HW1 7218   3.455   1.482   4.789  0.4569 -0.5605 -0.1815
 2128SOL    HW2 7219   3.351   1.571   4.854  1.6233  0.6931  0.0162
 2129SOL     OW 7220   3.413   5.608   0.685  0.1973 -0.4019 -0.0049
 2129SOL    HW1 7221   3.393   5.571   0.598 -0.5758  1.1560 -0.5219
 2129SOL    HW2 7222   3.498   5.571   0.707  0.5331 -0.6386 -1.5472
 2130SOL     OW 7223   0.990   0.750   4.155 -0.5037  0.3363 -0.8612
 2130SOL    HW1 7224   0.975   0.655   4.153  1.3167 -0.0162  0.2388
 2130SOL    HW2 7225   0.906   0.787   4.183 -0.2424 -1.2710  2.5123
 2131SOL     OW 7226   2.747   3.489   1.653 -0.0970  0.1466  0.7151
 2131SOL    HW1 7227   2.739   3.573   1.609  1.6371 -0.9087 -1.8227
 2131SOL    HW2 7228   2.721   3.424   1.588  1.9382 -1.4723  1.4045
 2132SOL     OW 7229   2.950   6.499   4.026  0.0404  0.3218 -0.3680
 2132SOL    HW1 7230   2.964   6.592   4.041  1.1026  0.1911 -0.5050
 2132SOL    HW2 7231   3.010   6.455   4.086 -1.0106 -0.2996  0.2690
 2133SOL     OW 7232   7.348   2.539   4.159  0.2743 -0.0467 -0.3678
 2133SOL    HW1 7233   7.422   2.580   4.204  1.4023  0.6027 -2.6347
 2133SOL    HW2 7234   7.294   2.504   4.229  2.1212  0.4942  1.4478
 2134SOL     OW 7235   1.325   4.473   1.953 -0.6776 -0.5453  0.0222
 2134SOL    HW1 7236   1.279   4.557   1.949 -1.6545 -1.1048 -2.2316
 2134SOL    HW2 7237   1.417   4.495   1.942 -1.1089  0.1611 -2.8246
 2135SOL     OW 7238   7.044   5.858   3.682  0.1671 -0.3751  0.4281
 2135SOL    HW1 7239   7.049   5.936   3.737 -0.3996  0.0997 -0.1902
 2135SOL    HW2 7240   7.107   5.874   3.612 -0.6214 -0.0483 -0.2213
 2136SOL     OW 7241   4.581   2.966   6.160 -0.7469  0.4273 -0.4503
 2136SOL    HW1 7242   4.617   2.891   6.208  1.1817  0.3350 -1.9352
 2136SOL    HW2 7243   4.655   3.001   6.110 -1.8641  2.6558 -0.6790
 2137SOL     OW 7244   6.577   6.443   4.596  0.7284 -0.5451  0.5153
 2137SOL    HW1 7245   6.492   6.485   4.582  0.7363 -0.5065  0.5846
 2137SOL    HW2 7246   6.599   6.405   4.511  0.3199 -1.1538  0.6741
 2138SOL     OW 7247   7.827   3.880   3.895  0.1396  0.3619  0.2350
 2138SOL    HW1 7248   7.889   3.890   3.967  2.5647  0.1998 -1.6554
 2138SOL    HW2 7249   7.845   3.955   3.838 -0.5527 -0.3444 -0.9552
 2139SOL     OW 7250   3.123   0.215   1.581  0.5732  0.3821 -0.9647
 2139SOL    HW1 7251   3.202   0.244   1.536  3.6112 -1.9292  2.3268
 2139SOL    HW2 7252   3.097   0.135   1.535  1.3736  0.1046 -0.9549
 2140SOL     OW 7253   0.258   7.266   5.931 -0.5723  0.1040 -0.0175
 2140SOL    HW1 7254   0.263   7.347   5.880 -0.3708 -0.0910 -0.3069
 2140SOL    HW2 7255   0.231   7.200   5.868  0.1520 -0.2360  0.0247
 2141SOL     OW 7256   7.498   5.240   2.377  0.5497 -0.6392  0.4354
 2141SOL    HW1 7257   7.476   5.229   2.470  1.2045 -1.7393  0.4783
 2141SOL    HW2 7258   7.583   5.284   2.378 -0.4430  1.3883  0.3016
 2142SOL     OW 7259   5.878   1.332   4.806 -0.0212  0.7664 -0.0462
 2142SOL    HW1 7260   5.902   1.292   4.722  1.3027  0.3860  0.4915
 2142SOL    HW2 7261   5.897   1.425   4.795 -2.4589  1.2345 -1.0646
 2143SOL     OW 7262   5.769   7.440   3.303 -0.4085 -0.3493 -0.1126
 2143SOL    HW1 7263   5.845   7.495   3.324  0.1207 -0.8559 -0.6353
 2143SOL    HW2 7264   5.743   7.469   3.215 -0.2661 -0.7716 -0.2974
 2144SOL     OW 7265   1.830   7.384   1.143  0.5322 -0.2599 -0.3092
 2144SOL    HW1 7266   1.740   7.414   1.139  0.1137 -1.3869  0.0207
 2144SOL    HW2 7267   1.870   7.436   1.213  0.1891  0.3546 -0.5688
 2145SOL     OW 7268   7.766   0.259   0.399  0.2065  0.3520 -0.6314
 2145SOL    HW1 7269   7.800   0.187   0.346 -0.7370 -0.4638 -0.1510
 2145SOL    HW2 7270   7.822   0.259   0.477  0.0968  0.0289 -0.5523
 2146SOL     OW 7271   1.665   7.687   1.666 -0.1865  0.1670 -0.4024
 2146SOL    HW1 7272   1.699   7.776   1.677  0.3065 -0.2083  1.2874
 2146SOL    HW2 7273   1.580   7.700   1.624 -0.0980  1.4351 -0.2345
 2147SOL     OW 7274   4.093   6.302   1.638  0.3896 -0.4999 -0.0975
 2147SOL    HW1 7275   4.148   6.240   1.687 -0.4048 -0.8531  0.3672
 2147SOL    HW2 7276   4.014   6.311   1.691 -0.5664 -1.0075 -1.3721
 2148SOL     OW 7277   5.545   6.125   6.185 -0.2582 -0.4752  0.5563
 2148SOL    HW1 7278   5.553   6.058   6.253 -1.4018  1.0828  2.3562
 2148SOL    HW2 7279   5.617   6.186   6.203 -0.2882 -0.3024  0.0945
 2149SOL     OW 7280   4.333   6.025   6.089  0.0316  0.4382  0.1978
 2149SOL    HW1 7281   4.248   6.068   6.075 -0.0310  0.8466  1.7108
 2149SOL    HW2 7282   4.374   6.025   6.002 -0.7630  1.8430 -0.2072
 2150SOL     OW 7283   1.992   3.050   5.716 -0.1789  0.1037  0.3809
 2150SOL    HW1 7284   2.078   3.075   5.684  1.1965 -0.1655  3.5512
 2150SOL    HW2 7285   1.931   3.098   5.660  2.0758  2.4432 -0.2563
 2151SOL     OW 7286   7.383   0.904   3.810 -0.0625  0.0812  0.1173
 2151SOL    HW1 7287   7.320   0.853   3.862 -1.2997  0.7129 -0.7279
 2151SOL    HW2 7288   7.394   0.985   3.860  0.0400 -0.0149  0.2491
 2152SOL     OW 7289   0.844   2.250   1.997  0.3069  0.0198  0.2533
 2152SOL    HW1 7290   0.823   2.341   1.976 -2.2042 -0.2184  1.3876
 2152SOL    HW2 7291   0.871   2.212   1.913 -2.3786  0.8878 -1.1165
 2153SOL     OW 7292   4.417   3.505   6.270  0.0441 -0.2179  0.3919
 2153SOL    HW1 7293   4.479   3.433   6.285  1.2056  0.6341 -0.1238
 2153SOL    HW2 7294   4.384   3.489   6.182 -1.7791 -1.5825  1.2553
 2154SOL     OW 7295   1.927   0.595   6.305 -0.2009 -0.6035 -0.1125
 2154SOL    HW1 7296   1.834   0.596   6.283  0.0059  1.5706 -1.2730
 2154SOL    HW2 7297   1.937   0.664   6.370  0.4581 -1.6052  0.8814
 2155SOL     OW 7298   6.141   5.453   5.180  0.3245  0.2941  0.3282
 2155SOL    HW1 7299   6.077   5.500   5.127  1.9427  0.6767 -1.4179
 2155SOL    HW2 7300   6.090   5.411   5.249 -1.7837  0.5610 -0.9909
 2156SOL     OW 7301   4.508   1.093   1.661 -0.2362  0.4916  0.5981
 2156SOL    HW1 7302   4.445   1.070   1.593 -0.1812 -0.6313  0.9016
 2156SOL    HW2 7303   4.477   1.177   1.695  0.0188  1.3133 -1.1143
 2157SOL     OW 7304   2.432   4.494   4.929 -0.1638 -0.7599 -0.6901
 2157SOL    HW1 7305   2.484   4.449   4.863 -0.6022 -0.3053 -1.3527
 2157SOL    HW2 7306   2.433   4.586   4.902 -0.4596 -0.5917 -0.1433
 2158SOL     OW 7307   0.184   4.576   5.799 -0.0146  0.4616 -0.1381
 2158SOL    HW1 7308   0.253   4.622   5.751  1.9134 -0.0607  1.9299
 2158SOL    HW2 7309   0.149   4.513   5.737  1.9852  0.1635 -1.0473
 2159SOL     OW 7310   0.042   3.209   7.133  0.0014 -0.0135  0.2083
 2159SOL    HW1 7311   0.002   3.284   7.177  0.2444 -1.0522  2.2966
 2159SOL    HW2 7312  -0.030   3.169   7.084 -0.4231  0.7763  0.1571
 2160SOL     OW 7313   3.416   1.515   2.666  0.0128 -0.5632  0.1355
 2160SOL    HW1 7314   3.403   1.456   2.740 -0.9129  1.8644  2.0531
 2160SOL    HW2 7315   3.328   1.539   2.638  0.3243 -1.6375 -2.0582
 2161SOL     OW 7316   5.175   2.607   2.777 -0.3374 -0.6461  0.2361
 2161SOL    HW1 7317   5.259   2.563   2.790 -0.2425 -0.4306  0.3423
 2161SOL    HW2 7318   5.138   2.615   2.865  0.0632  0.3274  0.3262
 2162SOL     OW 7319   3.939   5.752   4.845 -0.1866  0.2507 -0.2335
 2162SOL    HW1 7320   3.947   5.832   4.794 -0.7285 -0.0149 -0.7545
 2162SOL    HW2 7321   3.869   5.704   4.802  1.1865 -1.2366 -0.9161
 2163SOL     OW 7322   0.492   5.539   3.333 -0.1281  0.4963 -0.0532
 2163SOL    HW1 7323   0.436   5.576   3.401  0.2251 -0.8789  1.0311
 2163SOL    HW2 7324   0.539   5.468   3.377  0.0515 -0.4829 -1.7572
 2164SOL     OW 7325   2.952   3.534   7.207 -0.1425  0.1586  0.1179
 2164SOL    HW1 7326   2.859   3.514   7.220 -0.2440  1.5778  1.7607
 2164SOL    HW2 7327   2.996   3.450   7.220 -1.0105 -0.1082  1.5382
 2165SOL     OW 7328   2.848   1.709   1.556 -0.5236  0.1942 -0.1640
 2165SOL    HW1 7329   2.892   1.794   1.548 -0.8650  0.4198  0.3317
 2165SOL    HW2 7330   2.756   1.728   1.536 -0.3223 -0.3786 -1.7696
 2166SOL     OW 7331   6.545   3.225   5.909  0.3391 -0.3106 -0.9122
 2166SOL    HW1 7332   6.553   3.234   6.004  1.8625 -1.4904 -0.8764
 2166SOL    HW2 7333   6.523   3.313   5.878 -1.0113 -0.0717  0.5753
 2167SOL     OW 7334   6.505   6.353   2.631 -0.4701 -0.6219  0.7904
 2167SOL    HW1 7335   6.490   6.286   2.697 -0.9179 -0.9048  0.4120
 2167SOL    HW2 7336   6.600   6.357   2.622 -0.2342  1.1171  3.1392
 2168SOL     OW 7337   7.879   3.381   0.176 -0.3888 -0.2885 -0.8379
 2168SOL    HW1 7338   7.790   3.355   0.199  0.0529  0.3296  1.9713
 2168SOL    HW2 7339   7.930   3.300   0.180  0.0155 -0.0449  2.7392
 2169SOL     OW 7340   7.888   4.535   4.156  0.6440  0.4782 -0.4972
 2169SOL    HW1 7341   7.910   4.503   4.068 -2.8783  0.4662 -1.5092
 2169SOL    HW2 7342   7.833   4.612   4.141 -0.2504  0.3331  1.6947
 2170SOL     OW 7343   7.208   3.314   6.931 -0.0517 -0.6174  0.2589
 2170SOL    HW1 7344   7.223   3.343   6.841  0.2648 -1.2404  0.1090
 2170SOL    HW2 7345   7.255   3.231   6.938  1.8221  0.4773  1.6416
 2171SOL     OW 7346   4.870   3.594   1.025 -0.0317  1.1518 -0.1082
 2171SOL    HW1 7347   4.904   3.555   0.945  1.2491  1.9791  0.0172
 2171SOL    HW2 7348   4.900   3.685   1.023  1.6490  0.7338  2.1980
 2172SOL     OW 7349   4.263   4.556   1.048 -0.4319  0.4084 -0.2314
 2172SOL    HW1 7350   4.317   4.628   1.015 -0.0531  0.7457  1.0905
 2172SOL    HW2 7351   4.246   4.577   1.139 -0.7100 -0.9452  0.0589
 2173SOL     OW 7352   5.099   4.932   0.416  0.3620  0.1008  0.1868
 2173SOL    HW1 7353   5.131   4.951   0.328  0.0551  0.7415  0.2087
 2173SOL    HW2 7354   5.033   5.000   0.433  0.5965  0.1358  1.0020
 2174SOL     OW 7355   3.556   2.156   2.882 -0.2718 -0.3879 -0.5312
 2174SOL    HW1 7356   3.485   2.156   2.817  0.5535  0.2002 -1.4738
 2174SOL    HW2 7357   3.633   2.186   2.833  0.3816  0.0808  0.7331
 2175SOL     OW 7358   6.853   0.393   3.767  0.3914 -0.1167 -0.0716
 2175SOL    HW1 7359   6.915   0.321   3.780 -1.1227 -1.4466  0.1223
 2175SOL    HW2 7360   6.828   0.388   3.675 -0.0130 -0.1035  0.0337
 2176SOL     OW 7361   7.627   1.533   4.161  0.0355  0.2862 -0.3494
 2176SOL    HW1 7362   7.700   1.486   4.202 -0.6072  0.4279  1.0248
 2176SOL    HW2 7363   7.632   1.621   4.198 -1.1555  0.1382  0.2163
 2177SOL     OW 7364   0.954   6.396   3.675  0.8441  0.0467  0.6175
 2177SOL    HW1 7365   0.924   6.396   3.584 -1.4790 -0.7439  1.3064
 2177SOL    HW2 7366   1.018   6.467   3.678  1.2807 -0.1467 -1.7017
 2178SOL     OW 7367   1.026   0.910   2.978 -0.6733 -0.3046  0.3283
 2178SOL    HW1 7368   1.076   0.985   2.945  1.0853 -2.0867 -1.3412
 2178SOL    HW2 7369   1.043   0.908   3.072  1.8991 -0.3927 -0.0733
 2179SOL     OW 7370   5.574   3.670   2.994  0.1625  0.3442  0.2168
 2179SOL    HW1 7371   5.567   3.764   2.980 -1.1879 -0.0017 -1.9369
 2179SOL    HW2 7372   5.597   3.634   2.908 -1.9180 -1.4835  0.3295
 2180SOL     OW 7373   1.480   6.124   1.838 -0.1813  0.1459  0.0637
 2180SOL    HW1 7374   1.423   6.198   1.860 -1.5111  0.0995 -2.6963
 2180SOL    HW2 7375   1.421   6.049   1.838  0.5496 -0.4344  0.0571
 2181SOL     OW 7376   5.619   5.182   3.949 -0.1512 -0.2579 -0.1636
 2181SOL    HW1 7377   5.648   5.188   4.040  0.4468 -2.2830 -0.1738
 2181SOL    HW2 7378   5.697   5.203   3.897 -0.4089  0.5814 -0.2229
 2182SOL     OW 7379   0.222   6.634   4.697 -0.8413 -0.1060  0.2494
 2182SOL    HW1 7380   0.206   6.577   4.772 -2.1562  0.5312  0.4803
 2182SOL    HW2 7381   0.201   6.722   4.728  0.4708  0.4470 -0.3134
 2183SOL     OW 7382   3.791   4.444   0.597 -0.0945  0.3089  0.2285
 2183SOL    HW1 7383   3.806   4.477   0.686 -0.1554 -0.5238  0.5567
 2183SOL    HW2 7384   3.874   4.403   0.572 -0.1401  0.3681 -0.0247
 2184SOL     OW 7385   5.497   4.387   3.830  0.2322 -0.0843 -0.3793
 2184SOL    HW1 7386   5.554   4.311   3.845 -0.4097 -0.3758  0.6866
 2184SOL    HW2 7387   5.557   4.457   3.803  0.9219 -0.7641 -0.6534
 2185SOL     OW 7388   0.640   7.372   2.915  0.2860 -0.4207  0.0905
 2185SOL    HW1 7389   0.643   7.467   2.908  2.1614 -0.4430  0.1827
 2185SOL    HW2 7390   0.676   7.353   3.001 -1.1999 -1.1845  0.5733
 2186SOL     OW 7391   5.982   4.662   5.719 -0.0427 -0.0416  0.3501
 2186SOL    HW1 7392   5.959   4.649   5.627  0.5416  0.2222  0.1545
 2186SOL    HW2 7393   5.905   4.634   5.768  0.1013 -1.4007 -0.1559
 2187SOL     OW 7394   4.917   3.243   2.320  0.2272 -0.0090 -0.6119
 2187SOL    HW1 7395   4.937   3.223   2.228 -1.5535 -1.0513 -0.8293
 2187SOL    HW2 7396   4.910   3.157   2.362  1.0077  0.4592  0.5185
 2188SOL     OW 7397   0.366   4.843   2.398 -0.4195 -0.1643 -0.3109
 2188SOL    HW1 7398   0.305   4.827   2.470  1.0017 -1.9469  0.5846
 2188SOL    HW2 7399   0.323   4.803   2.321 -1.3664  0.6259 -0.2184
 2189SOL     OW 7400   3.645   1.907   6.958 -0.0417  0.3787 -0.1354
 2189SOL    HW1 7401   3.655   1.966   6.884 -1.5834  1.2535  0.3207
 2189SOL    HW2 7402   3.698   1.947   7.027 -0.1321  0.5886 -0.1878
 2190SOL     OW 7403   3.179   4.268   3.829  0.0213  0.5374  0.0232
 2190SOL    HW1 7404   3.172   4.229   3.742  0.7104 -0.9459  0.5954
 2190SOL    HW2 7405   3.224   4.351   3.815 -1.9533  1.4547 -1.3057
 2191SOL     OW 7406   5.927   6.371   1.926 -0.2092 -0.6104 -0.3164
 2191SOL    HW1 7407   5.978   6.323   1.861  1.3206 -2.9706  2.3799
 2191SOL    HW2 7408   5.850   6.316   1.941 -1.0794  0.4448 -0.8512
 2192SOL     OW 7409   1.134   1.441   0.822  0.3631  0.2090  0.1561
 2192SOL    HW1 7410   1.099   1.471   0.738  0.3095  0.1746  0.1666
 2192SOL    HW2 7411   1.140   1.346   0.814 -0.7971  0.0748  0.6320
 2193SOL     OW 7412   5.204   0.270   6.465 -0.6868 -0.1751 -0.0801
 2193SOL    HW1 7413   5.177   0.210   6.534 -0.8743  0.3186  0.2799
 2193SOL    HW2 7414   5.230   0.213   6.392 -0.8139 -0.6888  0.2736
 2194SOL     OW 7415   4.214   3.914   5.578  0.4491 -0.6011  0.4733
 2194SOL    HW1 7416   4.291   3.867   5.545 -0.0700 -0.0756 -1.6652
 2194SOL    HW2 7417   4.183   3.965   5.503 -1.0057  0.5200  1.7570
 2195SOL     OW 7418   4.278   0.240   0.938  0.2956 -0.3779  0.7312
 2195SOL    HW1 7419   4.230   0.163   0.967 -0.1881 -0.6265 -0.6509
 2195SOL    HW2 7420   4.314   0.279   1.018 -2.6055  0.1248  1.8834
 2196SOL     OW 7421   5.809   4.524   6.820 -0.1103  0.0802  0.8711
 2196SOL    HW1 7422   5.740   4.577   6.860 -0.5033  1.6074 -1.6072
 2196SOL    HW2 7423   5.763   4.460   6.767  0.1961  1.9325 -1.8481
 2197SOL     OW 7424   4.694   2.951   3.717  0.1501 -0.3142 -0.3024
 2197SOL    HW1 7425   4.696   2.972   3.811 -2.3520 -0.0960 -0.2272
 2197SOL    HW2 7426   4.726   3.030   3.674 -0.3842  0.2477  0.3162
 2198SOL     OW 7427   1.390   3.219   3.060  0.4420 -0.2569  0.3713
 2198SOL    HW1 7428   1.446   3.168   3.002 -0.4440 -1.8522  0.8539
 2198SOL    HW2 7429   1.404   3.310   3.034 -0.6275 -0.9279 -3.0020
 2199SOL     OW 7430   0.358   6.282   6.782 -0.1793  0.3486 -0.1013
 2199SOL    HW1 7431   0.297   6.212   6.807  0.1624 -0.0242 -0.2885
 2199SOL    HW2 7432   0.355   6.283   6.686  1.2554 -0.7463 -0.2085
 2200SOL     OW 7433   4.146   3.429   0.427  0.1175  0.4350 -0.1599
 2200SOL    HW1 7434   4.167   3.416   0.519  0.7161 -1.0222 -0.4665
 2200SOL    HW2 7435   4.168   3.520   0.409 -3.2240  1.8318  1.9380
 2201SOL     OW 7436   6.293   7.431   7.453  0.3922 -0.4186 -0.4009
 2201SOL    HW1 7437   6.239   7.423   7.374 -2.5056 -3.1140  1.5930
 2201SOL    HW2 7438   6.322   7.522   7.454 -1.2051  0.2406 -3.4670
 2202SOL     OW 7439   5.760   3.760   1.352 -0.0680 -0.0295  0.2895
 2202SOL    HW1 7440   5.825   3.702   1.314 -0.3408  0.1229 -0.4398
 2202SOL    HW2 7441   5.718   3.708   1.421  0.1091 -0.4785  0.0600
 2203SOL     OW 7442   3.555   6.418   7.402 -0.0192 -0.1673  0.1179
 2203SOL    HW1 7443   3.551   6.412   7.307 -0.5349 -0.3091  0.1507
 2203SOL    HW2 7444   3.545   6.512   7.420  0.0014 -0.1494  0.0390
 2204SOL     OW 7445   4.387   1.963   1.405 -0.1722  0.2791 -0.4746
 2204SOL    HW1 7446   4.323   1.935   1.340 -0.0673  0.8124 -0.8187
 2204SOL    HW2 7447   4.439   1.885   1.424 -0.7265 -0.0777 -0.4227
 2205SOL     OW 7448   3.321   4.963   6.460  0.0607 -0.0511 -0.6859
 2205SOL    HW1 7449   3.388   4.940   6.525  1.7830  0.0473 -2.3522
 2205SOL    HW2 7450   3.275   5.037   6.500  2.4686  1.4172 -0.3961
 2206SOL     OW 7451   1.560   6.846   2.387  0.3892  0.0281  0.0862
 2206SOL    HW1 7452   1.600   6.871   2.304 -0.8943  0.7613 -0.3468
 2206SOL    HW2 7453   1.490   6.910   2.400 -0.5084 -1.0755  0.8979
 2207SOL     OW 7454   1.813   3.206   5.536  0.1983  0.5831  0.1491
 2207SOL    HW1 7455   1.734   3.257   5.518  0.2906  1.1488  1.2873
 2207SOL    HW2 7456   1.853   3.193   5.450 -0.9934  0.5014 -0.4126
 2208SOL     OW 7457   7.371   7.560   5.803 -0.1101  1.0714  0.5171
 2208SOL    HW1 7458   7.404   7.610   5.878 -0.8925  1.2871  0.7242
 2208SOL    HW2 7459   7.315   7.493   5.841  1.3773 -0.3690  0.2855
 2209SOL     OW 7460   2.133   7.881   1.941 -0.0891  0.4211  0.1146
 2209SOL    HW1 7461   2.193   7.863   1.869 -1.8661  3.0407 -2.2056
 2209SOL    HW2 7462   2.135   7.976   1.951 -1.1388  0.2560  2.4749
 2210SOL     OW 7463   0.968   3.105   3.244  0.0541 -0.2539  0.1849
 2210SOL    HW1 7464   1.059   3.099   3.274  0.2288 -1.5214 -0.5424
 2210SOL    HW2 7465   0.966   3.184   3.191  0.5031  0.2829  0.9303
 2211SOL     OW 7466   1.504   5.906   1.353 -0.2630  0.0156  0.3780
 2211SOL    HW1 7467   1.414   5.929   1.330 -0.2485 -0.2140  0.0908
 2211SOL    HW2 7468   1.519   5.951   1.437  0.0965  1.8987 -0.6280
 2212SOL     OW 7469   1.509   4.981   7.853 -0.7004 -0.4789  0.1063
 2212SOL    HW1 7470   1.449   5.035   7.802  0.2979 -0.4610 -1.0928
 2212SOL    HW2 7471   1.596   5.017   7.835 -0.1788 -1.4004  0.6637
 2213SOL     OW 7472   7.701   3.541   3.593  0.2006 -0.3307  0.1061
 2213SOL    HW1 7473   7.756   3.480   3.544 -0.5079 -0.8227 -0.1036
 2213SOL    HW2 7474   7.615   3.498   3.595 -0.1418  0.3657  0.5219
 2214SOL     OW 7475   0.818   3.218   3.597  0.1782 -0.6100 -0.4391
 2214SOL    HW1 7476   0.906   3.251   3.582 -0.7234  1.5180 -1.4543
 2214SOL    HW2 7477   0.792   3.181   3.513  0.2606 -1.6774 -0.0045
 2215SOL     OW 7478   6.357   2.007   4.759 -0.0285  0.0472 -0.5261
 2215SOL    HW1 7479   6.442   1.967   4.777 -0.1174  0.1398  0.1398
 2215SOL    HW2 7480   6.350   2.078   4.823 -1.3320 -1.0394  0.5946
 2216SOL     OW 7481   4.018   6.064   6.557  0.3062 -0.3886  0.3095
 2216SOL    HW1 7482   4.059   6.117   6.626 -1.3364  0.3030  0.7896
 2216SOL    HW2 7483   3.961   6.124   6.511 -0.9241 -1.5337  0.2945
 2217SOL     OW 7484   5.295   2.646   7.920 -0.0326  0.7109  0.1439
 2217SOL    HW1 7485   5.222   2.668   7.863  0.4295  0.8044 -0.4241
 2217SOL    HW2 7486   5.347   2.726   7.925  0.7322  0.2853 -0.5356
 2218SOL     OW 7487   1.020   4.755   4.496  0.2196  0.0483  0.2511
 2218SOL    HW1 7488   0.992   4.712   4.415  0.3356  0.0591  0.2053
 2218SOL    HW2 7489   0.991   4.846   4.487 -0.1984 -0.0622  0.4310
 2219SOL     OW 7490   1.498   1.331   3.634  0.0892 -0.3778 -0.3077
 2219SOL    HW1 7491   1.485   1.276   3.711  0.3364  0.1532  0.1160
 2219SOL    HW2 7492   1.534   1.271   3.568 -0.7528 -0.9818 -0.2392
 2220SOL     OW 7493   2.735   2.715   4.035  0.0487  0.0084 -0.2376
 2220SOL    HW1 7494   2.824   2.682   4.020 -0.1265 -0.4273 -0.3321
 2220SOL    HW2 7495   2.697   2.655   4.098 -0.4359 -0.2539 -0.7668
 2221SOL     OW 7496   6.577   6.804   1.983 -0.0136 -0.1142 -0.2094
 2221SOL    HW1 7497   6.535   6.720   2.002  0.4014 -0.3742 -0.4396
 2221SOL    HW2 7498   6.649   6.810   2.046 -1.5379  1.2205  1.5149
 2222SOL     OW 7499   5.182   3.091   7.178  0.0588  0.1240  0.5872
 2222SOL    HW1 7500   5.262   3.039   7.174 -0.6716 -0.9324 -1.3620
 2222SOL    HW2 7501   5.207   3.177   7.143  0.6508  0.2942  1.3847
 2223SOL     OW 7502   2.805   1.350   3.408  0.3274  0.1161  0.6774
 2223SOL    HW1 7503   2.826   1.406   3.333 -0.1446  1.1416  1.2831
 2223SOL    HW2 7504   2.713   1.328   3.397  1.1336 -2.8881 -1.0207
 2224SOL     OW 7505   3.956   3.812   4.856  0.1924 -0.2766 -0.1622
 2224SOL    HW1 7506   4.018   3.873   4.815 -0.1149 -1.2010 -2.1616
 2224SOL    HW2 7507   3.921   3.859   4.930  0.1367  1.9071 -1.4898
 2225SOL     OW 7508   7.663   4.619   1.218  0.2827  0.0545  0.4960
 2225SOL    HW1 7509   7.595   4.589   1.279  1.1177  0.6936  1.7696
 2225SOL    HW2 7510   7.703   4.538   1.186 -0.9964 -0.3313 -0.2228
 2226SOL     OW 7511   0.465   4.039   0.328  0.0063 -0.1222  0.1049
 2226SOL    HW1 7512   0.509   3.978   0.388  0.2892  0.0333  0.0548
 2226SOL    HW2 7513   0.448   4.116   0.381  0.0706 -0.0636  0.0398
 2227SOL     OW 7514   6.229   3.360   5.421  0.3075 -0.6396 -0.1813
 2227SOL    HW1 7515   6.321   3.350   5.446  1.3130 -0.1359 -3.2677
 2227SOL    HW2 7516   6.209   3.452   5.439  0.9865 -0.2999 -1.0837
 2228SOL     OW 7517   1.764   4.065   2.569  0.1894 -0.3387  0.4235
 2228SOL    HW1 7518   1.726   3.983   2.600  3.5497 -1.8739  0.9698
 2228SOL    HW2 7519   1.728   4.132   2.627 -2.1000 -1.4940  0.4231
 2229SOL     OW 7520   3.909   0.727   2.278  0.1931 -0.3053 -0.4399
 2229SOL    HW1 7521   3.865   0.766   2.202  0.6996  0.2529 -0.4630
 2229SOL    HW2 7522   3.925   0.801   2.336 -0.1782 -0.7292  0.2095
 2230SOL     OW 7523   2.509   3.640   1.794 -0.1783  0.5016 -0.0867
 2230SOL    HW1 7524   2.571   3.705   1.760 -0.3185  0.4684 -0.4034
 2230SOL    HW2 7525   2.565   3.573   1.835  0.1054 -0.4193 -1.8905
 2231SOL     OW 7526   0.072   4.592   0.465  0.0217  0.6230 -0.3232
 2231SOL    HW1 7527   0.133   4.604   0.392 -0.0358  1.6596 -0.2151
 2231SOL    HW2 7528   0.128   4.572   0.540  0.0870 -0.3420 -0.6172
 2232SOL     OW 7529   4.895   5.678   0.872 -0.2303  0.2703 -0.0866
 2232SOL    HW1 7530   4.894   5.747   0.805 -0.7450  0.7018  0.3524
 2232SOL    HW2 7531   4.823   5.701   0.931 -0.4957 -0.7270 -0.0079
 2233SOL     OW 7532   3.324   2.240   5.200  0.1597 -0.8726  0.0009
 2233SOL    HW1 7533   3.301   2.238   5.107  1.4062 -0.4177 -0.3376
 2233SOL    HW2 7534   3.354   2.330   5.215  2.5539 -1.6474  0.1776
 2234SOL     OW 7535   2.319   3.576   2.138  0.6733 -0.5431  0.5745
 2234SOL    HW1 7536   2.379   3.645   2.166 -0.7782  0.7161  0.6661
 2234SOL    HW2 7537   2.233   3.605   2.167 -0.2801 -1.3269 -1.2964
 2235SOL     OW 7538   0.674   3.977   7.598 -0.0780 -0.1741 -0.3393
 2235SOL    HW1 7539   0.615   3.907   7.570  0.0871  0.0121 -1.1665
 2235SOL    HW2 7540   0.754   3.931   7.625 -0.5079 -0.4086  0.5865
 2236SOL     OW 7541   2.102   5.542   2.439 -0.2416  0.0817 -0.1411
 2236SOL    HW1 7542   2.071   5.606   2.503 -0.0324 -0.7052  0.7614
 2236SOL    HW2 7543   2.138   5.471   2.491  4.0059  1.2972 -1.0247
 2237SOL     OW 7544   2.016   2.518   3.104  0.2821 -0.3445 -0.3251
 2237SOL    HW1 7545   2.041   2.505   3.195  3.4503 -1.4840 -1.2398
 2237SOL    HW2 7546   1.960   2.444   3.083 -1.9065  0.8042  1.0469
 2238SOL     OW 7547   1.306   2.989   5.113  0.2269 -0.0880 -0.2301
 2238SOL    HW1 7548   1.273   3.050   5.179  0.7269 -0.1010  0.0339
 2238SOL    HW2 7549   1.320   3.043   5.035 -1.1118 -0.2129 -0.5866
 2239SOL     OW 7550   6.116   2.297   4.508  0.0820 -0.3360 -0.0906
 2239SOL    HW1 7551   6.037   2.344   4.536 -1.8742 -2.0136 -2.4301
 2239SOL    HW2 7552   6.104   2.208   4.540  0.9226 -0.6759 -0.6961
 2240SOL     OW 7553   2.968   7.171   2.936 -0.0627  0.5286 -0.0873
 2240SOL    HW1 7554   2.968   7.262   2.906  2.6109  0.3096 -1.0103
 2240SOL    HW2 7555   3.059   7.144   2.931 -0.5180 -1.6913  1.8707
 2241SOL     OW 7556   2.148   2.748   6.221 -0.0567 -0.1308  0.1678
 2241SOL    HW1 7557   2.240   2.730   6.201 -0.1685 -0.3747 -0.1350
 2241SOL    HW2 7558   2.151   2.799   6.302  0.5010  2.4620 -1.3635
 2242SOL     OW 7559   0.986   5.675   3.090 -0.5334 -0.0099 -0.3521
 2242SOL    HW1 7560   1.035   5.593   3.089  1.4679  1.0987  0.4856
 2242SOL    HW2 7561   0.951   5.683   3.001  1.4624 -0.5318 -1.2449
 2243SOL     OW 7562   6.245   1.295   4.643 -0.2551  0.2920 -0.2872
 2243SOL    HW1 7563   6.274   1.272   4.731 -0.9009  1.8945  0.3665
 2243SOL    HW2 7564   6.327   1.303   4.593  0.2677  1.4333  0.6999
 2244SOL     OW 7565   5.875   1.253   1.880 -0.3946 -0.1478  0.2015
 2244SOL    HW1 7566   5.783   1.249   1.904 -0.4939  1.2826  0.1400
 2244SOL    HW2 7567   5.920   1.275   1.962 -0.1546 -0.3695  0.1320
 2245SOL     OW 7568   6.363   6.081   7.820  0.0140  0.1540 -0.1079
 2245SOL    HW1 7569   6.377   5.998   7.774 -0.3140  0.1953 -0.2906
 2245SOL    HW2 7570   6.274   6.074   7.854  0.0973  0.3058  0.1400
 2246SOL     OW 7571   2.561   5.929   7.025  0.0813  0.3446  0.1319
 2246SOL    HW1 7572   2.508   5.876   7.084  1.0955 -0.5058  0.3177
 2246SOL    HW2 7573   2.642   5.880   7.016  0.8063  1.5702 -0.2180
 2247SOL     OW 7574   5.511   0.309   5.276  0.3074 -0.4107 -0.1216
 2247SOL    HW1 7575   5.484   0.331   5.365  0.5024 -1.8783  0.3293
 2247SOL    HW2 7576   5.432   0.271   5.236  0.1498  0.4647 -0.6753
 2248SOL     OW 7577   7.503   4.172   7.507  0.0890 -0.0847  0.3275
 2248SOL    HW1 7578   7.474   4.258   7.537  0.6268 -0.5679  2.3824
 2248SOL    HW2 7579   7.448   4.110   7.555  0.6204 -0.9159 -0.1210
 2249SOL     OW 7580   3.558   7.446   7.357  0.2523  0.1501  0.0734
 2249SOL    HW1 7581   3.650   7.472   7.365  0.3612 -0.4802  1.0550
 2249SOL    HW2 7582   3.527   7.442   7.447 -0.7615  0.4199 -0.2576
 2250SOL     OW 7583   1.245   0.782   3.655 -0.4551 -0.2910  0.1180
 2250SOL    HW1 7584   1.151   0.799   3.661 -0.2068  1.6631 -0.9531
 2250SOL    HW2 7585   1.282   0.826   3.732 -0.2289  0.5924 -0.4889
 2251SOL     OW 7586   5.008   3.733   0.684 -0.2097 -0.0436  0.3704
 2251SOL    HW1 7587   4.932   3.698   0.638 -1.1138  0.9742  1.0298
 2251SOL    HW2 7588   4.992   3.827   0.690  0.9123  0.1395  0.8783
 2252SOL     OW 7589   1.003   3.059   0.814  0.0705  0.1517  0.3914
 2252SOL    HW1 7590   1.065   3.117   0.770  1.6679 -1.2059  0.7479
 2252SOL    HW2 7591   0.971   3.110   0.888 -0.4693  1.4300 -0.6810
 2253SOL     OW 7592   3.027   1.219   4.794 -0.1091  0.0754 -0.1917
 2253SOL    HW1 7593   2.984   1.215   4.708 -1.1736 -1.0894  0.3679
 2253SOL    HW2 7594   2.963   1.261   4.851  0.7746  1.2669 -0.0384
 2254SOL     OW 7595   6.220   0.457   7.656  0.4141  0.0626  0.1042
 2254SOL    HW1 7596   6.316   0.462   7.659  0.4282  0.4780 -0.6635
 2254SOL    HW2 7597   6.191   0.540   7.695  0.3456 -0.2625  0.7690
 2255SOL     OW 7598   6.408   4.583   3.064  0.1661  0.2991 -0.3087
 2255SOL    HW1 7599   6.429   4.503   3.113 -1.9540  0.4031  0.9049
 2255SOL    HW2 7600   6.333   4.620   3.110  0.4481  2.4765 -1.4534
 2256SOL     OW 7601   4.810   1.125   7.066  0.0149  0.3619 -0.1378
 2256SOL    HW1 7602   4.762   1.205   7.088 -2.2737 -0.8844 -0.3312
 2256SOL    HW2 7603   4.783   1.061   7.132  1.6788 -0.3572 -0.0880
 2257SOL     OW 7604   7.036   3.505   2.178  0.1267 -0.2533 -0.1568
 2257SOL    HW1 7605   7.034   3.532   2.269 -0.1591  0.3005 -0.3180
 2257SOL    HW2 7606   7.079   3.420   2.178 -0.1206 -0.3806  0.5226
 2258SOL     OW 7607   2.971   4.102   5.188  0.3824  0.0028  0.5926
 2258SOL    HW1 7608   2.883   4.103   5.150  0.4641  0.8191  0.4097
 2258SOL    HW2 7609   2.958   4.122   5.280  0.6255  4.0361 -0.0690
 2259SOL     OW 7610   4.680   7.534   6.994  0.2860  0.6777  0.1559
 2259SOL    HW1 7611   4.691   7.630   6.995  0.8786  0.6098  0.4026
 2259SOL    HW2 7612   4.627   7.515   7.071 -0.3112  0.8579 -0.2011
 2260SOL     OW 7613   0.884   4.588   2.835 -0.4878 -0.0911 -0.3852
 2260SOL    HW1 7614   0.788   4.589   2.829 -0.4818 -0.7705 -0.6668
 2260SOL    HW2 7615   0.911   4.664   2.784 -0.9055  0.5408  0.3252
 2261SOL     OW 7616   3.215   6.415   6.046 -0.4313 -0.2044  0.3528
 2261SOL    HW1 7617   3.137   6.430   5.992 -0.0304 -2.8363 -1.1387
 2261SOL    HW2 7618   3.183   6.362   6.119 -0.0941 -1.1365 -0.1656
 2262SOL     OW 7619   1.189   7.536   5.106  0.3048 -0.8823  0.2460
 2262SOL    HW1 7620   1.284   7.532   5.118  0.3902 -1.7236 -0.5369
 2262SOL    HW2 7621   1.162   7.444   5.102 -0.3544 -0.6607 -0.8019
 2263SOL     OW 7622   6.450   5.226   0.398 -0.1990  0.1211  0.7327
 2263SOL    HW1 7623   6.503   5.245   0.321 -2.6972  0.0100 -1.1640
 2263SOL    HW2 7624   6.466   5.299   0.458 -0.4673  1.8980 -1.2468
 2264SOL     OW 7625   7.017   0.115   4.810  0.0210  0.5038  0.4707
 2264SOL    HW1 7626   6.993   0.050   4.743 -1.6603 -0.8894  2.2696
 2264SOL    HW2 7627   7.096   0.156   4.777 -0.6133 -0.2518 -2.2498
 2265SOL     OW 7628   0.403   0.415   3.642 -0.1739  0.4341  0.5822
 2265SOL    HW1 7629   0.481   0.435   3.591 -0.0115 -1.3807  0.0623
 2265SOL    HW2 7630   0.432   0.417   3.733 -0.2295  2.6457  0.6145
 2266SOL     OW 7631   6.872   7.728   3.414 -0.1512  0.3634  0.3565
 2266SOL    HW1 7632   6.885   7.747   3.507 -1.2169  2.0530  0.2138
 2266SOL    HW2 7633   6.778   7.713   3.406 -0.0759  0.3229 -0.4525
 2267SOL     OW 7634   3.321   4.485   2.653 -0.0335 -0.3173 -0.3220
 2267SOL    HW1 7635   3.230   4.508   2.672 -0.0380 -0.7218  0.1702
 2267SOL    HW2 7636   3.363   4.481   2.738  0.0814 -1.6212 -0.4184
 2268SOL     OW 7637   6.860   5.990   6.331 -0.0402 -0.2803 -0.2954
 2268SOL    HW1 7638   6.782   5.988   6.387 -0.7935 -1.9483 -1.3366
 2268SOL    HW2 7639   6.918   5.925   6.369 -0.5953 -1.4953 -1.4455
 2269SOL     OW 7640   7.010   2.588   4.968  0.4010  0.1916  0.4957
 2269SOL    HW1 7641   6.917   2.603   4.948  0.1085 -2.4837 -0.4824
 2269SOL    HW2 7642   7.056   2.654   4.916 -0.8722  0.1589 -0.7457
 2270SOL     OW 7643   5.752   5.029   6.848  0.4283  0.0399 -0.1656
 2270SOL    HW1 7644   5.753   4.947   6.896  1.3113  0.3498  0.3538
 2270SOL    HW2 7645   5.690   5.014   6.776 -0.2993 -0.6804  0.6003
 2271SOL     OW 7646   7.260   1.237   2.203  0.3500 -0.4626 -0.4082
 2271SOL    HW1 7647   7.208   1.156   2.208 -0.5968  0.1855  0.8062
 2271SOL    HW2 7648   7.333   1.222   2.262  0.1931 -0.4500 -0.2099
 2272SOL     OW 7649   3.999   4.771   6.744 -0.4923  0.1551  0.1538
 2272SOL    HW1 7650   4.039   4.848   6.783 -0.1052 -0.1937  0.4604
 2272SOL    HW2 7651   4.072   4.714   6.721 -0.7781 -0.2153  0.1355
 2273SOL     OW 7652   0.071   0.896   5.828 -0.3298 -0.6664 -0.1985
 2273SOL    HW1 7653   0.024   0.813   5.836  0.7920 -1.1725  1.7022
 2273SOL    HW2 7654   0.162   0.871   5.814 -0.1983  0.2914 -1.2513
 2274SOL     OW 7655   0.643   4.069   6.859  0.4049 -0.0486 -0.0710
 2274SOL    HW1 7656   0.569   4.116   6.820 -0.9139 -1.3315  0.7773
 2274SOL    HW2 7657   0.639   3.982   6.819  0.9145 -0.3986  0.6354
 2275SOL     OW 7658   3.061   2.359   1.201  0.2235 -0.5456 -0.0341
 2275SOL    HW1 7659   3.104   2.370   1.286 -0.6204 -0.0434  0.3350
 2275SOL    HW2 7660   3.096   2.430   1.147  1.3906 -1.3551 -0.3862
 2276SOL     OW 7661   0.528   1.338   7.225 -0.6187  0.6514 -0.3535
 2276SOL    HW1 7662   0.564   1.410   7.173  1.5958  0.3158  0.6067
 2276SOL    HW2 7663   0.583   1.335   7.304 -1.7445 -0.9952  0.4370
 2277SOL     OW 7664   0.872   5.347   5.485  0.2351  0.4660  0.1459
 2277SOL    HW1 7665   0.859   5.401   5.407 -0.3334  1.0198  0.6145
 2277SOL    HW2 7666   0.965   5.357   5.506  0.1514  1.2183  0.1888
 2278SOL     OW 7667   4.252   1.336   5.776 -0.3130 -0.1982  0.6619
 2278SOL    HW1 7668   4.312   1.384   5.833 -1.9088  0.7112  1.6767
 2278SOL    HW2 7669   4.187   1.299   5.836 -0.7806 -1.1213 -0.3916
 2279SOL     OW 7670   7.096   4.732   0.510 -0.0911  0.3295  0.0630
 2279SOL    HW1 7671   7.190   4.746   0.497 -0.3608  1.0761 -1.2749
 2279SOL    HW2 7672   7.060   4.731   0.421 -1.5946  1.8799  0.6059
 2280SOL     OW 7673   6.975   7.153   5.422  0.1218 -0.3436  0.0769
 2280SOL    HW1 7674   6.985   7.244   5.395  0.6071 -0.3388  0.2638
 2280SOL    HW2 7675   6.893   7.151   5.471 -0.4674 -0.2347 -0.8696
 2281SOL     OW 7676   0.150   7.112   0.380  0.2563 -0.0470  0.4626
 2281SOL    HW1 7677   0.139   7.018   0.395  0.4423 -0.3606 -1.2250
 2281SOL    HW2 7678   0.097   7.131   0.303 -1.6647  1.7236  2.0748
 2282SOL     OW 7679   6.106   0.443   6.268  0.2136  0.3824  0.2757
 2282SOL    HW1 7680   6.106   0.362   6.319  0.0593 -0.3932 -0.9088
 2282SOL    HW2 7681   6.153   0.506   6.323  0.2197 -0.4707  1.2788
 2283SOL     OW 7682   0.612   0.618   1.287 -0.3025  0.1764  0.1262
 2283SOL    HW1 7683   0.677   0.609   1.217 -0.0849 -0.6046  0.4218
 2283SOL    HW2 7684   0.529   0.629   1.241 -0.4386 -2.2153 -0.3139
 2284SOL     OW 7685   3.503   3.913   1.389  0.0449 -0.5201  0.7920
 2284SOL    HW1 7686   3.573   3.952   1.441  0.5076  0.1057 -0.2476
 2284SOL    HW2 7687   3.491   3.974   1.316 -1.4023 -0.7569  0.8008
 2285SOL     OW 7688   4.387   7.368   2.396 -0.6633 -0.0068 -0.7252
 2285SOL    HW1 7689   4.423   7.428   2.331  2.3367 -1.8514 -0.9572
 2285SOL    HW2 7690   4.416   7.403   2.480  0.8836 -0.8640 -0.8486
 2286SOL     OW 7691   0.024   1.612   6.752  0.2863 -0.0702  0.5468
 2286SOL    HW1 7692   0.048   1.702   6.776  0.7303  0.3290 -1.2471
 2286SOL    HW2 7693  -0.016   1.620   6.666  2.6967 -1.8315 -0.8690
 2287SOL     OW 7694   6.899   1.237   5.314  0.0138 -0.4103 -0.0932
 2287SOL    HW1 7695   6.908   1.266   5.223 -1.4650  1.1460  0.2134
 2287SOL    HW2 7696   6.807   1.210   5.321 -0.1626  0.4855  1.2004
 2288SOL     OW 7697   2.394   4.785   1.491  0.2667  0.6525 -0.3520
 2288SOL    HW1 7698   2.486   4.782   1.462  0.6300  1.2030  0.6957
 2288SOL    HW2 7699   2.388   4.717   1.558  0.0758  1.0447  0.0313
 2289SOL     OW 7700   6.415   4.625   5.745  0.1504  0.0520  0.0359
 2289SOL    HW1 7701   6.351   4.583   5.802  0.0762  1.5372  1.1178
 2289SOL    HW2 7702   6.499   4.612   5.789  0.1897  0.6109  0.1310
 2290SOL     OW 7703   1.189   4.092   1.326 -0.0030  0.2993 -0.5792
 2290SOL    HW1 7704   1.241   4.157   1.373  0.9315 -1.7655  1.3797
 2290SOL    HW2 7705   1.205   4.010   1.371  0.5201 -1.8091 -4.1825
 2291SOL     OW 7706   7.857   3.037   4.534 -0.3222 -0.0597 -0.2445
 2291SOL    HW1 7707   7.820   3.125   4.544  0.8996  0.5560 -0.7705
 2291SOL    HW2 7708   7.921   3.030   4.605  1.4407  0.5389 -1.6806
 2292SOL     OW 7709   4.561   2.489   3.321  0.4828 -0.2728  0.0044
 2292SOL    HW1 7710   4.526   2.470   3.234  0.7494  1.6236 -0.5570
 2292SOL    HW2 7711   4.620   2.563   3.307  0.0489  0.4806  1.8813
 2293SOL     OW 7712   7.648   3.079   3.356  0.8700  0.2471 -0.5287
 2293SOL    HW1 7713   7.633   3.048   3.267 -0.3092 -0.0013 -0.2656
 2293SOL    HW2 7714   7.702   3.010   3.396 -1.6859 -1.5595  0.0376
 2294SOL     OW 7715   2.354   1.440   6.907 -0.2242 -0.3374  0.2154
 2294SOL    HW1 7716   2.391   1.523   6.878  0.1010  0.0126  1.5981
 2294SOL    HW2 7717   2.429   1.392   6.944 -0.3289 -1.4131 -0.8817
 2295SOL     OW 7718   2.060   7.215   4.971  0.4219  0.4800 -0.0788
 2295SOL    HW1 7719   1.993   7.194   4.905 -0.5649  1.5313  0.5415
 2295SOL    HW2 7720   2.024   7.182   5.053  1.3018 -0.1604  0.0553
 2296SOL     OW 7721   4.043   0.313   2.893 -0.5398  0.2844 -0.7503
 2296SOL    HW1 7722   4.098   0.370   2.839 -1.0732 -0.0985 -1.7389
 2296SOL    HW2 7723   4.084   0.313   2.979  1.2593 -0.3238 -1.5580
 2297SOL     OW 7724   6.007   6.932   7.769 -0.3179  0.0865 -0.3582
 2297SOL    HW1 7725   5.990   6.878   7.846  0.9239  1.3803  0.8802
 2297SOL    HW2 7726   5.940   7.001   7.773  0.4788  0.8387  0.2557
 2298SOL     OW 7727   6.310   5.487   6.562  0.0318 -0.1239  0.1226
 2298SOL    HW1 7728   6.248   5.532   6.505  3.2091  2.2682 -1.7754
 2298SOL    HW2 7729   6.257   5.423   6.609 -3.5297  0.6026 -2.4740
 2299SOL     OW 7730   1.971   7.700   2.403 -0.5085  0.0822 -0.3857
 2299SOL    HW1 7731   1.941   7.713   2.493 -1.7352  2.5742 -1.0360
 2299SOL    HW2 7732   1.900   7.736   2.350 -0.2123 -2.1220 -2.4182
 2300SOL     OW 7733   3.552   0.631   6.563  0.2890 -0.4980  0.1554
 2300SOL    HW1 7734   3.518   0.583   6.487 -0.6843  0.2506  0.1078
 2300SOL    HW2 7735   3.524   0.721   6.549 -1.1956 -0.5987  2.1173
 2301SOL     OW 7736   0.810   3.285   0.117 -0.0069 -0.4875 -0.4877
 2301SOL    HW1 7737   0.741   3.351   0.123  0.0158 -0.2267 -2.4481
 2301SOL    HW2 7738   0.803   3.251   0.028  1.2275 -1.7655 -0.1278
 2302SOL     OW 7739   6.881   5.168   0.587  0.0098  0.0254  0.2306
 2302SOL    HW1 7740   6.860   5.242   0.645 -1.3626 -0.7022  0.6951
 2302SOL    HW2 7741   6.877   5.206   0.499  2.2030  1.1610  0.5568
 2303SOL     OW 7742   1.602   4.052   5.895  0.5066  0.5861 -0.2048
 2303SOL    HW1 7743   1.583   4.144   5.915  1.3470  0.5268  0.9557
 2303SOL    HW2 7744   1.575   4.005   5.974  1.3947  0.0063 -0.2360
 2304SOL     OW 7745   3.853   1.226   4.184 -0.1742 -0.0397 -0.0514
 2304SOL    HW1 7746   3.804   1.270   4.115 -1.0476  2.4196  1.9965
 2304SOL    HW2 7747   3.785   1.189   4.242  0.5359 -2.7954 -0.8424
 2305SOL     OW 7748   4.988   0.236   1.608 -0.1491 -0.3102 -0.1473
 2305SOL    HW1 7749   4.989   0.145   1.578 -3.5240 -0.6604  0.4284
 2305SOL    HW2 7750   4.978   0.229   1.703  0.6532  0.7076  0.0287
 2306SOL     OW 7751   7.515   7.108   2.448 -0.0441  0.1090 -0.1501
 2306SOL    HW1 7752   7.527   7.203   2.451  0.9545  0.0894 -2.0361
 2306SOL    HW2 7753   7.447   7.094   2.382  0.5418 -0.5286 -0.6297
 2307SOL     OW 7754   4.041   5.863   2.490  0.1067 -0.1180 -0.2597
 2307SOL    HW1 7755   4.107   5.931   2.493  1.0091 -1.0003  2.7222
 2307SOL    HW2 7756   4.088   5.785   2.459 -0.0743 -0.2330 -0.2469
 2308SOL     OW 7757   4.935   1.617   2.096  0.0588 -0.6002 -0.1386
 2308SOL    HW1 7758   4.996   1.632   2.168 -0.6637 -0.5427  0.4754
 2308SOL    HW2 7759   4.853   1.592   2.139 -0.0736 -1.6919 -0.9755
 2309SOL     OW 7760   6.115   2.824   1.929 -0.3420 -0.0506 -0.1180
 2309SOL    HW1 7761   6.072   2.905   1.958 -0.0898 -0.6041  1.9925
 2309SOL    HW2 7762   6.121   2.771   2.009 -1.6915 -2.7211 -1.6445
 2310SOL     OW 7763   0.758   7.561   0.793  0.4095  0.0112  0.1252
 2310SOL    HW1 7764   0.721   7.613   0.864  1.5918  1.1988 -0.0764
 2310SOL    HW2 7765   0.830   7.513   0.834  0.1209 -0.4786  0.0507
 2311SOL     OW 7766   6.527   4.685   5.371 -0.2198  0.1042 -0.0129
 2311SOL    HW1 7767   6.608   4.672   5.420  0.0008 -0.9393 -0.6401
 2311SOL    HW2 7768   6.542   4.643   5.287 -1.2364  0.3378 -0.3292
 2312SOL     OW 7769   2.744   6.207   6.691 -0.0470  0.1493  0.1436
 2312SOL    HW1 7770   2.679   6.152   6.648  0.6863 -0.4871 -0.1768
 2312SOL    HW2 7771   2.773   6.267   6.622  1.2395 -0.9702 -0.3215
 2313SOL     OW 7772   4.740   5.825   3.584 -0.4014  0.3108 -0.5178
 2313SOL    HW1 7773   4.821   5.875   3.579 -0.2742  0.3272  1.0910
 2313SOL    HW2 7774   4.767   5.739   3.616 -1.0772  0.5763  0.8577
 2314SOL     OW 7775   5.267   3.800   5.391  0.6262 -0.8072  0.1986
 2314SOL    HW1 7776   5.174   3.810   5.370  0.5066 -2.0796  0.0444
 2314SOL    HW2 7777   5.310   3.875   5.349  0.2927 -2.6533 -3.8309
 2315SOL     OW 7778   2.321   4.213   1.340  0.2029 -1.0297  0.2988
 2315SOL    HW1 7779   2.353   4.268   1.412  0.9756 -0.6807 -0.2994
 2315SOL    HW2 7780   2.256   4.155   1.381 -0.2705 -0.0073  1.0356
 2316SOL     OW 7781   6.401   1.037   6.316  0.3584  0.0971 -0.0342
 2316SOL    HW1 7782   6.367   1.095   6.248 -1.0641 -0.0291  0.5189
 2316SOL    HW2 7783   6.359   0.953   6.299  0.2967 -0.0418  0.7441
 2317SOL     OW 7784   4.203   3.234   1.458 -0.1869  0.2609  0.4984
 2317SOL    HW1 7785   4.227   3.166   1.395 -0.3191 -0.1740  0.9111
 2317SOL    HW2 7786   4.153   3.188   1.526 -2.1673  1.1019 -0.2866
 2318SOL     OW 7787   3.268   6.273   2.364 -0.3002 -0.1075 -0.0755
 2318SOL    HW1 7788   3.232   6.361   2.376 -0.7537 -0.1692 -0.8965
 2318SOL    HW2 7789   3.349   6.287   2.316 -0.9877 -0.2073 -1.3089
 2319SOL     OW 7790   2.428   0.266   6.142  0.2833 -1.1558  0.0219
 2319SOL    HW1 7791   2.490   0.235   6.207 -0.5125 -1.5857  0.5936
 2319SOL    HW2 7792   2.392   0.347   6.180  2.0098  0.2874 -1.2511
 2320SOL     OW 7793   5.247   0.017   6.300 -0.0292 -0.0326  0.1746
 2320SOL    HW1 7794   5.158   0.014   6.265 -0.2835  1.5000  0.5985
 2320SOL    HW2 7795   5.302  -0.012   6.227 -0.7409  0.8225 -0.7324
 2321SOL     OW 7796   1.489   7.323   7.676  0.1128 -0.1990  0.0133
 2321SOL    HW1 7797   1.497   7.403   7.624  2.1141  1.5483  2.7202
 2321SOL    HW2 7798   1.432   7.347   7.748  1.7452 -0.7296  1.5604
 2322SOL     OW 7799   6.120   0.197   7.065  0.1791 -0.0178  0.6075
 2322SOL    HW1 7800   6.136   0.238   7.150 -3.5356  0.3791  1.2910
 2322SOL    HW2 7801   6.032   0.158   7.074  1.8667 -4.9913 -1.1887
 2323SOL     OW 7802   3.877   1.744   2.918  0.4574  0.5952 -0.2475
 2323SOL    HW1 7803   3.959   1.694   2.914 -1.0044 -2.3818  2.3079
 2323SOL    HW2 7804   3.818   1.700   2.857 -0.0869  0.7936  0.1215
 2324SOL     OW 7805   0.115   4.364   0.194  0.3115 -0.1828 -0.1244
 2324SOL    HW1 7806   0.199   4.397   0.225  0.7206  0.0679 -1.4036
 2324SOL    HW2 7807   0.077   4.439   0.147 -1.2589  0.1356  1.5864
 2325SOL     OW 7808   2.682   2.945   4.657 -0.0040 -0.7113 -0.0430
 2325SOL    HW1 7809   2.732   2.890   4.597  0.4509 -1.0530  0.6348
 2325SOL    HW2 7810   2.719   2.926   4.743 -0.9650 -0.5923  0.4110
 2326SOL     OW 7811   1.238   3.820   7.227 -0.2482 -0.2674  0.0372
 2326SOL    HW1 7812   1.188   3.821   7.146 -0.0485 -0.9151 -0.1056
 2326SOL    HW2 7813   1.322   3.860   7.204 -0.5661  0.4848  0.1846
 2327SOL     OW 7814   3.907   5.044   0.426 -0.3479 -0.9526  0.3506
 2327SOL    HW1 7815   3.861   5.117   0.385 -0.4258 -0.8132  0.6789
 2327SOL    HW2 7816   3.841   5.000   0.480 -0.1100 -0.7633  0.8082
 2328SOL     OW 7817   3.334   6.207   5.701 -0.0005  0.1303 -0.2147
 2328SOL    HW1 7818   3.363   6.135   5.757 -0.7693 -0.9945 -1.2203
 2328SOL    HW2 7819   3.409   6.225   5.645  0.0064 -0.2736 -0.3411
 2329SOL     OW 7820   5.456   3.065   2.405 -0.4752  0.4658 -0.1688
 2329SOL    HW1 7821   5.484   3.026   2.488 -1.7489 -1.6830 -0.6613
 2329SOL    HW2 7822   5.419   3.149   2.428 -1.0614 -0.2192  1.5098
 2330SOL     OW 7823   2.272   0.861   5.115 -0.2086  0.5058 -0.6879
 2330SOL    HW1 7824   2.251   0.785   5.060  0.9146  0.9933 -1.8340
 2330SOL    HW2 7825   2.188   0.906   5.127 -0.7307 -0.4258 -0.7305
 2331SOL     OW 7826   1.902   7.031   6.946  0.0637  0.0000 -0.0929
 2331SOL    HW1 7827   1.902   6.992   6.858  0.0241  0.5479 -0.3372
 2331SOL    HW2 7828   1.812   7.061   6.959  0.6859  2.5655 -1.0693
 2332SOL     OW 7829   2.538   0.546   3.511 -0.4594  0.9433  0.4011
 2332SOL    HW1 7830   2.462   0.528   3.566 -0.2620  0.6880  0.5947
 2332SOL    HW2 7831   2.604   0.483   3.540  0.2095  1.8681  1.0002
 2333SOL     OW 7832   0.454   2.934   5.052  0.1149  0.8328 -0.1311
 2333SOL    HW1 7833   0.391   2.862   5.046  0.2885  0.5058  1.5408
 2333SOL    HW2 7834   0.406   3.006   5.093  0.9721  0.3045  1.9546
 2334SOL     OW 7835   5.024   5.576   1.393 -0.1615  0.1267  0.5253
 2334SOL    HW1 7836   5.079   5.604   1.319 -1.8680  2.0114 -0.1012
 2334SOL    HW2 7837   5.075   5.599   1.470  1.8022 -2.1665  0.0502
 2335SOL     OW 7838   3.552   5.099   5.437  0.2372 -0.3294  0.3030
 2335SOL    HW1 7839   3.539   5.005   5.450  0.4845 -0.3434  0.4565
 2335SOL    HW2 7840   3.641   5.107   5.404 -0.0088 -0.1987 -0.3341
 2336SOL     OW 7841   5.580   5.415   1.655  0.4499  0.5568  0.2354
 2336SOL    HW1 7842   5.492   5.453   1.656  0.5684  0.8372  0.0893
 2336SOL    HW2 7843   5.624   5.459   1.582  1.4131  2.0207  1.6298
 2337SOL     OW 7844   6.806   6.476   5.179  0.0382  0.2782  0.4750
 2337SOL    HW1 7845   6.742   6.407   5.165  1.6063 -0.6619 -3.1103
 2337SOL    HW2 7846   6.796   6.535   5.104  2.4278  0.8268  0.4889
 2338SOL     OW 7847   7.123   2.369   7.063  0.0688 -0.2352 -0.4572
 2338SOL    HW1 7848   7.119   2.412   6.977  1.1826  1.0121  0.0748
 2338SOL    HW2 7849   7.045   2.399   7.109 -0.6790 -1.1317 -1.1158
 2339SOL     OW 7850   0.341   6.738   3.561  0.1982 -0.0591 -0.4335
 2339SOL    HW1 7851   0.421   6.761   3.514  0.3035 -0.1594 -0.3060
 2339SOL    HW2 7852   0.328   6.645   3.543  0.6849 -0.2966  0.3781
 2340SOL     OW 7853   4.135   6.595   1.602  0.6200 -0.3244  0.0940
 2340SOL    HW1 7854   4.121   6.508   1.640  0.2721  0.5514  2.0613
 2340SOL    HW2 7855   4.056   6.644   1.622  1.4255  0.9146  0.3779
 2341SOL     OW 7856   2.148   3.672   5.045 -0.1313  0.4334 -0.4393
 2341SOL    HW1 7857   2.152   3.747   5.104  1.0096  0.4355 -0.4906
 2341SOL    HW2 7858   2.124   3.709   4.960 -0.1519  0.6604 -0.3334
 2342SOL     OW 7859   3.751   0.456   3.982 -0.8208 -0.2127 -0.2458
 2342SOL    HW1 7860   3.714   0.370   3.999 -3.7121  1.1811  1.3574
 2342SOL    HW2 7861   3.830   0.460   4.036 -2.1465 -0.9772  1.9048
 2343SOL     OW 7862   2.517   4.171   2.394 -0.4985  0.1694 -0.1515
 2343SOL    HW1 7863   2.524   4.266   2.382  1.6764  0.1720  0.6531
 2343SOL    HW2 7864   2.428   4.157   2.425 -1.5808  1.6746 -2.2786
 2344SOL     OW 7865   3.244   1.943   5.035 -0.0916 -0.2039  0.1995
 2344SOL    HW1 7866   3.255   2.026   4.988  1.4630 -0.6896 -0.3674
 2344SOL    HW2 7867   3.162   1.953   5.083 -0.6786  1.1033 -1.0043
 2345SOL     OW 7868   3.006   3.206   2.015  0.2561  0.1596 -0.2403
 2345SOL    HW1 7869   3.082   3.261   2.033 -0.1768  1.0559 -1.0508
 2345SOL    HW2 7870   2.974   3.238   1.931 -2.8894  2.0010  1.4659
 2346SOL     OW 7871   2.894   1.184   7.637 -0.0295  0.1244 -0.2175
 2346SOL    HW1 7872   2.846   1.101   7.628 -1.4862  0.9939 -0.7452
 2346SOL    HW2 7873   2.844   1.234   7.701  2.6287 -0.5904  2.6956
 2347SOL     OW 7874   0.724   5.618   6.868  0.3661 -0.7929 -0.0399
 2347SOL    HW1 7875   0.634   5.647   6.884 -0.0062 -1.5886 -0.6381
 2347SOL    HW2 7876   0.735   5.542   6.926  1.0055 -0.0822  0.7957
 2348SOL     OW 7877   5.336   1.960   6.383 -0.2871 -0.2050 -0.2477
 2348SOL    HW1 7878   5.316   1.944   6.290 -0.1609 -2.0328 -0.0029
 2348SOL    HW2 7879   5.424   1.998   6.382  0.1149 -1.0996 -0.8641
 2349SOL     OW 7880   5.862   5.913   2.549 -0.2285  0.1862 -0.1860
 2349SOL    HW1 7881   5.814   5.940   2.627 -0.9573  0.9539 -0.8847
 2349SOL    HW2 7882   5.931   5.855   2.583 -0.2897  0.7984  1.0684
 2350SOL     OW 7883   1.796   3.095   7.168  0.1993  0.4477  0.0563
 2350SOL    HW1 7884   1.856   3.147   7.221  1.2682 -0.0783 -0.6086
 2350SOL    HW2 7885   1.851   3.029   7.126 -0.7581  0.2900 -1.0059
 2351SOL     OW 7886   2.591   2.427   4.736  0.6097  0.2680 -0.1335
 2351SOL    HW1 7887   2.644   2.418   4.656  1.2031 -0.3308  0.3164
 2351SOL    HW2 7888   2.523   2.490   4.712  0.1689 -0.6446 -1.4410
 2352SOL     OW 7889   5.564   0.005   6.357 -0.0427 -0.0649  0.2043
 2352SOL    HW1 7890   5.561  -0.038   6.271  0.4670  1.5242 -0.6582
 2352SOL    HW2 7891   5.553  -0.066   6.420 -1.0988 -1.1999 -1.1839
 2353SOL     OW 7892   1.183   6.857   4.517 -0.2635  0.2008 -0.3506
 2353SOL    HW1 7893   1.095   6.891   4.499 -0.4253 -0.5335 -1.0119
 2353SOL    HW2 7894   1.202   6.884   4.607 -2.1902 -1.7384  0.7251
 2354SOL     OW 7895   1.542   7.080   7.292  0.2212  0.0619  0.3283
 2354SOL    HW1 7896   1.542   7.020   7.366  3.0865  2.0686  2.1141
 2354SOL    HW2 7897   1.480   7.149   7.316 -0.2101 -0.2070  0.0044
 2355SOL     OW 7898   1.744   5.650   5.387 -0.7484  0.0739  0.7840
 2355SOL    HW1 7899   1.740   5.719   5.321  0.3968  1.3220  1.9261
 2355SOL    HW2 7900   1.838   5.637   5.402 -0.9666 -1.1758  1.1575
 2356SOL     OW 7901   1.100   3.478   6.655  0.5001  0.2280  0.4175
 2356SOL    HW1 7902   1.072   3.512   6.571 -1.5344 -0.5778  0.7185
 2356SOL    HW2 7903   1.135   3.391   6.635  1.1438  0.5041  0.2880
 2357SOL     OW 7904   2.407   0.013   2.475 -0.2369  0.4715  0.1569
 2357SOL    HW1 7905   2.465  -0.062   2.463  0.8524  1.2326  0.4452
 2357SOL    HW2 7906   2.341  -0.017   2.537  0.5382 -0.0832  0.7419
 2358SOL     OW 7907   2.865   5.359   2.539 -0.4116 -0.4325  0.4247
 2358SOL    HW1 7908   2.863   5.373   2.444  1.8690 -0.8891  0.2444
 2358SOL    HW2 7909   2.812   5.430   2.575 -2.7708 -1.2184 -1.2133
 2359SOL     OW 7910   3.221   3.042   3.336  0.0247 -0.0353  0.2097
 2359SOL    HW1 7911   3.268   2.963   3.364 -0.5374 -1.0787 -1.6339
 2359SOL    HW2 7912   3.132   3.030   3.368 -0.1798 -0.3835 -0.4847
 2360SOL     OW 7913   4.079   2.745   7.774 -0.2704 -0.4593  0.2722
 2360SOL    HW1 7914   4.003   2.736   7.832  0.4135  1.6249  1.6068
 2360SOL    HW2 7915   4.143   2.682   7.808 -0.2632  0.0037  1.1328
 2361SOL     OW 7916   4.137   4.778   5.341 -0.1596 -0.4578  0.0663
 2361SOL    HW1 7917   4.136   4.683   5.330 -1.1848 -0.5762  1.0200
 2361SOL    HW2 7918   4.229   4.803   5.329  0.1405 -1.5769 -0.0657
 2362SOL     OW 7919   3.314   0.689   6.774  0.3456 -0.4253 -0.0621
 2362SOL    HW1 7920   3.242   0.628   6.758 -0.9050  0.9047  0.3030
 2362SOL    HW2 7921   3.324   0.688   6.869  0.5016 -0.2610 -0.0775
 2363SOL     OW 7922   6.952   5.893   2.030  0.0232 -0.0082 -0.0389
 2363SOL    HW1 7923   7.018   5.959   2.008  1.6194 -1.9014 -1.2436
 2363SOL    HW2 7924   6.966   5.876   2.123 -0.1483  1.0295  0.1931
 2364SOL     OW 7925   6.686   4.020   4.290  0.0227 -0.4126 -0.3663
 2364SOL    HW1 7926   6.648   3.992   4.373 -0.4702  1.9136  0.2892
 2364SOL    HW2 7927   6.768   4.064   4.314  0.3997 -0.6228 -1.2159
 2365SOL     OW 7928   4.723   0.257   6.787 -0.6205  0.2449 -0.4025
 2365SOL    HW1 7929   4.668   0.264   6.709 -1.0134  1.8331 -0.0382
 2365SOL    HW2 7930   4.774   0.339   6.787  2.4804 -1.5281 -1.2107
 2366SOL     OW 7931   1.186   0.875   4.336  0.1663 -0.5728  0.1443
 2366SOL    HW1 7932   1.141   0.826   4.267  2.4110 -0.5718 -1.4413
 2366SOL    HW2 7933   1.275   0.839   4.337  0.5628  0.3155  2.1910
 2367SOL     OW 7934   3.037   0.014   3.902  0.2735  0.3325  0.6712
 2367SOL    HW1 7935   2.973   0.019   3.972 -0.5978 -0.1662 -0.0714
 2367SOL    HW2 7936   3.032   0.099   3.858 -0.0381  0.2128  0.4759
 2368SOL     OW 7937   0.421   5.045   1.220 -0.9761 -0.3569 -0.0952
 2368SOL    HW1 7938   0.332   5.068   1.194 -0.8157  0.2655 -0.1127
 2368SOL    HW2 7939   0.447   5.114   1.280 -0.4034 -0.3897 -0.3003
 2369SOL     OW 7940   2.101   6.255   5.550 -0.1696  0.2482 -0.1929
 2369SOL    HW1 7941   2.181   6.213   5.519 -1.4115 -2.7902  0.4270
 2369SOL    HW2 7942   2.057   6.284   5.470  0.6157  0.1641 -0.6684
 2370SOL     OW 7943   3.838   0.409   3.602  0.6964 -0.3144 -0.4612
 2370SOL    HW1 7944   3.911   0.346   3.599  1.4004  0.5034 -1.4703
 2370SOL    HW2 7945   3.811   0.418   3.510  2.1726  2.5580 -0.7268
 2371SOL     OW 7946   2.802   0.579   4.111  0.8016 -0.1867  0.5241
 2371SOL    HW1 7947   2.803   0.664   4.066  1.6024 -0.7747 -0.6245
 2371SOL    HW2 7948   2.758   0.520   4.050  0.7968 -0.7387  1.0511
 2372SOL     OW 7949   4.256   0.706   5.732  0.7572  0.4076 -0.2554
 2372SOL    HW1 7950   4.164   0.689   5.714  0.6340  1.1855 -0.3963
 2372SOL    HW2 7951   4.271   0.795   5.698  1.9618 -0.3108 -1.7205
 2373SOL     OW 7952   0.411   3.204   2.160 -0.0063 -0.0996 -0.0496
 2373SOL    HW1 7953   0.356   3.270   2.202 -0.4823 -0.7109  0.3032
 2373SOL    HW2 7954   0.500   3.223   2.191  0.1306  1.3380 -1.1788
 2374SOL     OW 7955   7.736   3.291   5.746  0.0455 -0.3466 -0.1742
 2374SOL    HW1 7956   7.666   3.316   5.685 -1.0657  0.7306  1.4750
 2374SOL    HW2 7957   7.734   3.195   5.744  0.0858 -0.3521 -1.8461
 2375SOL     OW 7958   3.443   6.575   2.289 -0.5955 -0.2773  0.3234
 2375SOL    HW1 7959   3.369   6.595   2.232 -0.1066 -0.0319 -0.2405
 2375SOL    HW2 7960   3.472   6.488   2.261 -0.5269 -0.2721  0.3793
 2376SOL     OW 7961   0.911   7.542   7.798 -0.2800  0.4151  0.2738
 2376SOL    HW1 7962   0.914   7.628   7.756  0.1973  0.8889  1.2561
 2376SOL    HW2 7963   0.995   7.502   7.779 -0.0936  0.5986  0.6970
 2377SOL     OW 7964   7.413   3.623   6.045  0.1673 -0.2553  0.4452
 2377SOL    HW1 7965   7.500   3.602   6.011  0.2127 -2.4533  1.6853
 2377SOL    HW2 7966   7.366   3.539   6.043 -1.4905  0.6110  1.0080
 2378SOL     OW 7967   5.538   0.609   2.680  1.0231  0.1741  0.0273
 2378SOL    HW1 7968   5.617   0.623   2.628  0.9519  0.7018  0.0571
 2378SOL    HW2 7969   5.542   0.674   2.750  0.3041  0.5522 -0.2702
 2379SOL     OW 7970   5.338   1.939   1.133 -0.2430 -0.4466  0.3817
 2379SOL    HW1 7971   5.245   1.943   1.156 -0.1917  1.2361  0.4344
 2379SOL    HW2 7972   5.383   1.947   1.217 -0.0612 -0.1995  0.2620
 2380SOL     OW 7973   2.871   6.344   7.393 -0.4474  0.1115 -0.1977
 2380SOL    HW1 7974   2.837   6.266   7.348  2.4320 -1.6951  0.5210
 2380SOL    HW2 7975   2.954   6.363   7.349 -0.3266  1.8244  0.6934
 2381SOL     OW 7976   6.599   0.531   3.097  0.0800  0.0132 -0.0093
 2381SOL    HW1 7977   6.604   0.442   3.133 -3.0408  0.1168  0.9723
 2381SOL    HW2 7978   6.616   0.520   3.003  2.1520 -1.1941  0.4341
 2382SOL     OW 7979   5.268   5.820   0.833 -0.3665  0.4313  0.1028
 2382SOL    HW1 7980   5.361   5.811   0.852 -0.5239  0.3901  0.9058
 2382SOL    HW2 7981   5.241   5.734   0.801 -0.1519  0.4118 -0.0244
 2383SOL     OW 7982   1.733   7.935   4.169 -0.2069  0.1127  0.9941
 2383SOL    HW1 7983   1.674   7.876   4.121  1.2286 -1.3495  0.9250
 2383SOL    HW2 7984   1.798   7.876   4.208  1.0851  1.6482  1.2390
 2384SOL     OW 7985   4.076   6.245   4.612  0.0394 -0.6563 -0.1052
 2384SOL    HW1 7986   4.077   6.166   4.667 -0.2068  0.0368  0.9258
 2384SOL    HW2 7987   4.013   6.224   4.542  0.3658 -1.5586 -0.1475
 2385SOL     OW 7988   6.091   5.810   2.227  0.1282  0.6023  0.4615
 2385SOL    HW1 7989   6.144   5.783   2.151 -0.0652  0.0298  0.5220
 2385SOL    HW2 7990   6.031   5.736   2.241 -0.4219  1.0784  0.6345
 2386SOL     OW 7991   2.400   7.752   6.794 -0.4089 -0.3057 -0.7886
 2386SOL    HW1 7992   2.379   7.838   6.831  0.8358 -1.3106  2.6624
 2386SOL    HW2 7993   2.340   7.692   6.839 -2.6142 -1.2358 -4.4978
 2387SOL     OW 7994   2.801   2.903   0.530  0.0712  0.3346  0.6750
 2387SOL    HW1 7995   2.706   2.912   0.533  0.0583 -0.0728  2.0470
 2387SOL    HW2 7996   2.833   2.993   0.536 -0.2220  0.3554  2.5673
 2388SOL     OW 7997   1.485   1.712   1.151 -0.0075  0.2365 -0.3086
 2388SOL    HW1 7998   1.437   1.673   1.077 -0.7996  0.7754 -0.0929
 2388SOL    HW2 7999   1.482   1.644   1.219 -1.0092  0.4927 -0.0838
 2389SOL     OW 8000   6.691   1.414   1.066 -0.0163  0.0939  0.0081
 2389SOL    HW1 8001   6.631   1.357   1.018 -1.2597  1.8549 -0.6265
 2389SOL    HW2 8002   6.670   1.398   1.158 -1.3048  0.5118 -0.2015
 2390SOL     OW 8003   5.504   1.687   5.270 -0.1750 -0.2666 -0.0559
 2390SOL    HW1 8004   5.549   1.771   5.257  0.3615 -0.4336  0.6718
 2390SOL    HW2 8005   5.573   1.622   5.258  0.4834 -0.4672  3.6138
 2391SOL     OW 8006   2.978   1.237   6.886  0.7774  0.1051  0.0985
 2391SOL    HW1 8007   2.926   1.224   6.807  0.7581 -1.9259  0.3872
 2391SOL    HW2 8008   2.969   1.330   6.906 -1.2041  0.1787 -0.9165
 2392SOL     OW 8009   2.949   6.948   7.890  0.4636  0.3241  0.0656
 2392SOL    HW1 8010   2.953   7.042   7.906 -0.0494  0.3667 -0.0448
 2392SOL    HW2 8011   2.937   6.940   7.795 -2.6502  0.2583  0.3498
 2393SOL     OW 8012   5.085   3.483   3.726 -0.0163  0.2566 -0.0696
 2393SOL    HW1 8013   5.136   3.526   3.657 -1.1153  0.8351 -0.5578
 2393SOL    HW2 8014   4.999   3.524   3.720 -0.5877 -0.8164  0.6196
 2394SOL     OW 8015   7.391   3.898   1.089  0.3668 -0.2781 -0.1917
 2394SOL    HW1 8016   7.374   3.905   1.183  0.3890  1.1459 -0.2753
 2394SOL    HW2 8017   7.447   3.820   1.081  1.1335  0.1124  1.0777
 2395SOL     OW 8018   1.684   7.625   7.828  0.2963 -0.0026 -0.4770
 2395SOL    HW1 8019   1.757   7.675   7.866 -0.3691  0.2149  0.5571
 2395SOL    HW2 8020   1.609   7.646   7.884 -0.2950 -1.1324 -0.8249
 2396SOL     OW 8021   1.033   3.663   1.888 -0.3176  0.2920 -0.0956
 2396SOL    HW1 8022   1.099   3.602   1.921 -1.4361  0.2704  2.3024
 2396SOL    HW2 8023   1.012   3.719   1.963 -1.7478  1.4414 -1.2872
 2397SOL     OW 8024   0.263   1.900   5.058 -0.1410 -0.2664  0.3484
 2397SOL    HW1 8025   0.183   1.908   5.006  0.4034  0.2792 -0.4207
 2397SOL    HW2 8026   0.334   1.919   4.997  0.6021 -0.9617  0.9682
 2398SOL     OW 8027   2.090   7.762   4.369 -0.6063  0.3034 -0.0060
 2398SOL    HW1 8028   2.106   7.752   4.463  1.1551 -1.3140 -0.4031
 2398SOL    HW2 8029   2.027   7.693   4.348 -1.1159  0.7620  0.0096
 2399SOL     OW 8030   5.325   6.033   5.928  0.3402  0.0813 -0.0118
 2399SOL    HW1 8031   5.293   6.032   6.018  0.0309  1.2306 -0.0951
 2399SOL    HW2 8032   5.418   6.011   5.935 -0.1550 -2.2377  0.3348
 2400SOL     OW 8033   4.064   1.483   0.533 -0.1448 -0.0736  0.0628
 2400SOL    HW1 8034   4.149   1.440   0.516 -0.5724 -0.5867 -0.8998
 2400SOL    HW2 8035   4.003   1.436   0.476 -0.8024  1.2645 -0.3611
 2401SOL     OW 8036   0.428   5.449   6.118 -0.0865 -0.4239 -0.3481
 2401SOL    HW1 8037   0.470   5.395   6.052 -0.0059  3.5127 -3.9591
 2401SOL    HW2 8038   0.500   5.490   6.166 -0.0076 -0.0469 -0.7832
 2402SOL     OW 8039   4.254   0.625   3.271  0.1578 -0.5369  0.5331
 2402SOL    HW1 8040   4.187   0.665   3.216  0.7898  0.6138  0.5696
 2402SOL    HW2 8041   4.208   0.556   3.319 -0.6734 -0.7216 -0.4962
 2403SOL     OW 8042   7.339   6.376   2.187  0.2575 -0.1027 -0.5991
 2403SOL    HW1 8043   7.262   6.332   2.220  1.0810 -0.5411  0.8180
 2403SOL    HW2 8044   7.318   6.469   2.191  0.7443 -0.0220  2.4815
 2404SOL     OW 8045   3.274   3.751   4.355  0.3928  0.0268 -0.1502
 2404SOL    HW1 8046   3.266   3.662   4.389  0.5662 -1.0371 -2.6188
 2404SOL    HW2 8047   3.329   3.741   4.277 -1.5029  1.8766 -1.8498
 2405SOL     OW 8048   1.409   1.038   5.987 -0.5307 -0.8637 -0.2754
 2405SOL    HW1 8049   1.364   1.052   5.904 -0.9395  1.1503  0.2412
 2405SOL    HW2 8050   1.342   1.051   6.054  0.4194  0.5338  0.4550
 2406SOL     OW 8051   4.898   4.257   0.023 -0.0095  0.4499 -0.2081
 2406SOL    HW1 8052   4.940   4.258  -0.063  0.4940  0.0591  0.0270
 2406SOL    HW2 8053   4.925   4.174   0.062  1.2576  1.4167  1.0501
 2407SOL     OW 8054   1.513   6.211   4.114 -0.3288 -0.2725  0.0822
 2407SOL    HW1 8055   1.600   6.252   4.115 -0.3233 -0.2464 -0.9100
 2407SOL    HW2 8056   1.456   6.278   4.076 -0.1515 -1.4700 -2.4426
 2408SOL     OW 8057   2.623   3.564   5.727 -0.2645 -0.4319 -0.1060
 2408SOL    HW1 8058   2.685   3.501   5.762 -2.3474 -1.4961  1.9754
 2408SOL    HW2 8059   2.651   3.649   5.762  0.6552 -0.6875 -0.1994
 2409SOL     OW 8060   0.045   0.501   6.920 -0.3701  0.0422 -0.0659
 2409SOL    HW1 8061  -0.042   0.542   6.917 -0.2296  0.3523  0.1360
 2409SOL    HW2 8062   0.096   0.546   6.854 -0.7842 -1.1261 -1.2331
 2410SOL     OW 8063   7.309   3.146   0.088  0.1441  0.3973 -0.1325
 2410SOL    HW1 8064   7.248   3.073   0.084  0.8901 -0.2152 -0.5173
 2410SOL    HW2 8065   7.386   3.111   0.132  0.1933  1.1909  0.4511
 2411SOL     OW 8066   3.227   5.304   1.994  0.1886  0.4529  0.2892
 2411SOL    HW1 8067   3.176   5.319   1.914  0.1173 -0.6376  0.1098
 2411SOL    HW2 8068   3.161   5.290   2.062  0.2529  0.7423  0.4137
 2412SOL     OW 8069   1.643   4.432   1.706 -0.1783  0.2961  0.0328
 2412SOL    HW1 8070   1.622   4.471   1.790  0.0877  0.3097  0.0943
 2412SOL    HW2 8071   1.655   4.339   1.724 -1.8095 -0.0054 -0.2858
 2413SOL     OW 8072   4.260   3.931   1.929  0.3173 -0.4269 -0.1589
 2413SOL    HW1 8073   4.353   3.950   1.924  0.4276 -0.5433  1.1967
 2413SOL    HW2 8074   4.217   4.013   1.903  0.7960 -0.0078  0.3478
 2414SOL     OW 8075   1.560   3.942   2.736 -0.2442  0.1348 -0.5255
 2414SOL    HW1 8076   1.513   4.016   2.773  0.0791 -0.0366  0.2466
 2414SOL    HW2 8077   1.581   3.887   2.811  0.4910 -0.1836 -0.9542
 2415SOL     OW 8078   3.896   2.948   1.335  0.5662  0.2105  0.2860
 2415SOL    HW1 8079   3.963   2.981   1.395  0.2905 -0.1038  0.7644
 2415SOL    HW2 8080   3.818   2.998   1.356  0.2590 -0.4459  0.7279
 2416SOL     OW 8081   1.791   7.900   4.535 -0.6436  0.2275 -0.1058
 2416SOL    HW1 8082   1.799   7.857   4.620  2.8433 -1.4788 -1.1065
 2416SOL    HW2 8083   1.762   7.831   4.476 -0.9121  0.8500 -0.7158
 2417SOL     OW 8084   2.106   1.664   3.461  0.1871 -0.0291 -0.0956
 2417SOL    HW1 8085   2.065   1.720   3.396 -2.5214 -0.8707  0.7444
 2417SOL    HW2 8086   2.138   1.588   3.411  1.8877  1.1700 -0.9200
 2418SOL     OW 8087   6.582   5.305   7.115  0.2022 -0.9693 -0.6770
 2418SOL    HW1 8088   6.512   5.240   7.118  0.2068 -0.9729  2.6994
 2418SOL    HW2 8089   6.541   5.386   7.145  1.4360 -0.7731  0.5668
 2419SOL     OW 8090   1.157   1.109   2.844 -0.3488 -0.7160  0.3296
 2419SOL    HW1 8091   1.110   1.183   2.807  0.5543 -0.9490 -1.4005
 2419SOL    HW2 8092   1.211   1.147   2.913  0.1398  0.2786 -0.5652
 2420SOL     OW 8093   0.165   6.800   1.539  0.3158  0.6830  0.3824
 2420SOL    HW1 8094   0.218   6.729   1.501  0.0194  0.3580  0.5702
 2420SOL    HW2 8095   0.186   6.876   1.486 -1.1655 -0.0697 -1.3615
 2421SOL     OW 8096   0.747   0.908   7.355  0.0303 -0.0091 -0.0804
 2421SOL    HW1 8097   0.658   0.917   7.388  0.0416 -1.9354  0.5986
 2421SOL    HW2 8098   0.749   0.965   7.277 -2.3351 -1.2002 -1.1364
 2422SOL     OW 8099   2.748   3.110   6.771  0.1258  0.1521 -0.3971
 2422SOL    HW1 8100   2.702   3.172   6.714  0.8553 -0.4880 -1.7461
 2422SOL    HW2 8101   2.700   3.113   6.854 -1.6699  0.3069 -1.3903
 2423SOL     OW 8102   0.990   1.324   2.822 -0.0388  0.2719 -0.5497
 2423SOL    HW1 8103   0.949   1.318   2.908  0.7231 -2.2678 -0.2721
 2423SOL    HW2 8104   1.039   1.406   2.825  1.5651 -0.6130  2.2599
 2424SOL     OW 8105   4.888   4.821   2.835 -0.5712  0.4560  0.6440
 2424SOL    HW1 8106   4.915   4.735   2.867 -1.6157  0.1391  0.7078
 2424SOL    HW2 8107   4.903   4.880   2.908  1.0937  0.5404  0.2809
 2425SOL     OW 8108   2.720   5.567   2.889 -0.2135 -0.2177  0.2754
 2425SOL    HW1 8109   2.735   5.573   2.795  0.2996  0.9970  0.4202
 2425SOL    HW2 8110   2.631   5.601   2.901  0.6076  1.9906  0.4670
 2426SOL     OW 8111   5.155   5.727   2.215 -0.2356  0.4378  0.3890
 2426SOL    HW1 8112   5.093   5.780   2.164  0.5144 -0.0731 -1.1107
 2426SOL    HW2 8113   5.219   5.790   2.247 -0.3304  0.6840  0.1005
 2427SOL     OW 8114   6.743   3.231   3.498  0.3338  0.2038 -0.1326
 2427SOL    HW1 8115   6.661   3.184   3.514 -0.2753  1.2720 -0.0988
 2427SOL    HW2 8116   6.734   3.265   3.409  1.1941 -0.5582 -0.5377
 2428SOL     OW 8117   4.640   4.326   5.501  0.7289 -0.1510  0.0153
 2428SOL    HW1 8118   4.685   4.268   5.562  0.3843  0.8664  1.2615
 2428SOL    HW2 8119   4.551   4.291   5.496  0.9911 -0.7626 -0.6269
 2429SOL     OW 8120   5.220   2.970   4.680 -0.3407 -0.5477  0.4458
 2429SOL    HW1 8121   5.233   3.007   4.767 -1.2479  0.1374  0.3125
 2429SOL    HW2 8122   5.296   2.915   4.665  0.4584  0.3401  1.1494
 2430SOL     OW 8123   6.910   1.565   2.181 -0.6028 -0.1662 -0.2186
 2430SOL    HW1 8124   6.953   1.579   2.266  0.0342 -0.1554 -0.5355
 2430SOL    HW2 8125   6.818   1.588   2.197 -0.3047  0.7910  0.2303
 2431SOL     OW 8126   4.265   3.011   1.733  0.2024 -0.1228  0.6916
 2431SOL    HW1 8127   4.181   3.001   1.688  0.1400  1.1211  0.5196
 2431SOL    HW2 8128   4.266   3.101   1.765  2.0000  0.3267 -0.4547
 2432SOL     OW 8129   7.403   0.470   5.974  0.6341 -0.0126 -0.2255
 2432SOL    HW1 8130   7.401   0.560   5.942  0.2858 -0.0866 -0.4146
 2432SOL    HW2 8131   7.333   0.466   6.039  0.8855 -0.0514  0.0482
 2433SOL     OW 8132   0.480   3.063   2.825 -0.4173  0.8015  0.1711
 2433SOL    HW1 8133   0.471   3.155   2.799 -1.6232  0.6195 -0.1516
 2433SOL    HW2 8134   0.554   3.031   2.774 -0.0325  1.5709  0.2316
 2434SOL     OW 8135   4.339   4.257   2.502  0.1893  0.0467 -0.2921
 2434SOL    HW1 8136   4.414   4.300   2.460  0.1155 -0.4848 -0.9955
 2434SOL    HW2 8137   4.269   4.322   2.500  0.5586  0.4644  0.1569
 2435SOL     OW 8138   7.358   3.405   5.744  0.2444  0.0580  0.8931
 2435SOL    HW1 8139   7.265   3.430   5.743  0.1966  0.0038 -0.9429
 2435SOL    HW2 8140   7.363   3.332   5.804 -0.8994  0.1194  1.0904
 2436SOL     OW 8141   5.164   3.907   1.380 -0.3497 -0.5996 -0.0887
 2436SOL    HW1 8142   5.185   3.990   1.338  0.5542 -0.6317  0.2697
 2436SOL    HW2 8143   5.071   3.914   1.402  0.2372  1.3343  2.1458
 2437SOL     OW 8144   6.022   7.025   0.880 -0.4987  0.6925 -0.5555
 2437SOL    HW1 8145   6.048   7.117   0.873  0.2729  0.5655  0.4149
 2437SOL    HW2 8146   5.987   7.017   0.969  0.4488 -0.1881 -0.2475
 2438SOL     OW 8147   2.701   3.910   6.401 -0.7052  0.0469 -0.8000
 2438SOL    HW1 8148   2.783   3.884   6.361 -1.3397 -0.7714 -1.6093
 2438SOL    HW2 8149   2.646   3.831   6.399 -1.1015  0.2427  0.8207
 2439SOL     OW 8150   4.894   3.293   4.896 -0.7931  0.0869  0.4654
 2439SOL    HW1 8151   4.968   3.297   4.956 -0.2206 -1.7922 -0.0682
 2439SOL    HW2 8152   4.827   3.245   4.944 -0.6164 -0.7320 -0.0944
 2440SOL     OW 8153   5.679   6.810   7.774  0.6520 -0.4167 -0.5218
 2440SOL    HW1 8154   5.725   6.865   7.838 -0.3668  1.5964 -1.4033
 2440SOL    HW2 8155   5.741   6.800   7.702 -0.3074  2.8687 -2.0150
 2441SOL     OW 8156   4.873   6.342   7.788 -0.0554 -0.2045  0.0303
 2441SOL    HW1 8157   4.910   6.254   7.775 -2.0209 -1.2615  1.1587
 2441SOL    HW2 8158   4.834   6.339   7.875  0.9545  2.2582  0.6494
 2442SOL     OW 8159   5.393   7.796   3.603  0.4339 -0.3257 -0.1043
 2442SOL    HW1 8160   5.423   7.763   3.688  1.9884 -0.1542 -0.5598
 2442SOL    HW2 8161   5.304   7.827   3.620  1.4924  1.8703  2.0621
 2443SOL     OW 8162   6.941   0.091   5.295  0.6013  0.2596 -0.0378
 2443SOL    HW1 8163   6.992   0.012   5.317  2.2183  1.3943  0.4979
 2443SOL    HW2 8164   6.944   0.094   5.199 -2.0840 -1.9054 -0.3254
 2444SOL     OW 8165   3.159   3.825   4.868 -0.1122 -0.5337  0.1935
 2444SOL    HW1 8166   3.167   3.766   4.793 -1.2207  1.4807 -1.5923
 2444SOL    HW2 8167   3.073   3.866   4.858  0.9091  1.9611  0.8777
 2445SOL     OW 8168   5.034   6.289   4.047  0.5072 -0.0789  0.5287
 2445SOL    HW1 8169   4.976   6.245   3.985  0.0586  0.3082  0.6756
 2445SOL    HW2 8170   5.071   6.218   4.099 -0.3195 -0.2811  0.8542
 2446SOL     OW 8171   0.229   1.895   4.055 -0.3467  0.0878  0.4390
 2446SOL    HW1 8172   0.135   1.911   4.063 -0.6495 -0.9737 -0.7300
 2446SOL    HW2 8173   0.236   1.804   4.027  0.9308  0.6958 -1.4062
 2447SOL     OW 8174   7.473   6.488   6.633 -0.1057 -0.0031  0.0974
 2447SOL    HW1 8175   7.489   6.583   6.636 -1.5342  0.2450  2.5900
 2447SOL    HW2 8176   7.382   6.480   6.605  0.3897 -0.7432 -1.3826
 2448SOL     OW 8177   4.462   3.940   6.025 -0.0998 -0.2302  0.1657
 2448SOL    HW1 8178   4.444   4.031   6.047  0.6665 -0.4624  2.0008
 2448SOL    HW2 8179   4.376   3.899   6.017 -0.4398  0.5007  0.0067
 2449SOL     OW 8180   4.399   2.158   4.492  0.0645  0.2494 -0.3228
 2449SOL    HW1 8181   4.353   2.225   4.543 -1.4339 -0.9970  0.0448
 2449SOL    HW2 8182   4.480   2.144   4.541  0.3947  1.7322 -0.3839
 2450SOL     OW 8183   0.471   7.837   0.276 -0.0917  0.0085  0.0710
 2450SOL    HW1 8184   0.567   7.828   0.275  0.0764  1.3240  1.1274
 2450SOL    HW2 8185   0.453   7.889   0.354 -1.7823 -1.1372  0.4949
 2451SOL     OW 8186   2.313   4.556   5.594 -0.0261  0.0019 -0.4516
 2451SOL    HW1 8187   2.301   4.651   5.605 -0.8264  0.0240 -1.3685
 2451SOL    HW2 8188   2.224   4.522   5.581  0.3754 -0.6618 -1.6188
 2452SOL     OW 8189   0.573   6.121   2.708  0.3511 -0.8791 -0.0759
 2452SOL    HW1 8190   0.653   6.096   2.755  0.0600 -0.8379  0.4432
 2452SOL    HW2 8191   0.502   6.094   2.765  0.0095  0.9877  0.4489
 2453SOL     OW 8192   5.361   4.696   6.695 -0.0988  0.0852 -0.1794
 2453SOL    HW1 8193   5.314   4.616   6.672 -0.8238  0.6257 -0.6401
 2453SOL    HW2 8194   5.341   4.710   6.787  1.0665 -0.9367  0.2500
 2454SOL     OW 8195   0.329   0.781   3.462  0.6935  0.0078 -0.1517
 2454SOL    HW1 8196   0.408   0.739   3.429  2.3064  2.3598  0.4449
 2454SOL    HW2 8197   0.257   0.729   3.426  2.4576 -1.1636 -2.2138
 2455SOL     OW 8198   3.407   3.788   0.485  0.2116  0.1078  0.5503
 2455SOL    HW1 8199   3.436   3.703   0.520 -1.9217 -0.8751  0.0710
 2455SOL    HW2 8200   3.387   3.841   0.562  0.0394 -0.3740  0.8379
 2456SOL     OW 8201   5.037   7.893   5.132 -0.0989  0.0766  0.5825
 2456SOL    HW1 8202   4.977   7.821   5.151  0.5421 -1.2871 -2.0471
 2456SOL    HW2 8203   4.981   7.962   5.096 -0.2560 -0.9204 -1.2015
 2457SOL     OW 8204   4.588   4.573   7.151 -0.2975 -0.5872 -0.0703
 2457SOL    HW1 8205   4.680   4.547   7.139 -0.4383 -1.9361  1.5285
 2457SOL    HW2 8206   4.538   4.500   7.116 -0.7863  0.1167 -0.8695
 2458SOL     OW 8207   6.455   0.825   7.031  0.0815  0.0126 -0.2518
 2458SOL    HW1 8208   6.525   0.888   7.014 -0.3509  0.8969  0.9915
 2458SOL    HW2 8209   6.466   0.803   7.124 -0.3188 -1.0699 -0.4584
 2459SOL     OW 8210   7.264   3.703   5.398  0.5382 -0.1507 -0.1653
 2459SOL    HW1 8211   7.244   3.767   5.330  1.2321  0.5446  0.2768
 2459SOL    HW2 8212   7.354   3.676   5.381  0.6038 -0.2179  0.2673
 2460SOL     OW 8213   4.637   7.906   7.187 -0.2123 -0.0158 -0.4139
 2460SOL    HW1 8214   4.631   7.997   7.219 -2.6559 -0.3951  0.4576
 2460SOL    HW2 8215   4.711   7.869   7.233 -1.5437  0.4786  2.3364
 2461SOL     OW 8216   6.609   5.803   4.261 -0.4190  0.2856  0.1687
 2461SOL    HW1 8217   6.664   5.728   4.283  0.8044  1.2788  0.6342
 2461SOL    HW2 8218   6.586   5.789   4.169 -2.3879 -1.9452  0.9115
 2462SOL     OW 8219   0.951   1.931   1.675  0.5185  0.5178  0.1345
 2462SOL    HW1 8220   0.940   2.020   1.709 -1.2608  0.7175 -0.8349
 2462SOL    HW2 8221   0.876   1.883   1.709  0.3484 -0.0552 -1.0025
 2463SOL     OW 8222   3.515   0.656   0.486  0.0806  0.0039 -0.3054
 2463SOL    HW1 8223   3.498   0.746   0.516 -1.7312  0.7114 -3.0749
 2463SOL    HW2 8224   3.442   0.605   0.521 -0.1204  0.0821 -0.6131
 2464SOL     OW 8225   1.997   3.853   2.338  0.1912  0.1287 -0.6155
 2464SOL    HW1 8226   2.022   3.764   2.363 -0.9161  0.5838  2.4827
 2464SOL    HW2 8227   2.078   3.903   2.346  0.5134 -0.3108 -1.0257
 2465SOL     OW 8228   5.607   5.582   3.383 -0.2810 -0.4014  0.2404
 2465SOL    HW1 8229   5.621   5.590   3.289 -0.6783  0.7389  0.2495
 2465SOL    HW2 8230   5.523   5.536   3.391 -0.1242 -0.7217  0.0452
 2466SOL     OW 8231   3.513   1.499   2.387  0.0818 -0.0017 -0.0637
 2466SOL    HW1 8232   3.508   1.516   2.481  0.4499 -2.2114  0.3971
 2466SOL    HW2 8233   3.592   1.447   2.376  0.6893  1.1795 -1.7985
 2467SOL     OW 8234   3.741   1.641   0.767  0.1210 -0.3903 -0.1028
 2467SOL    HW1 8235   3.818   1.698   0.760 -0.5858  0.6197  0.1304
 2467SOL    HW2 8236   3.767   1.560   0.724  1.3514 -0.1005  0.0598
 2468SOL     OW 8237   3.260   5.324   3.682  0.3076  0.1225  0.2163
 2468SOL    HW1 8238   3.287   5.277   3.762  2.9153 -1.4932 -1.4359
 2468SOL    HW2 8239   3.183   5.276   3.651  1.6587 -1.8812 -0.2881
 2469SOL     OW 8240   0.705   7.775   6.397  0.2932 -0.5976 -0.7077
 2469SOL    HW1 8241   0.704   7.802   6.489  1.2359  0.5442 -1.0175
 2469SOL    HW2 8242   0.617   7.740   6.382 -0.0759 -0.2239  0.4632
 2470SOL     OW 8243   2.766   0.617   7.265 -0.2957 -0.0399 -0.2009
 2470SOL    HW1 8244   2.801   0.650   7.183  0.9110  1.6653  0.9313
 2470SOL    HW2 8245   2.789   0.524   7.266  0.9496  0.2397 -1.1507
 2471SOL     OW 8246   5.158   3.159   4.429 -0.6763 -0.3441 -0.1149
 2471SOL    HW1 8247   5.242   3.190   4.395 -0.4687  0.0438  0.7311
 2471SOL    HW2 8248   5.159   3.065   4.412  1.0642 -0.8244  2.1276
 2472SOL     OW 8249   1.329   4.668   1.685  1.4637 -0.3097 -0.3113
 2472SOL    HW1 8250   1.383   4.733   1.731  0.0060  1.0762 -0.4714
 2472SOL    HW2 8251   1.248   4.715   1.664  1.3769 -1.4115 -2.7609
 2473SOL     OW 8252   4.453   6.712   1.183  0.4911 -0.7765 -0.6551
 2473SOL    HW1 8253   4.446   6.783   1.247 -2.2317 -0.0805 -1.5857
 2473SOL    HW2 8254   4.385   6.650   1.209  1.2578 -1.8895 -1.2418
 2474SOL     OW 8255   6.261   2.807   2.925 -0.1174  0.6751  0.7780
 2474SOL    HW1 8256   6.253   2.729   2.980  2.2472  0.2170  0.5880
 2474SOL    HW2 8257   6.280   2.773   2.838  1.4667  1.4207  0.7993
 2475SOL     OW 8258   6.087   7.544   6.156  0.0419  0.2125  0.1623
 2475SOL    HW1 8259   6.016   7.492   6.192 -0.1556  0.0000 -0.5166
 2475SOL    HW2 8260   6.129   7.584   6.232 -1.1638  0.8136  0.5347
 2476SOL     OW 8261   2.318   3.507   3.825 -0.3835 -0.2782 -0.0720
 2476SOL    HW1 8262   2.387   3.561   3.788  0.3629  0.0055  1.6122
 2476SOL    HW2 8263   2.247   3.510   3.761  1.5640 -1.5889 -2.4851
 2477SOL     OW 8264   2.951   5.831   4.887 -0.0241 -0.1248  0.2087
 2477SOL    HW1 8265   2.890   5.867   4.951 -0.2479  0.6545 -0.4219
 2477SOL    HW2 8266   2.899   5.820   4.808  0.6099  0.4637 -0.3111
 2478SOL     OW 8267   1.225   3.685   5.000  0.0474  0.3965  0.7187
 2478SOL    HW1 8268   1.245   3.592   5.007  2.3713  0.8340  0.7650
 2478SOL    HW2 8269   1.297   3.721   4.947  0.0487  2.3802  1.9644
 2479SOL     OW 8270   3.908   0.617   6.623 -0.0164  0.2258 -0.4943
 2479SOL    HW1 8271   3.854   0.599   6.700 -0.2197  0.3009 -0.6169
 2479SOL    HW2 8272   3.961   0.693   6.648  0.3584 -0.1233 -0.2143
 2480SOL     OW 8273   1.374   4.780   3.151  0.0301 -0.1514 -0.0892
 2480SOL    HW1 8274   1.333   4.785   3.237  1.4380 -1.0755  0.6917
 2480SOL    HW2 8275   1.404   4.689   3.144  0.7109  0.1329 -1.1702
 2481SOL     OW 8276   6.574   5.910   1.825 -0.3115  0.0371 -0.3138
 2481SOL    HW1 8277   6.507   5.979   1.826 -1.2501 -0.8296 -0.8243
 2481SOL    HW2 8278   6.575   5.879   1.735 -1.6433 -2.2021  0.3372
 2482SOL     OW 8279   6.056   7.080   7.029 -0.5887 -0.1773 -0.6937
 2482SOL    HW1 8280   6.068   7.012   7.096  0.2734 -1.1454 -1.7956
 2482SOL    HW2 8281   6.142   7.089   6.988 -0.8950  1.0144 -1.1349
 2483SOL     OW 8282   5.130   3.950   7.831  0.2292  0.2608  0.0220
 2483SOL    HW1 8283   5.073   3.975   7.904  0.4109  2.0887 -0.4154
 2483SOL    HW2 8284   5.127   3.855   7.830 -4.4873  0.1707 -1.2561
 2484SOL     OW 8285   7.648   3.350   4.052 -0.3573 -0.1609  0.2421
 2484SOL    HW1 8286   7.574   3.289   4.051  0.7550 -1.5625 -0.3877
 2484SOL    HW2 8287   7.660   3.374   3.961  1.4702 -1.9202 -0.0523
 2485SOL     OW 8288   3.905   0.828   0.033 -0.2125  0.3520  0.2728
 2485SOL    HW1 8289   3.967   0.891   0.070 -0.3009  1.8717 -1.9441
 2485SOL    HW2 8290   3.825   0.840   0.085  0.7988 -0.4700  2.1093
 2486SOL     OW 8291   3.390   7.012   0.658 -0.3864 -0.0163 -0.0437
 2486SOL    HW1 8292   3.344   6.969   0.586 -2.4342 -1.1938  1.8226
 2486SOL    HW2 8293   3.327   7.076   0.692 -0.3318 -0.9150  1.9187
 2487SOL     OW 8294   4.028   5.863   0.674 -0.3476 -0.5782 -0.5725
 2487SOL    HW1 8295   4.047   5.957   0.675 -1.0226 -0.4268 -0.8523
 2487SOL    HW2 8296   4.058   5.833   0.589 -2.2884 -0.1125 -1.4799
 2488SOL     OW 8297   2.754   4.286   1.668  0.0899 -0.1976 -0.0519
 2488SOL    HW1 8298   2.797   4.271   1.753 -1.2755 -0.6212  0.5907
 2488SOL    HW2 8299   2.668   4.322   1.691  0.4502  1.6305 -1.3292
 2489SOL     OW 8300   5.683   7.745   7.606  0.9031  0.0967 -0.0467
 2489SOL    HW1 8301   5.661   7.656   7.579  2.3649 -0.1995 -0.3324
 2489SOL    HW2 8302   5.634   7.759   7.687 -1.5447  0.0676 -1.4172
 2490SOL     OW 8303   0.571   7.554   4.077  0.0173 -0.5579  0.0752
 2490SOL    HW1 8304   0.525   7.559   4.160 -0.5210  3.1660 -0.2516
 2490SOL    HW2 8305   0.662   7.576   4.098 -0.4676  2.3324 -0.3726
 2491SOL     OW 8306   3.936   5.020   0.753  0.2096  0.1881 -0.3055
 2491SOL    HW1 8307   3.865   5.022   0.817  0.5026  1.9294  0.0151
 2491SOL    HW2 8308   3.904   4.963   0.683 -1.5337  0.9605 -0.1839
 2492SOL     OW 8309   4.042   2.653   2.095  0.0271 -0.2700  0.3203
 2492SOL    HW1 8310   4.136   2.658   2.110  0.0704  2.6181 -0.3242
 2492SOL    HW2 8311   4.034   2.604   2.013  1.2137  1.5594 -0.9765
 2493SOL     OW 8312   4.504   6.789   2.703  0.0380  0.1315 -0.2373
 2493SOL    HW1 8313   4.595   6.812   2.721 -0.2302  1.2497 -0.1943
 2493SOL    HW2 8314   4.507   6.736   2.624  0.8988 -1.6061  0.9007
 2494SOL     OW 8315   6.050   3.964   5.202  0.6861  0.2165  0.1096
 2494SOL    HW1 8316   5.985   3.894   5.213 -0.5368  1.1336 -0.9611
 2494SOL    HW2 8317   6.021   4.033   5.263 -0.2628  1.2192 -1.3923
 2495SOL     OW 8318   3.701   1.115   6.467  0.1187  1.0298 -0.4477
 2495SOL    HW1 8319   3.772   1.104   6.404  0.9792  0.3441  0.5996
 2495SOL    HW2 8320   3.722   1.053   6.537 -3.1491 -1.5520 -1.4933
 2496SOL     OW 8321   0.233   2.753   3.404 -0.0052 -0.2274 -0.2807
 2496SOL    HW1 8322   0.216   2.844   3.379 -0.1285 -0.1369  0.1215
 2496SOL    HW2 8323   0.148   2.720   3.432 -0.2123 -0.8483 -1.6061
 2497SOL     OW 8324   3.260   1.255   3.285 -0.3198 -0.5956  0.4611
 2497SOL    HW1 8325   3.346   1.273   3.322  0.2236 -2.6532  0.3730
 2497SOL    HW2 8326   3.262   1.297   3.199  0.4928 -0.3626  0.5827
 2498SOL     OW 8327   1.674   2.258   4.526 -0.1532 -0.5744 -0.8027
 2498SOL    HW1 8328   1.643   2.210   4.449 -0.6021 -1.6507  0.0260
 2498SOL    HW2 8329   1.769   2.251   4.522 -0.2259 -3.0017  0.1591
 2499SOL     OW 8330   7.578   0.713   6.160  0.3313  0.4918 -0.3037
 2499SOL    HW1 8331   7.499   0.667   6.186  0.1833  1.2698  0.6831
 2499SOL    HW2 8332   7.648   0.649   6.172  0.3615  0.9477  2.7108
 2500SOL     OW 8333   3.042   4.214   0.855 -0.4482 -0.1442  0.2295
 2500SOL    HW1 8334   2.949   4.195   0.840 -1.1068 -0.3885  3.7102
 2500SOL    HW2 8335   3.075   4.138   0.903  1.9522 -0.5747 -1.8824
 2501SOL     OW 8336   0.088   5.944   7.139  0.3849  0.5831  0.4171
 2501SOL    HW1 8337   0.133   5.867   7.176  0.1006  0.8253  1.2884
 2501SOL    HW2 8338   0.044   5.911   7.061  1.0286  0.0625  0.2657
 2502SOL     OW 8339   6.330   2.244   2.467 -0.3198 -0.3810  0.6230
 2502SOL    HW1 8340   6.399   2.283   2.414 -0.3117  0.5587  1.2940
 2502SOL    HW2 8341   6.363   2.249   2.557  1.3005 -5.2145  0.5732
 2503SOL     OW 8342   0.677   6.222   3.384 -0.1151 -0.0919 -0.0283
 2503SOL    HW1 8343   0.687   6.289   3.315 -0.8037  0.9932  0.8941
 2503SOL    HW2 8344   0.692   6.270   3.466 -0.8222 -1.0278  0.6625
 2504SOL     OW 8345   3.729   7.020   7.670 -0.1749  0.4404  0.2993
 2504SOL    HW1 8346   3.738   6.925   7.663 -0.3044  0.3578  1.1757
 2504SOL    HW2 8347   3.804   7.055   7.621 -0.4607 -0.0956 -0.5367
 2505SOL     OW 8348   6.584   6.923   0.260  0.3773  0.2585 -0.0364
 2505SOL    HW1 8349   6.511   6.882   0.307  1.0603 -1.7498 -0.6304
 2505SOL    HW2 8350   6.558   7.014   0.251 -0.2251  0.5192  3.3154
 2506SOL     OW 8351   4.283   6.140   3.215  0.5400 -0.5574 -0.4790
 2506SOL    HW1 8352   4.320   6.057   3.187 -1.7687 -1.1236 -2.1783
 2506SOL    HW2 8353   4.211   6.156   3.154  1.5214  3.2299 -0.9149
 2507SOL     OW 8354   4.599   0.560   0.648 -0.2569 -0.2451  0.4907
 2507SOL    HW1 8355   4.648   0.637   0.622 -0.0726 -0.8150 -0.9383
 2507SOL    HW2 8356   4.651   0.521   0.718 -0.1705  0.7037  0.9749
 2508SOL     OW 8357   0.790   6.469   6.660  0.1626  0.0565  0.0273
 2508SOL    HW1 8358   0.714   6.518   6.627 -0.8767 -0.7776  1.0926
 2508SOL    HW2 8359   0.763   6.378   6.656 -0.3863 -0.0979  3.7840
 2509SOL     OW 8360   7.528   6.599   4.595  0.8780  0.1016 -0.2200
 2509SOL    HW1 8361   7.532   6.660   4.522 -2.4263 -0.8600 -1.3875
 2509SOL    HW2 8362   7.558   6.515   4.559  1.3184  0.0848  0.1694
 2510SOL     OW 8363   5.164   5.997   6.754 -0.2028 -0.4208  0.1570
 2510SOL    HW1 8364   5.153   5.974   6.662  1.1218 -2.2819  0.4211
 2510SOL    HW2 8365   5.217   6.077   6.752  0.6100 -0.9634 -0.6896
 2511SOL     OW 8366   7.641   3.759   4.260  0.0112 -0.1915  0.2810
 2511SOL    HW1 8367   7.573   3.695   4.240 -0.1267 -0.0264  0.2263
 2511SOL    HW2 8368   7.719   3.726   4.214 -0.0626 -0.3133  0.2433
 2512SOL     OW 8369   2.042   1.422   7.409 -0.3804  0.3200  0.2638
 2512SOL    HW1 8370   2.006   1.352   7.463 -2.1935  1.5763  0.7740
 2512SOL    HW2 8371   2.137   1.412   7.417 -0.5207 -2.9453 -0.9175
 2513SOL     OW 8372   3.359   3.655   4.950 -0.5632  0.0140 -0.5851
 2513SOL    HW1 8373   3.287   3.716   4.931  0.8876  2.2270  0.6197
 2513SOL    HW2 8374   3.406   3.647   4.867 -1.0866  0.0441 -0.8958
 2514SOL     OW 8375   5.282   6.624   6.872  0.0236  0.3351 -0.3222
 2514SOL    HW1 8376   5.281   6.559   6.943  0.3529 -0.5339 -1.0842
 2514SOL    HW2 8377   5.210   6.684   6.893  0.7130  0.6546  1.2393
 2515SOL     OW 8378   1.416   3.810   3.931 -0.6798 -0.4050 -0.3813
 2515SOL    HW1 8379   1.418   3.816   3.836  0.6734 -0.5263 -0.3731
 2515SOL    HW2 8380   1.338   3.860   3.957 -1.7851 -1.4287 -1.6058
 2516SOL     OW 8381   2.338   1.903   0.091  0.2300 -0.3766  0.2453
 2516SOL    HW1 8382   2.420   1.946   0.113 -0.1316  0.9014 -0.7702
 2516SOL    HW2 8383   2.297   1.960   0.025 -1.2815 -1.1789  0.4267
 2517SOL     OW 8384   6.578   4.226   3.484  0.0309  0.1091  0.2925
 2517SOL    HW1 8385   6.574   4.279   3.405  1.7076 -1.1494 -0.6951
 2517SOL    HW2 8386   6.664   4.243   3.521 -0.8397  0.9067  2.0721
 2518SOL     OW 8387   2.946   3.257   1.059 -0.2639  0.1559  0.7370
 2518SOL    HW1 8388   2.923   3.193   0.992 -0.0386  3.6536 -3.0309
 2518SOL    HW2 8389   3.041   3.250   1.066 -0.3773 -0.9034  1.5708
 2519SOL     OW 8390   2.775   2.471   0.580 -0.2679  0.0475 -0.1079
 2519SOL    HW1 8391   2.762   2.550   0.633  1.3139 -0.1965  0.6957
 2519SOL    HW2 8392   2.794   2.504   0.492  1.2586  0.6276  0.4140
 2520SOL     OW 8393   7.576   0.010   4.770 -0.4470 -0.1443 -0.4537
 2520SOL    HW1 8394   7.620   0.095   4.775 -0.0032 -0.1418 -3.0575
 2520SOL    HW2 8395   7.608  -0.038   4.846 -0.2570  1.7892  0.7633
 2521SOL     OW 8396   5.298   2.188   0.277  0.4993 -0.0821 -0.1121
 2521SOL    HW1 8397   5.228   2.253   0.282  0.4657 -0.1860  1.0070
 2521SOL    HW2 8398   5.253   2.105   0.260  0.5759  0.2197 -1.9650
 2522SOL     OW 8399   2.157   6.730   1.850  0.1783 -0.6476  0.1525
 2522SOL    HW1 8400   2.105   6.717   1.929  0.1544 -1.6640 -0.0179
 2522SOL    HW2 8401   2.104   6.787   1.795  0.3818  0.4166  1.0371
 2523SOL     OW 8402   7.618   1.561   5.918  0.1321  0.0510  0.7395
 2523SOL    HW1 8403   7.660   1.604   5.844 -0.5813 -0.0923  0.2337
 2523SOL    HW2 8404   7.615   1.627   5.987 -0.4676  0.6525  0.1560
 2524SOL     OW 8405   2.291   1.964   7.174  0.2520 -0.3226 -0.4556
 2524SOL    HW1 8406   2.213   2.003   7.136  1.4304  0.6203 -2.0013
 2524SOL    HW2 8407   2.317   1.895   7.112  1.1908  0.0339 -0.4788
 2525SOL     OW 8408   7.607   4.365   5.481  0.0426  0.0492 -0.3571
 2525SOL    HW1 8409   7.651   4.368   5.396 -1.3781  0.2441 -1.1166
 2525SOL    HW2 8410   7.585   4.273   5.494 -1.2809  0.2581 -1.0364
 2526SOL     OW 8411   4.502   3.046   4.313  0.0264  0.1158  0.5302
 2526SOL    HW1 8412   4.493   2.970   4.256 -0.8595  0.0484  0.7487
 2526SOL    HW2 8413   4.597   3.061   4.317  0.1087  0.4265 -1.3492
 2527SOL     OW 8414   0.269   6.339   1.345  0.4524  0.0107 -0.4850
 2527SOL    HW1 8415   0.204   6.299   1.402  1.2160 -0.2838  0.1954
 2527SOL    HW2 8416   0.329   6.268   1.322  1.4848  0.6040  0.2583
 2528SOL     OW 8417   4.799   5.237   7.517 -0.3378  0.1593 -0.3596
 2528SOL    HW1 8418   4.832   5.222   7.428 -1.1398 -1.0391 -0.4790
 2528SOL    HW2 8419   4.878   5.244   7.571  0.1490 -0.8771 -0.9044
 2529SOL     OW 8420   6.214   3.153   1.727  0.5948 -0.0936  0.0674
 2529SOL    HW1 8421   6.166   3.232   1.752  0.7766 -0.4932  1.7914
 2529SOL    HW2 8422   6.302   3.185   1.704  1.3652  0.0852  2.8368
 2530SOL     OW 8423   2.813   2.884   5.508 -0.7100 -0.0997 -0.3969
 2530SOL    HW1 8424   2.786   2.911   5.421 -1.1511  0.1432 -0.1934
 2530SOL    HW2 8425   2.794   2.790   5.511 -0.3178 -0.1898 -0.6942
 2531SOL     OW 8426   2.333   0.031   3.378  0.2951 -0.0493 -0.5973
 2531SOL    HW1 8427   2.357  -0.060   3.360  0.9583  0.2423 -1.2835
 2531SOL    HW2 8428   2.262   0.050   3.316  0.3700 -0.0110 -0.6723
 2532SOL     OW 8429   2.476   0.549   1.645 -0.7045  0.4565 -0.2376
 2532SOL    HW1 8430   2.570   0.558   1.659 -0.1675 -0.0573 -3.0019
 2532SOL    HW2 8431   2.459   0.596   1.564 -2.0814 -2.5543 -1.8634
 2533SOL     OW 8432   6.226   4.423   3.531 -0.3257  0.5148 -0.6780
 2533SOL    HW1 8433   6.318   4.444   3.545 -0.7528  2.2686 -0.2856
 2533SOL    HW2 8434   6.190   4.412   3.619 -0.3286 -1.0375 -0.8488
 2534SOL     OW 8435   4.886   5.974   4.368 -0.8619  0.2100  0.6331
 2534SOL    HW1 8436   4.904   6.059   4.406 -0.8724  0.9073 -0.8526
 2534SOL    HW2 8437   4.796   5.980   4.336 -0.5749 -0.0351 -0.2604
 2535SOL     OW 8438   4.078   3.121   2.524 -0.0428 -0.1942  0.2332
 2535SOL    HW1 8439   4.061   3.203   2.477  0.6713  0.4528  1.0800
 2535SOL    HW2 8440   4.087   3.055   2.454  2.0502  0.9252 -0.6511
 2536SOL     OW 8441   6.059   6.650   7.185 -0.6342 -0.2764 -0.1117
 2536SOL    HW1 8442   6.111   6.579   7.147  0.5072  0.3060  0.3184
 2536SOL    HW2 8443   5.976   6.608   7.209 -0.4873 -1.1602 -1.0699
 2537SOL     OW 8444   0.545   7.564   7.893 -0.4105 -0.2478  0.2458
 2537SOL    HW1 8445   0.615   7.588   7.954 -0.3099 -0.8504  0.3759
 2537SOL    HW2 8446   0.486   7.510   7.945 -0.7026 -0.1710 -0.0035
 2538SOL     OW 8447   0.803   3.720   5.725 -0.2121 -0.0226 -0.1262
 2538SOL    HW1 8448   0.768   3.732   5.637 -3.3580 -1.2300  0.8313
 2538SOL    HW2 8449   0.787   3.627   5.745  1.0671  0.0590  1.4663
 2539SOL     OW 8450   3.612   7.533   1.081 -0.1354 -0.7443 -0.4076
 2539SOL    HW1 8451   3.556   7.579   1.018 -0.3671  0.5696  0.7069
 2539SOL    HW2 8452   3.586   7.441   1.074 -0.3937 -0.5797 -1.9665
 2540SOL     OW 8453   3.415   1.853   4.383  0.4351 -0.3766 -0.9079
 2540SOL    HW1 8454   3.510   1.857   4.387  0.5769 -1.0994 -2.6802
 2540SOL    HW2 8455   3.390   1.790   4.451  0.9909  1.4482  1.1078
 2541SOL     OW 8456   4.409   7.566   6.437 -0.4884 -0.2598  0.0986
 2541SOL    HW1 8457   4.390   7.642   6.492 -0.9431 -0.6365  0.4725
 2541SOL    HW2 8458   4.402   7.491   6.496  0.2299 -0.5751 -0.2034
 2542SOL     OW 8459   0.386   5.151   5.762  0.0305  0.0244 -0.3271
 2542SOL    HW1 8460   0.303   5.166   5.808 -0.2199 -3.4050  0.6297
 2542SOL    HW2 8461   0.368   5.077   5.703  2.0225  0.2009 -1.2509
 2543SOL     OW 8462   0.975   1.826   3.200  0.2696  0.1646  0.2013
 2543SOL    HW1 8463   0.942   1.838   3.290  2.5250  1.2712  0.9381
 2543SOL    HW2 8464   1.041   1.758   3.208  1.1144  0.8946 -0.4390
 2544SOL     OW 8465   3.556   5.659   2.872  0.2069 -0.3781  0.2172
 2544SOL    HW1 8466   3.537   5.574   2.834 -1.8277  0.6199 -1.1405
 2544SOL    HW2 8467   3.627   5.694   2.819 -0.8763 -0.0798 -1.0815
 2545SOL     OW 8468   3.004   5.434   5.605  0.1867  0.5845  0.3076
 2545SOL    HW1 8469   2.911   5.446   5.625 -0.0328  1.3428 -1.0570
 2545SOL    HW2 8470   3.041   5.522   5.612  0.6731  0.3867  0.2295
 2546SOL     OW 8471   4.781   0.770   3.422 -0.4921 -0.0737 -0.1457
 2546SOL    HW1 8472   4.832   0.794   3.499  0.7614  0.3357 -1.0839
 2546SOL    HW2 8473   4.739   0.687   3.446  1.5773 -1.0631  0.2045
 2547SOL     OW 8474   6.080   6.194   4.449 -0.3422  0.3849 -0.3387
 2547SOL    HW1 8475   6.054   6.133   4.380  1.5591 -0.1744 -0.6210
 2547SOL    HW2 8476   6.066   6.146   4.531  1.1958 -0.5191 -0.5612
 2548SOL     OW 8477   1.174   2.218   6.753 -0.0749  0.4574  0.4268
 2548SOL    HW1 8478   1.162   2.284   6.822  1.0003 -0.1486  1.2312
 2548SOL    HW2 8479   1.259   2.240   6.714 -1.1796  1.5060 -1.5569
 2549SOL     OW 8480   5.913   7.334   0.407  0.1366 -0.4584 -0.4510
 2549SOL    HW1 8481   5.895   7.387   0.329  2.3300 -0.3851 -0.9736
 2549SOL    HW2 8482   5.943   7.250   0.372 -1.4624 -1.4182  0.3684
 2550SOL     OW 8483   1.412   7.908   0.963 -0.5722 -0.0006 -0.2025
 2550SOL    HW1 8484   1.386   7.824   1.001 -0.9642  1.1726  2.3583
 2550SOL    HW2 8485   1.339   7.933   0.906 -1.3674 -0.4855  0.5899
 2551SOL     OW 8486   5.261   0.945   1.440  0.6950 -0.3656  0.0294
 2551SOL    HW1 8487   5.324   0.966   1.371 -0.5718 -1.0128 -1.3969
 2551SOL    HW2 8488   5.254   0.849   1.437  0.5329 -0.3868  0.9849
 2552SOL     OW 8489   5.619   4.714   1.187  0.1696 -0.6577 -0.0221
 2552SOL    HW1 8490   5.562   4.791   1.197  0.0443 -0.7847  0.2399
 2552SOL    HW2 8491   5.672   4.734   1.109  1.5071  0.5824  1.1166
 2553SOL     OW 8492   0.007   6.036   2.843  0.1424 -0.7262  0.0678
 2553SOL    HW1 8493   0.053   6.001   2.919  0.6115 -0.7290 -0.2094
 2553SOL    HW2 8494  -0.052   6.102   2.879 -0.2438 -1.3001  0.5190
 2554SOL     OW 8495   1.510   0.077   2.708 -0.5251  0.4800 -0.0743
 2554SOL    HW1 8496   1.471   0.035   2.785 -0.5996 -0.1243 -0.4382
 2554SOL    HW2 8497   1.593   0.113   2.741 -0.5342  0.1890  0.2798
 2555SOL     OW 8498   6.084   4.937   3.341  0.0481 -0.4608 -0.1308
 2555SOL    HW1 8499   6.133   4.869   3.386  1.1759 -0.9216 -1.9534
 2555SOL    HW2 8500   5.996   4.900   3.329  1.2273 -2.6972 -3.1168
 2556SOL     OW 8501   1.580   2.204   1.194  0.2181  0.2919  0.2697
 2556SOL    HW1 8502   1.495   2.171   1.166  0.0019  1.3991 -0.4406
 2556SOL    HW2 8503   1.596   2.161   1.278 -0.7691 -0.3701  0.1370
 2557SOL     OW 8504   6.989   5.812   5.515 -0.5610  0.4299  0.3618
 2557SOL    HW1 8505   6.903   5.813   5.474 -0.0841  0.2092 -0.6878
 2557SOL    HW2 8506   7.019   5.903   5.509 -1.0680  0.6788  1.5057
 2558SOL     OW 8507   2.479   0.680   7.518  0.1105 -0.0125  0.2945
 2558SOL    HW1 8508   2.550   0.697   7.580  1.5114 -1.0010 -0.9634
 2558SOL    HW2 8509   2.494   0.742   7.447  0.0041 -0.5528 -0.2067
 2559SOL     OW 8510   0.944   2.265   2.439 -0.0521 -0.4022 -0.0383
 2559SOL    HW1 8511   0.942   2.332   2.371  0.8024  0.8294  1.0923
 2559SOL    HW2 8512   0.869   2.286   2.495 -0.8067 -1.4643 -0.6087
 2560SOL     OW 8513   2.525   5.000   5.468 -0.6276 -0.5935  0.0566
 2560SOL    HW1 8514   2.473   5.072   5.504  1.0534  1.6760 -1.6963
 2560SOL    HW2 8515   2.559   5.035   5.385  3.0600 -2.1514  0.7324
 2561SOL     OW 8516   2.591   3.877   2.774 -0.1899  0.4225 -0.3525
 2561SOL    HW1 8517   2.561   3.939   2.841 -1.3200  0.8228 -1.2157
 2561SOL    HW2 8518   2.646   3.930   2.716  0.4771  0.1550  0.0114
 2562SOL     OW 8519   2.790   0.053   6.077 -0.5780 -0.5841 -0.3437
 2562SOL    HW1 8520   2.844   0.129   6.097 -1.5070  0.2559 -0.9557
 2562SOL    HW2 8521   2.734   0.041   6.154  0.0179 -1.0550  0.0207
 2563SOL     OW 8522   1.253   7.356   0.674 -0.0508 -0.1474  0.5294
 2563SOL    HW1 8523   1.270   7.409   0.596 -0.2397 -0.1226  0.5042
 2563SOL    HW2 8524   1.307   7.278   0.663 -1.1597 -0.8115 -0.3152
 2564SOL     OW 8525   7.017   7.016   3.191  0.0526  0.1727  0.4529
 2564SOL    HW1 8526   6.971   7.050   3.267  0.3718  1.6557  0.0097
 2564SOL    HW2 8527   7.054   6.932   3.220  0.2839  0.7750  1.9591
 2565SOL     OW 8528   1.150   7.065   0.861 -0.1319  0.2699 -0.0339
 2565SOL    HW1 8529   1.235   7.027   0.840  0.6884  1.5526  0.8216
 2565SOL    HW2 8530   1.162   7.104   0.948 -0.9897  2.1780 -0.7159
 2566SOL     OW 8531   4.623   1.722   5.078 -0.1577  0.1557 -0.3119
 2566SOL    HW1 8532   4.586   1.756   5.160  1.7149 -0.5346  0.8809
 2566SOL    HW2 8533   4.685   1.789   5.050 -1.4591  0.8302 -1.7449
 2567SOL     OW 8534   0.582   5.946   0.164 -0.3045 -0.6879 -0.0997
 2567SOL    HW1 8535   0.497   5.907   0.143  0.7183 -1.5952 -3.1099
 2567SOL    HW2 8536   0.571   6.039   0.144 -0.2331 -1.0488 -1.9742
 2568SOL     OW 8537   7.929   0.378   6.568  0.9429  0.2820 -0.4602
 2568SOL    HW1 8538   7.874   0.443   6.612 -0.9127 -1.7299  0.3598
 2568SOL    HW2 8539   7.989   0.347   6.636  0.9159  0.1599 -0.4924
 2569SOL     OW 8540   4.912   0.179   5.087  0.0961  0.3193 -0.3203
 2569SOL    HW1 8541   4.975   0.243   5.119 -0.3275  0.3203  0.5445
 2569SOL    HW2 8542   4.891   0.208   4.998 -0.2055  1.4788  0.1163
 2570SOL     OW 8543   2.686   5.780   0.798 -0.4016 -0.8103 -0.0375
 2570SOL    HW1 8544   2.639   5.743   0.723 -0.7146  0.3033 -0.4148
 2570SOL    HW2 8545   2.627   5.848   0.832  0.6316  0.1622 -0.1125
 2571SOL     OW 8546   5.506   4.988   6.240 -0.1881  0.0256 -0.0844
 2571SOL    HW1 8547   5.547   4.968   6.155 -0.1478 -1.4831  0.2540
 2571SOL    HW2 8548   5.455   4.909   6.260  0.4874  0.0187  1.7039
 2572SOL     OW 8549   7.374   2.145   2.273 -0.1180 -0.1947  0.3262
 2572SOL    HW1 8550   7.280   2.146   2.290 -0.5251 -2.2091 -1.4141
 2572SOL    HW2 8551   7.381   2.159   2.178  1.2501 -1.3368  0.2326
 2573SOL     OW 8552   3.800   1.766   7.863  0.0834 -0.1881 -0.3072
 2573SOL    HW1 8553   3.757   1.844   7.827 -1.2688 -0.5937  0.3814
 2573SOL    HW2 8554   3.893   1.779   7.843 -0.1440  1.4886 -0.4014
 2574SOL     OW 8555   1.359   5.339   1.523 -0.3159  0.6204  0.3459
 2574SOL    HW1 8556   1.383   5.247   1.508 -1.5869  0.4080 -0.6524
 2574SOL    HW2 8557   1.426   5.389   1.476 -0.0395  0.1668  0.2484
 2575SOL     OW 8558   3.097   5.939   6.626  0.3791  0.1832  0.1224
 2575SOL    HW1 8559   3.190   5.940   6.602  0.1118  1.5421 -0.9672
 2575SOL    HW2 8560   3.060   5.868   6.573  0.7173 -0.1416  0.3102
 2576SOL     OW 8561   1.798   6.820   5.672 -0.7303  0.8912  0.4210
 2576SOL    HW1 8562   1.716   6.831   5.720 -1.4437 -1.5130 -0.1192
 2576SOL    HW2 8563   1.802   6.896   5.613 -3.7284  0.0488 -1.0934
 2577SOL     OW 8564   5.673   5.178   5.859 -0.3209 -0.4654  0.1239
 2577SOL    HW1 8565   5.648   5.115   5.927  2.3287 -0.0215  1.6104
 2577SOL    HW2 8566   5.593   5.189   5.807 -1.8193 -2.4858  1.8219
 2578SOL     OW 8567   5.187   0.113   6.007 -0.0118 -0.0967 -0.4738
 2578SOL    HW1 8568   5.166   0.134   6.098 -0.4884 -0.7494 -0.4313
 2578SOL    HW2 8569   5.142   0.181   5.956  1.2982  1.0402 -0.1814
 2579SOL     OW 8570   5.406   2.293   7.108 -0.0247 -0.0827  1.0861
 2579SOL    HW1 8571   5.465   2.361   7.140  0.7402 -0.4574  0.4955
 2579SOL    HW2 8572   5.462   2.234   7.057 -0.8688 -0.5611  0.6894
 2580SOL     OW 8573   6.869   6.811   6.113 -0.0380 -0.0825  0.4532
 2580SOL    HW1 8574   6.799   6.852   6.164 -1.0005  0.4900 -1.2707
 2580SOL    HW2 8575   6.838   6.721   6.099  1.0765 -0.8345  2.3670
 2581SOL     OW 8576   7.657   5.444   1.314  0.3485 -0.1894  0.0092
 2581SOL    HW1 8577   7.651   5.474   1.405 -0.0890  1.5824 -0.5675
 2581SOL    HW2 8578   7.598   5.368   1.311 -0.4572  0.3661  0.9585
 2582SOL     OW 8579   0.312   2.294   3.206 -0.1510 -0.3818 -0.1469
 2582SOL    HW1 8580   0.401   2.259   3.200 -0.0997 -0.4609  0.9072
 2582SOL    HW2 8581   0.319   2.383   3.172  0.4048 -0.2813  0.2167
 2583SOL     OW 8582   5.485   1.126   3.571  0.1240 -0.4223 -0.0047
 2583SOL    HW1 8583   5.549   1.058   3.551  0.1243 -0.6061  0.5821
 2583SOL    HW2 8584   5.451   1.102   3.657  0.6143  0.6880  0.5211
 2584SOL     OW 8585   3.484   5.680   4.582 -0.0289  0.3708  0.7671
 2584SOL    HW1 8586   3.409   5.620   4.579  0.1412  0.1644  0.6113
 2584SOL    HW2 8587   3.525   5.672   4.495  1.3684 -1.0613  1.5001
 2585SOL     OW 8588   2.158   7.724   4.976 -0.0292  0.1217 -0.2437
 2585SOL    HW1 8589   2.103   7.755   4.904 -0.9642 -1.8000 -0.4175
 2585SOL    HW2 8590   2.241   7.700   4.933  0.6510  2.0916 -0.1278
 2586SOL     OW 8591   6.790   3.493   4.757  0.5096 -0.1542  0.5649
 2586SOL    HW1 8592   6.858   3.484   4.823  2.1848 -1.1934 -1.2292
 2586SOL    HW2 8593   6.837   3.510   4.675 -1.4865  1.1408 -0.4071
 2587SOL     OW 8594   2.841   1.567   4.954  0.3456  0.9070  0.6508
 2587SOL    HW1 8595   2.790   1.506   4.901  0.7421  1.4300 -0.3676
 2587SOL    HW2 8596   2.923   1.578   4.906  0.0548  2.6823  0.4527
 2588SOL     OW 8597   5.811   7.452   3.660 -0.1291 -0.0506 -0.7075
 2588SOL    HW1 8598   5.740   7.510   3.632 -0.2987 -0.3973 -1.0016
 2588SOL    HW2 8599   5.832   7.481   3.748  0.5997  1.2383 -1.2817
 2589SOL     OW 8600   1.367   3.610   2.071 -0.2624  0.2904  0.0337
 2589SOL    HW1 8601   1.367   3.580   2.162 -2.6574 -1.0253 -0.3206
 2589SOL    HW2 8602   1.289   3.570   2.033  0.5952  0.9296 -2.5762
 2590SOL     OW 8603   0.662   6.456   0.038  0.2166 -0.0043  0.3406
 2590SOL    HW1 8604   0.600   6.427  -0.030  1.5459  0.2183 -1.0163
 2590SOL    HW2 8605   0.700   6.537   0.002  0.2512  0.6567  1.8049
 2591SOL     OW 8606   4.450   4.975   2.470 -0.1375  0.1109  0.1888
 2591SOL    HW1 8607   4.545   4.986   2.479 -0.0315  1.1988 -1.5927
 2591SOL    HW2 8608   4.440   4.913   2.398 -0.7994 -0.5505  0.8353
 2592SOL     OW 8609   1.538   0.188   6.814  0.0658 -0.4292 -0.4280
 2592SOL    HW1 8610   1.556   0.246   6.888  1.4070 -0.4876 -0.6843
 2592SOL    HW2 8611   1.509   0.106   6.854 -1.2294  0.1886 -0.0448
 2593SOL     OW 8612   5.330   2.082   4.727 -0.0509  0.1661  0.0908
 2593SOL    HW1 8613   5.419   2.069   4.693  0.3352  1.2488  0.6353
 2593SOL    HW2 8614   5.274   2.036   4.665  0.7485  0.9451 -1.2604
 2594SOL     OW 8615   1.327   6.659   6.126  0.4924 -0.0358 -0.2049
 2594SOL    HW1 8616   1.317   6.624   6.037  0.0061 -0.3926 -0.0140
 2594SOL    HW2 8617   1.238   6.666   6.159  0.6851 -0.1025  0.3323
 2595SOL     OW 8618   4.991   7.542   7.299  0.3566  0.2819  0.5187
 2595SOL    HW1 8619   4.914   7.593   7.324  1.1299  0.9147  1.6840
 2595SOL    HW2 8620   5.026   7.508   7.381  0.3404 -1.4799 -0.1484
 2596SOL     OW 8621   5.562   5.558   2.596 -0.2766  0.3242 -0.3802
 2596SOL    HW1 8622   5.496   5.509   2.644  0.6849 -1.6388 -0.9586
 2596SOL    HW2 8623   5.639   5.557   2.653 -0.2181  1.1275 -0.4321
 2597SOL     OW 8624   2.999   1.597   2.893  0.4276 -0.0138 -0.4979
 2597SOL    HW1 8625   2.975   1.556   2.976  0.2940  0.0082 -0.5254
 2597SOL    HW2 8626   3.026   1.686   2.917  0.3630  0.0013 -0.4814
 2598SOL     OW 8627   1.030   4.761   3.977  0.2965  0.2039 -0.2368
 2598SOL    HW1 8628   1.048   4.667   3.970 -1.7500 -0.2175 -0.6375
 2598SOL    HW2 8629   1.101   4.803   3.928 -0.9273 -1.4033 -3.7493
 2599SOL     OW 8630   3.286   5.432   5.631  0.4055 -0.1445  0.2361
 2599SOL    HW1 8631   3.324   5.345   5.619  0.7835 -0.0496  0.6862
 2599SOL    HW2 8632   3.195   5.423   5.605  0.1022 -1.0048  1.5207
 2600SOL     OW 8633   0.426   5.211   2.633  0.5680 -0.3586  0.0371
 2600SOL    HW1 8634   0.478   5.157   2.573 -0.7025 -2.2907  0.6033
 2600SOL    HW2 8635   0.489   5.244   2.696  1.5066 -0.4745 -0.8117
 2601SOL     OW 8636   3.920   2.148   0.274 -0.0460  0.2476 -0.3954
 2601SOL    HW1 8637   3.951   2.131   0.363 -2.3878 -0.0613  0.4172
 2601SOL    HW2 8638   3.928   2.064   0.230  0.3907  0.2107 -0.2525
 2602SOL     OW 8639   5.324   6.852   2.878 -0.5234  0.3430  0.2140
 2602SOL    HW1 8640   5.268   6.873   2.953 -1.2381  1.1275 -0.5149
 2602SOL    HW2 8641   5.277   6.887   2.802  0.7925  0.7295 -0.4669
 2603SOL     OW 8642   2.900   7.766   3.139 -0.2495 -0.3697 -0.1411
 2603SOL    HW1 8643   2.979   7.779   3.191 -0.6293  1.1476  0.0923
 2603SOL    HW2 8644   2.829   7.803   3.192 -0.8712 -0.1664 -1.0775
 2604SOL     OW 8645   3.467   3.611   2.468  0.0603 -0.3046 -0.5144
 2604SOL    HW1 8646   3.447   3.670   2.395  0.3622 -0.1631 -0.4887
 2604SOL    HW2 8647   3.522   3.664   2.527 -1.0185 -0.0810  0.3271
 2605SOL     OW 8648   3.152   0.727   0.743 -0.2220 -0.4165 -0.0543
 2605SOL    HW1 8649   3.192   0.799   0.792 -0.7135 -1.1958  1.5522
 2605SOL    HW2 8650   3.187   0.648   0.784  0.2572 -1.1252 -1.7523
 2606SOL     OW 8651   0.507   4.869   1.434 -0.6144 -0.2919 -0.3607
 2606SOL    HW1 8652   0.506   4.886   1.340  1.1621 -1.7153 -0.6912
 2606SOL    HW2 8653   0.510   4.956   1.474  1.3175  0.3492 -1.7276
 2607SOL     OW 8654   1.524   5.555   7.665  0.0448 -0.7356 -0.4884
 2607SOL    HW1 8655   1.528   5.473   7.715  0.3261 -1.2045 -1.2536
 2607SOL    HW2 8656   1.615   5.574   7.643 -0.0649 -0.4792 -0.7269
 2608SOL     OW 8657   7.102   0.656   5.733  0.1037  0.0256  0.2169
 2608SOL    HW1 8658   7.053   0.737   5.744  0.2444  0.1335  0.0635
 2608SOL    HW2 8659   7.047   0.588   5.771 -0.2743  0.1097 -0.1696
 2609SOL     OW 8660   1.800   1.374   3.801 -0.4439  0.3013 -0.0146
 2609SOL    HW1 8661   1.726   1.369   3.861 -0.3064  0.8065  0.2020
 2609SOL    HW2 8662   1.876   1.352   3.855 -0.4252 -0.1871 -0.2294
 2610SOL     OW 8663   4.074   6.261   3.041  0.2472 -0.0855  0.3319
 2610SOL    HW1 8664   3.987   6.257   3.001  0.2861 -0.4921  0.2832
 2610SOL    HW2 8665   4.127   6.308   2.977  0.1062  0.0173  0.2877
 2611SOL     OW 8666   6.650   4.830   6.752  0.2006  0.2798 -0.3266
 2611SOL    HW1 8667   6.615   4.849   6.839 -1.3871 -1.0252 -0.6275
 2611SOL    HW2 8668   6.739   4.800   6.767 -0.2797 -0.5906  0.9297
 2612SOL     OW 8669   7.433   7.297   6.015  0.3908  0.6448 -0.3124
 2612SOL    HW1 8670   7.445   7.258   5.929  0.4231 -1.5722  0.6453
 2612SOL    HW2 8671   7.338   7.304   6.024  0.1773 -2.2499  0.7061
 2613SOL     OW 8672   7.722   3.756   7.890 -0.2756  0.1385 -0.1645
 2613SOL    HW1 8673   7.741   3.663   7.877 -2.0151 -0.0640 -1.6262
 2613SOL    HW2 8674   7.636   3.768   7.851 -1.6788  1.6553  3.0100
 2614SOL     OW 8675   4.752   7.677   4.864  0.0883 -0.1598  0.3921
 2614SOL    HW1 8676   4.754   7.581   4.855 -0.4176 -0.1242 -0.1437
 2614SOL    HW2 8677   4.801   7.710   4.789  1.8938 -0.0324  1.5863
 2615SOL     OW 8678   4.219   1.261   1.808  0.2295  1.4118 -0.2089
 2615SOL    HW1 8679   4.252   1.349   1.792 -0.6512  1.8124  0.1261
 2615SOL    HW2 8680   4.165   1.242   1.731 -1.3316  2.0348  0.6987
 2616SOL     OW 8681   2.589   0.175   0.310  0.1868 -0.4545 -0.1289
 2616SOL    HW1 8682   2.508   0.128   0.290  1.1371 -2.2244  0.0061
 2616SOL    HW2 8683   2.589   0.250   0.250 -3.5855  2.1460  2.6679
 2617SOL     OW 8684   4.853   0.572   1.138 -0.1561  0.2920  0.6737
 2617SOL    HW1 8685   4.787   0.638   1.160  0.8491  0.9544  1.8175
 2617SOL    HW2 8686   4.846   0.507   1.208 -0.4339 -0.2917  0.1128
 2618SOL     OW 8687   2.758   3.459   5.477  0.7308 -0.0815 -0.0534
 2618SOL    HW1 8688   2.842   3.479   5.518  0.2562 -1.2051  1.5478
 2618SOL    HW2 8689   2.694   3.511   5.526  0.1827 -1.2789  0.5486
 2619SOL     OW 8690   5.244   3.717   1.133  0.1337 -0.0738 -0.4414
 2619SOL    HW1 8691   5.199   3.644   1.176 -0.7301 -0.7743 -2.3931
 2619SOL    HW2 8692   5.336   3.693   1.133 -0.0455 -0.7741 -0.3017
 2620SOL     OW 8693   4.561   6.037   1.912  0.0461 -0.1455 -0.1883
 2620SOL    HW1 8694   4.535   6.083   1.991  0.4476 -0.2286 -0.0026
 2620SOL    HW2 8695   4.544   6.099   1.841 -0.9288 -0.3066 -0.1145
 2621SOL     OW 8696   6.615   4.423   6.709 -0.4231 -0.3426 -0.3643
 2621SOL    HW1 8697   6.681   4.473   6.661 -2.2302  1.3465 -1.2060
 2621SOL    HW2 8698   6.551   4.397   6.642 -0.5786 -2.0744  0.3991
 2622SOL     OW 8699   3.240   5.403   0.481 -0.1024  0.5888 -0.2559
 2622SOL    HW1 8700   3.206   5.385   0.393  1.2154  0.3297 -0.7490
 2622SOL    HW2 8701   3.335   5.409   0.468  0.3799 -1.8389  1.5219
 2623SOL     OW 8702   1.748   1.418   0.218  0.0602  0.7249 -0.3286
 2623SOL    HW1 8703   1.805   1.457   0.151  0.8274 -0.7413 -0.5638
 2623SOL    HW2 8704   1.717   1.336   0.180  0.4269 -0.0966  1.0559
 2624SOL     OW 8705   1.305   6.954   2.254  0.3787 -0.0177  0.0437
 2624SOL    HW1 8706   1.246   6.997   2.193 -0.1628  0.4684  0.8965
 2624SOL    HW2 8707   1.312   6.864   2.221 -1.9576 -0.4935  0.6766
 2625SOL     OW 8708   6.638   3.956   7.296 -0.1919  0.0669 -0.0698
 2625SOL    HW1 8709   6.722   3.911   7.291  0.1213  0.5373  0.7352
 2625SOL    HW2 8710   6.653   4.027   7.359 -1.1460  0.2491 -0.0374
 2626SOL     OW 8711   6.837   4.152   0.436  0.6964  0.0985  0.1646
 2626SOL    HW1 8712   6.772   4.095   0.478  0.0143  0.7901  0.0662
 2626SOL    HW2 8713   6.906   4.092   0.408  0.4749 -0.5530  0.9724
 2627SOL     OW 8714   1.871   2.632   4.055  0.1493 -0.5423  0.1482
 2627SOL    HW1 8715   1.800   2.692   4.033  0.5522 -0.6945 -1.8288
 2627SOL    HW2 8716   1.948   2.687   4.062  0.1103 -0.5577  0.6873
 2628SOL     OW 8717   0.926   3.280   7.455 -0.3492  0.3919 -0.1572
 2628SOL    HW1 8718   0.895   3.358   7.409 -0.1122  0.5604 -0.0356
 2628SOL    HW2 8719   0.847   3.245   7.498 -0.5186  0.3804 -0.4757
 2629SOL     OW 8720   7.693   2.779   3.456  0.3533 -0.3038  0.2109
 2629SOL    HW1 8721   7.764   2.843   3.470 -0.3714  0.6991 -0.5109
 2629SOL    HW2 8722   7.718   2.704   3.509  0.5766  1.0851  2.1875
 2630SOL     OW 8723   3.272   1.596   6.447  0.5913  0.4650  0.0706
 2630SOL    HW1 8724   3.359   1.614   6.410  0.9090 -0.4699  0.3540
 2630SOL    HW2 8725   3.272   1.503   6.466 -0.7943  0.2709 -0.7240
 2631SOL     OW 8726   3.226   3.880   2.641 -0.0567  0.5041  0.6792
 2631SOL    HW1 8727   3.276   3.959   2.661  0.7643  0.2476 -0.2650
 2631SOL    HW2 8728   3.281   3.808   2.673  0.3406  0.2074 -0.5940
 2632SOL     OW 8729   4.099   3.572   4.807  0.6265  0.3602  0.6538
 2632SOL    HW1 8730   4.054   3.488   4.817 -0.8418  0.9382 -0.6858
 2632SOL    HW2 8731   4.029   3.637   4.800  1.6791  1.4491 -0.2760
 2633SOL     OW 8732   7.828   3.490   0.541  0.5289  0.0564 -0.0797
 2633SOL    HW1 8733   7.873   3.520   0.620 -0.5157 -0.0685  0.5760
 2633SOL    HW2 8734   7.798   3.571   0.499  0.7127  0.1013 -0.1245
 2634SOL     OW 8735   6.243   0.514   5.183 -0.1863  0.1914  0.1396
 2634SOL    HW1 8736   6.228   0.608   5.176 -0.1238  0.3559  1.8779
 2634SOL    HW2 8737   6.263   0.487   5.094  2.0693  2.2295 -0.0719
 2635SOL     OW 8738   1.726   7.219   2.956 -0.7414  0.5669 -0.1341
 2635SOL    HW1 8739   1.651   7.265   2.992 -2.5998 -3.4520  1.7521
 2635SOL    HW2 8740   1.799   7.244   3.013 -1.1290  2.5699 -0.4352
 2636SOL     OW 8741   5.255   0.417   7.129 -0.2072 -0.2202  0.5041
 2636SOL    HW1 8742   5.281   0.507   7.146  0.5052 -0.1893 -0.6769
 2636SOL    HW2 8743   5.163   0.423   7.103 -0.8670 -0.1117  2.6652
 2637SOL     OW 8744   5.360   6.623   3.515 -0.0279  0.6149  0.6335
 2637SOL    HW1 8745   5.294   6.619   3.446  0.8758  1.2593 -0.2829
 2637SOL    HW2 8746   5.439   6.588   3.475  0.9439  2.5431  0.8096
 2638SOL     OW 8747   7.884   4.386   7.537  0.7873  0.2226  0.4726
 2638SOL    HW1 8748   7.977   4.366   7.528  0.6697 -0.4726  0.7766
 2638SOL    HW2 8749   7.846   4.361   7.452  0.5971 -1.1413  0.9360
 2639SOL     OW 8750   6.096   7.701   3.577 -0.1663  0.1233  0.2984
 2639SOL    HW1 8751   6.106   7.614   3.615 -0.7560  0.3169  0.9155
 2639SOL    HW2 8752   6.185   7.725   3.550  0.2082 -0.1936  1.1930
 2640SOL     OW 8753   2.894   0.853   0.481  0.2982 -0.4793  0.0215
 2640SOL    HW1 8754   2.834   0.848   0.406  0.8199 -1.1548 -0.3589
 2640SOL    HW2 8755   2.980   0.833   0.445  0.8968  1.1714  0.4255
 2641SOL     OW 8756   6.031   5.960   0.257 -0.0995 -0.0434 -0.3478
 2641SOL    HW1 8757   5.941   5.982   0.279  0.3077  0.7128  0.6355
 2641SOL    HW2 8758   6.083   5.992   0.331  0.8348 -1.7640 -0.2079
 2642SOL     OW 8759   6.128   0.703   0.758  0.5661 -0.2760 -0.2626
 2642SOL    HW1 8760   6.218   0.731   0.772  0.9779 -1.7636  0.2166
 2642SOL    HW2 8761   6.116   0.707   0.663  1.1013  0.0364 -0.3185
 2643SOL     OW 8762   4.053   1.620   4.856 -0.3478  0.4940  0.2564
 2643SOL    HW1 8763   4.082   1.532   4.834 -1.7040 -0.4326  2.0108
 2643SOL    HW2 8764   3.961   1.612   4.878 -0.5208  2.3538  0.4325
 2644SOL     OW 8765   0.891   4.383   3.454 -0.1600 -0.3743  0.3648
 2644SOL    HW1 8766   0.913   4.290   3.448  0.6848 -0.1295 -0.6220
 2644SOL    HW2 8767   0.975   4.428   3.451 -0.3066  0.3647  3.6246
 2645SOL     OW 8768   2.779   1.642   3.336  0.4643  0.0037 -0.0033
 2645SOL    HW1 8769   2.697   1.593   3.344  0.8566 -0.4640  1.2951
 2645SOL    HW2 8770   2.766   1.697   3.258 -0.9366 -0.3326 -0.0333
 2646SOL     OW 8771   1.894   4.335   3.537  0.1325  0.0046 -0.2640
 2646SOL    HW1 8772   1.934   4.350   3.623  1.4021 -0.5742 -0.7228
 2646SOL    HW2 8773   1.949   4.384   3.476 -1.0352  0.7912 -0.7065
 2647SOL     OW 8774   7.888   4.071   1.092  0.1323 -0.4920  0.3314
 2647SOL    HW1 8775   7.973   4.040   1.125  0.2105 -0.3662  0.2506
 2647SOL    HW2 8776   7.871   4.015   1.016  0.0773 -0.6095  0.4313
 2648SOL     OW 8777   2.268   0.720   2.882  0.2003 -0.4580 -0.9510
 2648SOL    HW1 8778   2.358   0.689   2.880  0.0959 -0.8392 -0.0247
 2648SOL    HW2 8779   2.271   0.800   2.933 -0.1561 -1.0867  0.0841
 2649SOL     OW 8780   2.422   6.054   5.230  0.6448  0.1797 -0.2354
 2649SOL    HW1 8781   2.455   6.000   5.301 -1.2832 -0.1844  0.4480
 2649SOL    HW2 8782   2.416   5.995   5.155  1.3884  0.2215 -0.3315
 2650SOL     OW 8783   5.922   1.909   0.353  0.1432  0.0079  0.2662
 2650SOL    HW1 8784   5.972   1.831   0.329  0.8964  0.1046  1.4540
 2650SOL    HW2 8785   5.903   1.952   0.270  1.3361 -0.4612 -0.2644
 2651SOL     OW 8786   3.036   0.699   1.589 -0.7710  0.3527 -0.8405
 2651SOL    HW1 8787   2.948   0.721   1.560 -1.4991 -0.1037  0.9083
 2651SOL    HW2 8788   3.081   0.783   1.594 -2.0024  0.9691  0.9535
 2652SOL     OW 8789   6.643   4.536   1.658 -0.3847 -0.4084 -0.1441
 2652SOL    HW1 8790   6.657   4.623   1.620 -1.0666  0.5133  1.6169
 2652SOL    HW2 8791   6.731   4.498   1.662  0.1400  0.8183  0.4846
 2653SOL     OW 8792   6.789   4.147   2.128  0.1187 -0.3723 -0.3682
 2653SOL    HW1 8793   6.798   4.131   2.034 -3.0130 -0.3295 -0.7687
 2653SOL    HW2 8794   6.875   4.182   2.154  1.8869 -2.6449 -2.6459
 2654SOL     OW 8795   0.865   7.624   5.138  0.0703 -0.3211  0.0467
 2654SOL    HW1 8796   0.884   7.670   5.220 -1.1701  0.1736  0.0810
 2654SOL    HW2 8797   0.869   7.531   5.161  0.9588 -0.2111  0.3683
 2655SOL     OW 8798   5.312   3.988   1.689  0.0758  0.3407 -0.1453
 2655SOL    HW1 8799   5.248   3.946   1.632  0.3240  1.3375 -1.1946
 2655SOL    HW2 8800   5.377   4.025   1.629  2.1163 -1.3110  0.8977
 2656SOL     OW 8801   6.398   6.368   5.278 -0.5352  0.4467 -0.3664
 2656SOL    HW1 8802   6.430   6.385   5.190  0.4785  1.6845  0.2106
 2656SOL    HW2 8803   6.477   6.358   5.331 -1.1207  0.8224  0.6068
 2657SOL     OW 8804   6.945   3.809   0.664  0.0234  0.3554  0.1156
 2657SOL    HW1 8805   7.030   3.774   0.690  0.6257  1.3400 -0.4839
 2657SOL    HW2 8806   6.942   3.896   0.704 -0.4721  0.5390 -0.3113
 2658SOL     OW 8807   6.396   2.320   4.048  0.4167  0.2781  0.0532
 2658SOL    HW1 8808   6.335   2.392   4.033 -0.5613 -0.9824 -2.7593
 2658SOL    HW2 8809   6.348   2.259   4.103 -0.3503 -0.0395 -0.9373
 2659SOL     OW 8810   3.432   7.141   5.420 -0.0332 -0.0243 -0.5335
 2659SOL    HW1 8811   3.405   7.139   5.328 -0.8049 -0.3597 -0.3169
 2659SOL    HW2 8812   3.435   7.048   5.445 -2.9880  0.0791  0.6220
 2660SOL     OW 8813   1.545   0.476   4.464 -0.1096  0.1877  0.4673
 2660SOL    HW1 8814   1.565   0.382   4.460 -1.2101 -0.0929  1.1489
 2660SOL    HW2 8815   1.627   0.516   4.492  1.4102 -0.1382 -2.9526
 2661SOL     OW 8816   2.491   5.756   4.221  0.1250 -0.3073  0.2918
 2661SOL    HW1 8817   2.552   5.806   4.276 -0.4399  0.5438  0.1720
 2661SOL    HW2 8818   2.531   5.757   4.134  0.3585 -0.4884  0.3970
 2662SOL     OW 8819   1.845   2.347   3.949  0.3336  0.0294 -0.1516
 2662SOL    HW1 8820   1.773   2.400   3.983  0.4759  0.1910 -0.0993
 2662SOL    HW2 8821   1.909   2.411   3.917  0.4398 -0.1133 -0.2244
 2663SOL     OW 8822   5.050   5.783   4.294 -0.1055 -0.8681  0.2081
 2663SOL    HW1 8823   4.996   5.850   4.336  0.9016  0.2939 -0.2949
 2663SOL    HW2 8824   4.990   5.738   4.235 -0.9012 -0.7284  0.8866
 2664SOL     OW 8825   0.931   1.669   2.854 -0.1914 -0.2398  0.6632
 2664SOL    HW1 8826   0.855   1.617   2.827  1.4352 -1.4448 -2.0989
 2664SOL    HW2 8827   0.940   1.736   2.786  1.3746 -0.3369  0.7282
 2665SOL     OW 8828   7.315   5.508   7.720  0.1147 -1.2874 -0.0709
 2665SOL    HW1 8829   7.329   5.518   7.626 -0.6009  2.0024  0.0724
 2665SOL    HW2 8830   7.231   5.463   7.727 -1.8952  1.9830 -1.1659
 2666SOL     OW 8831   7.220   5.221   4.669  0.1497  0.4040  0.0803
 2666SOL    HW1 8832   7.178   5.229   4.754  0.3492 -3.1107  0.6365
 2666SOL    HW2 8833   7.310   5.195   4.689  0.1922 -0.5121 -1.1834
 2667SOL     OW 8834   6.623   0.221   1.751  0.2629  0.1956 -0.0540
 2667SOL    HW1 8835   6.581   0.136   1.734 -0.1654  0.0997  1.3569
 2667SOL    HW2 8836   6.654   0.214   1.841 -0.8036  1.9466  0.4938
 2668SOL     OW 8837   5.708   2.426   1.395  0.4379  0.0608  0.0173
 2668SOL    HW1 8838   5.752   2.417   1.479 -1.5840 -0.1256  1.1236
 2668SOL    HW2 8839   5.694   2.520   1.384  1.2030  0.1343 -0.4134
 2669SOL     OW 8840   1.094   1.752   7.652 -0.4241 -0.3586  0.3744
 2669SOL    HW1 8841   1.102   1.692   7.726  0.4511  0.0836  0.6528
 2669SOL    HW2 8842   1.059   1.833   7.690 -3.5567 -1.2297 -0.2999
 2670SOL     OW 8843   1.752   6.870   7.640 -0.0505 -0.4310  0.3230
 2670SOL    HW1 8844   1.684   6.936   7.654  1.0141  0.4753  1.4946
 2670SOL    HW2 8845   1.707   6.786   7.650 -0.8333  0.1516  2.2274
 2671SOL     OW 8846   6.865   3.814   6.829 -0.2053  0.1929  0.2044
 2671SOL    HW1 8847   6.918   3.802   6.749  0.4596  0.6443  0.5660
 2671SOL    HW2 8848   6.775   3.822   6.797 -0.1324 -1.0456 -0.3968
 2672SOL     OW 8849   0.953   5.438   2.029  0.5900 -0.1715  0.6776
 2672SOL    HW1 8850   1.019   5.490   1.984 -0.8160  1.4685  0.4113
 2672SOL    HW2 8851   0.891   5.502   2.065  0.2349 -1.5470  2.7004
 2673SOL     OW 8852   3.894   0.484   5.172 -0.4959 -0.0580  0.0992
 2673SOL    HW1 8853   3.934   0.441   5.248  0.4412  0.6479  0.0084
 2673SOL    HW2 8854   3.817   0.430   5.153  1.2054 -2.3601 -0.6773
 2674SOL     OW 8855   1.100   2.092   3.778 -0.4866 -0.6645 -0.4157
 2674SOL    HW1 8856   1.018   2.137   3.760  0.4727  1.6981  0.6027
 2674SOL    HW2 8857   1.074   2.005   3.807 -2.5614 -0.3285 -1.1199
 2675SOL     OW 8858   5.067   6.643   4.997  0.6595  0.2781 -0.2325
 2675SOL    HW1 8859   4.979   6.666   4.966  0.6345  0.0346 -0.3443
 2675SOL    HW2 8860   5.060   6.647   5.093 -0.0494 -1.7454 -0.1365
 2676SOL     OW 8861   4.359   4.704   4.838  0.3835  0.1420  0.2646
 2676SOL    HW1 8862   4.302   4.751   4.777  0.1361 -0.1173  0.2904
 2676SOL    HW2 8863   4.303   4.635   4.874  0.7176 -0.1224  0.2863
 2677SOL     OW 8864   7.749   5.554   5.296  0.2473  0.2419 -0.2284
 2677SOL    HW1 8865   7.825   5.537   5.241 -0.7801 -0.1226 -1.5889
 2677SOL    HW2 8866   7.724   5.468   5.330 -0.1885  0.1956 -0.6558
 2678SOL     OW 8867   1.785   4.948   1.046  0.1872 -0.7062  0.3751
 2678SOL    HW1 8868   1.838   5.028   1.045 -0.2280 -0.4333 -0.3573
 2678SOL    HW2 8869   1.801   4.910   1.133  1.0572 -0.2813  0.4109
 2679SOL     OW 8870   2.514   7.766   5.463 -0.3626 -0.8531  0.3288
 2679SOL    HW1 8871   2.460   7.762   5.542  0.5408 -3.3723  0.9258
 2679SOL    HW2 8872   2.464   7.717   5.398 -1.4356  1.8170 -0.9742
 2680SOL     OW 8873   3.238   7.834   0.636  0.0706 -1.1896  0.1443
 2680SOL    HW1 8874   3.313   7.841   0.577 -1.3830  0.0171 -1.7148
 2680SOL    HW2 8875   3.266   7.877   0.717  1.7144 -1.7258 -0.1119
 2681SOL     OW 8876   1.871   4.404   2.431 -0.5580 -0.2504 -0.9139
 2681SOL    HW1 8877   1.885   4.316   2.395 -2.8638 -1.6985  1.4004
 2681SOL    HW2 8878   1.776   4.418   2.425 -0.3208  1.8361 -0.6447
 2682SOL     OW 8879   7.525   7.883   1.862  0.1575 -0.1654 -0.1935
 2682SOL    HW1 8880   7.558   7.917   1.779 -0.1095  1.0366  0.1653
 2682SOL    HW2 8881   7.493   7.961   1.908  1.2974 -0.6470  1.5012
 2683SOL     OW 8882   0.966   2.298   5.876 -0.7847  0.1839  0.0159
 2683SOL    HW1 8883   1.050   2.255   5.862 -1.1512 -0.4725 -0.2080
 2683SOL    HW2 8884   0.902   2.243   5.830 -1.4469  0.2186  0.8474
 2684SOL     OW 8885   4.949   5.637   7.259  0.0644  0.1081  0.4921
 2684SOL    HW1 8886   4.867   5.607   7.299 -0.5443 -1.9474 -1.9973
 2684SOL    HW2 8887   4.922   5.704   7.196  0.6337  1.1363  1.3099
 2685SOL     OW 8888   1.835   0.640   5.698 -0.0908  0.4339 -0.3734
 2685SOL    HW1 8889   1.893   0.633   5.623  2.7836 -0.3523  1.7508
 2685SOL    HW2 8890   1.800   0.552   5.710 -2.4750  1.0439 -2.0573
 2686SOL     OW 8891   0.631   4.383   0.217 -0.1560 -0.2908 -0.6387
 2686SOL    HW1 8892   0.676   4.366   0.134 -0.2489  2.1138 -1.2501
 2686SOL    HW2 8893   0.695   4.432   0.269 -0.2317 -1.4532  0.5970
 2687SOL     OW 8894   4.634   0.023   6.468  0.6466 -0.4928  0.2147
 2687SOL    HW1 8895   4.643   0.010   6.373  0.7101 -0.3732  0.2034
 2687SOL    HW2 8896   4.632   0.118   6.479  1.4076 -0.4917  0.4001
 2688SOL     OW 8897   4.512   3.592   1.979 -0.3022  0.3433 -0.3136
 2688SOL    HW1 8898   4.491   3.589   1.885 -0.5733 -2.5124 -0.2373
 2688SOL    HW2 8899   4.583   3.529   1.990 -1.2150 -0.4225  1.6110
 2689SOL     OW 8900   4.484   2.339   0.464 -0.3375  0.2672 -0.0859
 2689SOL    HW1 8901   4.407   2.297   0.503  0.3584 -1.9174 -0.9372
 2689SOL    HW2 8902   4.544   2.352   0.537 -1.2589  1.5299  0.4988
 2690SOL     OW 8903   6.626   2.394   2.764 -0.4464  0.2653 -0.4921
 2690SOL    HW1 8904   6.667   2.408   2.679  0.6461 -1.3291 -0.2612
 2690SOL    HW2 8905   6.695   2.411   2.828 -1.1303  0.9859  0.0935
 2691SOL     OW 8906   7.329   6.125   7.768  0.7171 -0.1559 -0.4795
 2691SOL    HW1 8907   7.311   6.035   7.792  1.2633 -0.3002 -0.5956
 2691SOL    HW2 8908   7.248   6.156   7.727  0.2090 -0.2973  0.3862
 2692SOL     OW 8909   5.387   6.143   0.812  0.0031 -0.7402  0.2519
 2692SOL    HW1 8910   5.365   6.193   0.891  0.5330 -1.0942  0.6277
 2692SOL    HW2 8911   5.302   6.118   0.776 -0.2454 -0.6309  0.7430
 2693SOL     OW 8912   5.219   7.606   0.230 -0.3909  0.3798  0.0123
 2693SOL    HW1 8913   5.186   7.539   0.170 -1.6507  1.5495 -0.6617
 2693SOL    HW2 8914   5.164   7.598   0.307  0.5463 -0.4302  0.6201
 2694SOL     OW 8915   1.133   5.628   2.844 -0.4845  0.5579 -0.9246
 2694SOL    HW1 8916   1.180   5.566   2.788  0.6205  0.0960  0.4769
 2694SOL    HW2 8917   1.100   5.694   2.783  0.5746  0.0050 -2.1452
 2695SOL     OW 8918   4.252   2.721   1.561 -0.0367  0.5608  1.2317
 2695SOL    HW1 8919   4.159   2.711   1.539  0.1410  0.8115  0.3496
 2695SOL    HW2 8920   4.280   2.798   1.513  0.7616  0.1799  1.0717
 2696SOL     OW 8921   4.884   0.219   7.578  0.0398 -0.0481 -0.1318
 2696SOL    HW1 8922   4.889   0.314   7.578 -1.3148  0.0456  0.4164
 2696SOL    HW2 8923   4.964   0.191   7.622 -0.7632  0.9631  2.1341
 2697SOL     OW 8924   7.484   5.040   6.468  0.0859 -0.3587  0.5556
 2697SOL    HW1 8925   7.463   5.033   6.561  0.3495  1.5026  0.7975
 2697SOL    HW2 8926   7.569   4.997   6.459  0.7481  0.7007  1.4770
 2698SOL     OW 8927   4.954   2.778   2.536  0.1306 -0.1915 -0.0885
 2698SOL    HW1 8928   4.974   2.731   2.617  0.4653 -0.5667 -0.3843
 2698SOL    HW2 8929   4.901   2.717   2.486  0.4016 -0.1773 -0.3933
 2699SOL     OW 8930   3.258   1.943   1.672 -0.0276  0.5227 -0.2750
 2699SOL    HW1 8931   3.344   1.924   1.634  0.1023  0.3392  0.1041
 2699SOL    HW2 8932   3.215   1.858   1.676 -0.1017  0.5670 -0.1558
 2700SOL     OW 8933   7.714   1.085   5.905  0.3348  0.5055  0.0837
 2700SOL    HW1 8934   7.655   1.014   5.879  2.2222 -0.8139 -0.8059
 2700SOL    HW2 8935   7.729   1.070   5.999 -0.9362  1.0626  0.4102
 2701SOL     OW 8936   4.637   3.155   7.574 -0.2370  0.7350  0.0610
 2701SOL    HW1 8937   4.553   3.170   7.529 -0.2139  0.3380 -0.1191
 2701SOL    HW2 8938   4.656   3.239   7.617 -1.0798  0.6154  0.7033
 2702SOL     OW 8939   1.516   7.155   1.942  0.6157 -0.3947  0.3005
 2702SOL    HW1 8940   1.584   7.209   1.901  0.7099 -1.6092 -1.2037
 2702SOL    HW2 8941   1.535   7.161   2.036  1.1414  1.4661  0.1259
 2703SOL     OW 8942   7.671   5.812   7.535  0.2356  0.2986 -0.3901
 2703SOL    HW1 8943   7.617   5.739   7.564 -0.8921  1.4415  0.5232
 2703SOL    HW2 8944   7.759   5.791   7.564 -0.5998  0.7662  2.8733
 2704SOL     OW 8945   7.521   2.754   3.230 -0.2028  0.1689  0.1625
 2704SOL    HW1 8946   7.557   2.741   3.318  1.2836 -2.2710 -0.7331
 2704SOL    HW2 8947   7.429   2.778   3.245 -0.3928 -1.6299  2.3896
 2705SOL     OW 8948   1.429   1.518   0.958  0.4745 -0.6257 -0.6086
 2705SOL    HW1 8949   1.468   1.431   0.950 -1.2172 -1.6659  1.3471
 2705SOL    HW2 8950   1.349   1.513   0.906 -0.0625 -0.5474  0.1970
 2706SOL     OW 8951   6.140   6.061   6.634 -0.0408  0.0820  0.1389
 2706SOL    HW1 8952   6.158   6.071   6.727 -2.2011 -0.4209  0.6765
 2706SOL    HW2 8953   6.068   6.121   6.616 -1.1780 -1.4331 -0.6521
 2707SOL     OW 8954   6.733   0.962   1.002 -0.0532  0.2148 -0.0433
 2707SOL    HW1 8955   6.768   0.903   1.068  0.3648  1.4392  0.8700
 2707SOL    HW2 8956   6.793   1.037   1.002 -0.0098  0.2440 -1.8488
 2708SOL     OW 8957   6.127   5.991   1.217 -0.3447  0.2017 -0.2621
 2708SOL    HW1 8958   6.197   5.937   1.182  0.2192  1.2037 -0.7166
 2708SOL    HW2 8959   6.057   5.929   1.239  0.3084 -0.7042 -0.7043
 2709SOL     OW 8960   6.225   7.199   3.127 -0.3879  0.2972  0.1180
 2709SOL    HW1 8961   6.318   7.220   3.117 -0.2050 -0.6329 -0.2596
 2709SOL    HW2 8962   6.181   7.284   3.125  0.4235  0.7318  0.0181
 2710SOL     OW 8963   7.566   3.384   7.210 -0.3070  0.3051  0.3801
 2710SOL    HW1 8964   7.479   3.390   7.249 -0.9260  1.6243 -1.0626
 2710SOL    HW2 8965   7.614   3.459   7.245 -0.6366  1.0898 -0.7903
 2711SOL     OW 8966   5.855   6.448   7.744  0.4585 -0.2580 -0.3112
 2711SOL    HW1 8967   5.798   6.391   7.693 -0.7537 -0.3564  1.0773
 2711SOL    HW2 8968   5.943   6.409   7.735 -0.4132 -2.7794  1.1232
 2712SOL     OW 8969   3.008   6.757   4.084 -0.3023 -0.5307  0.0800
 2712SOL    HW1 8970   3.041   6.807   4.158  0.4731  0.9519 -1.2135
 2712SOL    HW2 8971   2.915   6.780   4.079  0.0019  0.6599 -0.3792
 2713SOL     OW 8972   1.519   6.784   3.067 -0.2309 -0.2133  1.1339
 2713SOL    HW1 8973   1.462   6.765   2.993 -1.1480  1.1927  1.4441
 2713SOL    HW2 8974   1.587   6.716   3.063 -1.3739 -1.3459  0.1959
 2714SOL     OW 8975   5.833   7.000   7.325  0.6348  0.3788  0.4800
 2714SOL    HW1 8976   5.850   6.924   7.270 -0.9747 -1.4379  2.3579
 2714SOL    HW2 8977   5.738   7.004   7.332  0.7599  1.3441  2.0616
 2715SOL     OW 8978   6.984   0.429   0.718 -0.1047 -0.0083 -0.3033
 2715SOL    HW1 8979   7.040   0.351   0.713 -0.5697 -0.2712 -3.1010
 2715SOL    HW2 8980   6.896   0.394   0.731 -0.4779 -0.1529 -2.6513
 2716SOL     OW 8981   1.165   2.628   0.601 -0.9489  0.2399  0.1992
 2716SOL    HW1 8982   1.155   2.645   0.695  1.5512 -2.2215  1.0361
 2716SOL    HW2 8983   1.105   2.555   0.584  1.6254 -2.2397  1.0177
 2717SOL     OW 8984   5.276   7.648   6.347  0.3039  0.3727  0.2664
 2717SOL    HW1 8985   5.208   7.617   6.286  2.3955  1.4788 -2.8865
 2717SOL    HW2 8986   5.273   7.743   6.339  1.4549  0.4781  0.9765
 2718SOL     OW 8987   6.560   2.150   1.405  0.5599  0.1250 -0.1710
 2718SOL    HW1 8988   6.492   2.088   1.431 -0.0023  1.4854  1.8339
 2718SOL    HW2 8989   6.642   2.102   1.418  0.1395 -0.2303  1.3900
 2719SOL     OW 8990   0.222   6.134   6.964 -0.8509  0.0958  0.4396
 2719SOL    HW1 8991   0.156   6.079   7.006 -0.9226 -1.4128 -1.5446
 2719SOL    HW2 8992   0.188   6.223   6.973 -2.9979 -0.6088 -0.2520
 2720SOL     OW 8993   6.893   3.394   7.548  0.0703 -0.1115  0.7562
 2720SOL    HW1 8994   6.831   3.459   7.513 -0.4954  0.3042  2.4232
 2720SOL    HW2 8995   6.840   3.341   7.607  0.3009 -2.7599 -1.2408
 2721SOL     OW 8996   3.601   2.796   2.204 -0.7055 -0.6105 -0.3108
 2721SOL    HW1 8997   3.600   2.709   2.244 -1.9378 -1.1847 -1.5455
 2721SOL    HW2 8998   3.610   2.779   2.110  1.8908  0.7075 -0.4045
 2722SOL     OW 8999   7.770   6.731   2.239  0.1004 -0.2554  0.3102
 2722SOL    HW1 9000   7.695   6.688   2.280  1.1646 -1.3830  1.1566
 2722SOL    HW2 9001   7.742   6.745   2.148  0.0909 -4.0733 -0.4670
 2723SOL     OW 9002   5.736   5.318   2.118 -0.1791  0.0724 -0.4195
 2723SOL    HW1 9003   5.697   5.355   2.198  0.7370 -1.0375  0.5886
 2723SOL    HW2 9004   5.725   5.386   2.052  0.0235  1.4883  0.9392
 2724SOL     OW 9005   7.319   6.561   6.257  0.7102  0.2348  0.0080
 2724SOL    HW1 9006   7.245   6.592   6.204 -1.1304  0.1629  2.3976
 2724SOL    HW2 9007   7.285   6.554   6.346  3.3076 -0.9123  1.0335
 2725SOL     OW 9008   0.089   1.574   7.592 -0.0075 -0.6192 -0.7187
 2725SOL    HW1 9009   0.002   1.535   7.603  0.0456 -0.5108  0.1259
 2725SOL    HW2 9010   0.071   1.661   7.555 -0.2807 -0.4744 -0.2565
 2726SOL     OW 9011   2.544   1.930   4.906 -0.0624  0.4642  0.4290
 2726SOL    HW1 9012   2.610   1.908   4.971 -1.1805 -0.0852  1.4290
 2726SOL    HW2 9013   2.551   2.025   4.895  0.9875  0.3900  0.3811
 2727SOL     OW 9014   2.598   2.792   2.102 -0.3585 -0.2278 -0.2651
 2727SOL    HW1 9015   2.583   2.698   2.101  1.4147 -0.5381 -0.8789
 2727SOL    HW2 9016   2.620   2.812   2.193 -0.4590 -0.4574 -0.1895
 2728SOL     OW 9017   2.578   3.086   1.699  0.2736 -0.1811  0.0063
 2728SOL    HW1 9018   2.508   3.087   1.765  0.4978 -1.5157  0.3081
 2728SOL    HW2 9019   2.535   3.114   1.618 -0.7484 -1.4183  0.0779
 2729SOL     OW 9020   1.874   7.544   2.122  0.1869  0.4342  0.2054
 2729SOL    HW1 9021   1.909   7.614   2.066  1.2549  0.7652  1.2341
 2729SOL    HW2 9022   1.780   7.546   2.107  0.2927  1.5596 -0.4081
 2730SOL     OW 9023   6.405   2.926   4.363  0.2903  0.4223 -0.3472
 2730SOL    HW1 9024   6.468   2.998   4.374  1.8418 -0.5683 -2.0486
 2730SOL    HW2 9025   6.351   2.954   4.289  0.0804  0.3696 -0.2137
 2731SOL     OW 9026   1.470   7.650   5.070 -0.3019 -0.2396  0.8463
 2731SOL    HW1 9027   1.434   7.738   5.066 -0.6684 -0.4066  0.4373
 2731SOL    HW2 9028   1.491   7.637   5.163 -0.5195  0.1686  0.9535
 2732SOL     OW 9029   4.247   6.360   1.063  1.0167  0.5291 -0.0779
 2732SOL    HW1 9030   4.231   6.420   0.990  0.9902  1.4712  0.6808
 2732SOL    HW2 9031   4.278   6.279   1.022  1.3794  1.1740 -1.0961
 2733SOL     OW 9032   3.672   7.916   2.572 -0.2699  0.3092  0.1121
 2733SOL    HW1 9033   3.686   7.999   2.528  1.7163 -1.2290 -2.4589
 2733SOL    HW2 9034   3.607   7.871   2.517  2.3449 -1.6959 -1.5679
 2734SOL     OW 9035   5.274   3.365   2.048 -0.0892 -0.0173 -0.3007
 2734SOL    HW1 9036   5.364   3.335   2.034 -0.5115 -1.7585  0.4358
 2734SOL    HW2 9037   5.255   3.342   2.139 -1.0200  1.0535 -0.2096
 2735SOL     OW 9038   7.058   6.661   0.669  0.5538 -0.1239 -1.0995
 2735SOL    HW1 9039   7.085   6.708   0.590  1.6062 -0.4364 -0.9331
 2735SOL    HW2 9040   7.128   6.677   0.732 -0.8724  1.1830  0.2267
 2736SOL     OW 9041   7.537   2.374   7.633 -0.1735 -0.1943  1.0550
 2736SOL    HW1 9042   7.572   2.455   7.597  2.8546 -2.2326 -1.0443
 2736SOL    HW2 9043   7.474   2.344   7.567 -0.4727 -0.1013  1.2968
 2737SOL     OW 9044   5.043   2.260   5.780  0.1309  0.0200 -0.0628
 2737SOL    HW1 9045   4.959   2.256   5.735  0.6899  0.9977 -1.2716
 2737SOL    HW2 9046   5.107   2.233   5.713  0.8903  0.5142  0.4444
 2738SOL     OW 9047   6.664   0.843   4.443  0.0609  0.2338 -0.3457
 2738SOL    HW1 9048   6.626   0.757   4.463 -0.0216  0.6228  1.2628
 2738SOL    HW2 9049   6.589   0.901   4.432  0.1386  0.2834 -0.6381
 2739SOL     OW 9050   2.906   0.629   3.735  0.2028  0.5918 -0.1827
 2739SOL    HW1 9051   2.928   0.716   3.769  1.9430  0.0190  0.2837
 2739SOL    HW2 9052   2.839   0.596   3.795 -0.0320  1.3836 -0.0079
 2740SOL     OW 9053   4.640   1.881   5.300  0.4379  0.5474 -0.3355
 2740SOL    HW1 9054   4.669   1.840   5.382  1.4070  1.5461 -0.1556
 2740SOL    HW2 9055   4.569   1.939   5.326 -0.3307 -0.3126 -0.4586
 2741SOL     OW 9056   0.459   5.346   4.198 -0.0351  0.1675  0.6612
 2741SOL    HW1 9057   0.476   5.268   4.146  1.4254  0.8397  0.0898
 2741SOL    HW2 9058   0.364   5.359   4.190 -0.0609 -0.5942 -0.5905
 2742SOL     OW 9059   1.079   2.136   6.528  0.7472  0.5416  0.9776
 2742SOL    HW1 9060   1.103   2.166   6.615  2.3925 -0.3778  0.8887
 2742SOL    HW2 9061   1.122   2.198   6.468 -0.1079  0.9813  0.8057
 2743SOL     OW 9062   2.570   0.739   3.830 -0.7414  0.1691  0.3710
 2743SOL    HW1 9063   2.536   0.804   3.769 -2.3573 -2.0757 -1.3132
 2743SOL    HW2 9064   2.496   0.681   3.846  0.6557 -1.3496  1.6469
 2744SOL     OW 9065   5.755   4.736   0.884 -0.1743 -0.1096 -0.1402
 2744SOL    HW1 9066   5.827   4.781   0.839 -0.2154  0.5172  0.4074
 2744SOL    HW2 9067   5.692   4.718   0.815 -0.4189  1.2084 -0.3007
 2745SOL     OW 9068   1.549   4.477   3.737 -0.1050 -0.3273  0.6325
 2745SOL    HW1 9069   1.480   4.410   3.736  0.4157 -0.8807 -0.7528
 2745SOL    HW2 9070   1.504   4.557   3.764 -1.3912 -0.5969 -0.6020
 2746SOL     OW 9071   3.487   0.109   6.029  0.0957 -0.1512  0.2415
 2746SOL    HW1 9072   3.528   0.093   5.944  1.3397 -0.6025  0.9002
 2746SOL    HW2 9073   3.542   0.175   6.071 -0.0743 -0.4761  0.9954
 2747SOL     OW 9074   6.725   0.502   0.862  0.6738  0.0982  0.3089
 2747SOL    HW1 9075   6.746   0.595   0.852  0.7381  0.3511  2.4049
 2747SOL    HW2 9076   6.630   0.497   0.847  0.7870  0.3591 -0.5468
 2748SOL     OW 9077   5.587   6.284   4.533 -0.6388  0.4086  0.2571
 2748SOL    HW1 9078   5.521   6.269   4.601 -0.6791  1.8368  0.5593
 2748SOL    HW2 9079   5.590   6.379   4.522  1.9891  0.4808  0.8788
 2749SOL     OW 9080   5.107   6.504   1.555  0.9690 -0.6187  0.0815
 2749SOL    HW1 9081   5.084   6.437   1.491 -0.4925  0.9006 -1.0651
 2749SOL    HW2 9082   5.045   6.490   1.627 -0.2383  0.2808 -0.7458
 2750SOL     OW 9083   0.153   2.644   0.302 -0.3219 -0.2755 -0.0817
 2750SOL    HW1 9084   0.105   2.701   0.362 -0.9649  0.8606 -1.5896
 2750SOL    HW2 9085   0.191   2.704   0.237  1.9539 -1.2828  0.2327
 2751SOL     OW 9086   2.996   7.927   4.976  0.6117  0.0196  0.3689
 2751SOL    HW1 9087   3.041   7.885   4.903 -0.1204  0.7702 -0.5452
 2751SOL    HW2 9088   2.956   7.855   5.024  1.0548 -0.4834 -0.0084
 2752SOL     OW 9089   0.719   2.754   7.488  0.0249  0.0191  0.6263
 2752SOL    HW1 9090   0.717   2.830   7.430  0.8889 -0.0506  0.4986
 2752SOL    HW2 9091   0.639   2.705   7.465  0.2565  0.0884 -0.3765
 2753SOL     OW 9092   6.098   0.367   4.482 -0.2663  0.4428 -0.0776
 2753SOL    HW1 9093   6.009   0.334   4.467 -0.1956 -0.4120  1.1607
 2753SOL    HW2 9094   6.155   0.295   4.457  0.0566  0.8242 -0.4406
 2754SOL     OW 9095   7.211   3.645   2.032 -0.0269  0.1663 -0.6944
 2754SOL    HW1 9096   7.138   3.600   2.074 -0.4918  0.9741 -0.6400
 2754SOL    HW2 9097   7.287   3.589   2.051 -0.4498 -0.1460  0.1119
 2755SOL     OW 9098   0.723   6.801   2.934  0.8743  0.5714 -0.1862
 2755SOL    HW1 9099   0.698   6.889   2.909  0.2869  0.4765  0.0502
 2755SOL    HW2 9100   0.651   6.770   2.990 -0.5940 -1.2794 -2.8942
 2756SOL     OW 9101   0.878   4.289   2.003  0.7462  0.0864  0.0206
 2756SOL    HW1 9102   0.927   4.208   1.988  0.0678 -0.2773 -0.2971
 2756SOL    HW2 9103   0.937   4.344   2.055  1.8577  0.0363 -1.1364
 2757SOL     OW 9104   0.648   5.410   2.725 -0.0532  0.1632 -0.3893
 2757SOL    HW1 9105   0.712   5.343   2.749  0.2242  0.9618  1.2994
 2757SOL    HW2 9106   0.626   5.392   2.634 -1.6132 -3.5409  0.5501
 2758SOL     OW 9107   2.720   2.325   3.961  0.5874  0.1758 -0.4038
 2758SOL    HW1 9108   2.805   2.308   3.921  0.6631  0.5774 -0.4155
 2758SOL    HW2 9109   2.661   2.340   3.886  0.7502  1.0284 -0.3727
 2759SOL     OW 9110   6.634   3.488   3.869 -0.0092  0.5053  0.0191
 2759SOL    HW1 9111   6.706   3.547   3.847 -0.4046  0.1949 -2.3712
 2759SOL    HW2 9112   6.648   3.411   3.812 -0.0420 -1.3440  2.3482
 2760SOL     OW 9113   6.116   3.405   6.379  0.3411 -0.0726  0.0533
 2760SOL    HW1 9114   6.051   3.407   6.309  2.0075  0.9933 -1.5621
 2760SOL    HW2 9115   6.162   3.489   6.371  1.6262 -0.6110  1.4019
 2761SOL     OW 9116   0.110   7.231   3.980  0.1617 -0.0768  0.0778
 2761SOL    HW1 9117   0.045   7.268   3.919 -1.0435 -1.6051  0.3840
 2761SOL    HW2 9118   0.170   7.181   3.924  1.2295  1.4612 -0.2239
 2762SOL     OW 9119   1.514   4.328   7.425  0.2854 -0.7131  0.2652
 2762SOL    HW1 9120   1.467   4.393   7.373  0.1697 -1.1373 -0.1746
 2762SOL    HW2 9121   1.549   4.267   7.360  2.2320  0.0922  0.5122
 2763SOL     OW 9122   4.304   4.871   7.564  0.2823  0.2063 -0.1630
 2763SOL    HW1 9123   4.286   4.818   7.486 -2.0099  1.7869 -0.7897
 2763SOL    HW2 9124   4.285   4.813   7.637  2.1839 -1.2130 -0.6834
 2764SOL     OW 9125   3.168   7.226   4.742  0.1693 -0.3653  0.0978
 2764SOL    HW1 9126   3.094   7.271   4.703  0.2502  0.7758  1.1710
 2764SOL    HW2 9127   3.147   7.223   4.836  0.1023 -2.7445  0.0678
 2765SOL     OW 9128   4.599   1.863   3.919 -0.5234  0.0161 -0.0095
 2765SOL    HW1 9129   4.516   1.860   3.967 -0.0508  1.9072  0.9966
 2765SOL    HW2 9130   4.592   1.940   3.862  0.7154  0.4886  0.4466
 2766SOL     OW 9131   1.287   4.781   0.424 -0.1165  0.3301 -0.3491
 2766SOL    HW1 9132   1.222   4.764   0.356 -0.3809  0.3309 -0.0936
 2766SOL    HW2 9133   1.362   4.817   0.376  0.2898 -1.1245 -0.8342
 2767SOL     OW 9134   1.197   4.528   4.814  0.0727  0.0242 -0.4875
 2767SOL    HW1 9135   1.105   4.554   4.816  0.0215  0.5527 -4.2185
 2767SOL    HW2 9136   1.245   4.609   4.835 -0.3166  1.0459 -3.1316
 2768SOL     OW 9137   1.068   1.495   5.165 -0.6207 -0.3233 -0.1300
 2768SOL    HW1 9138   1.037   1.559   5.229  2.1078  2.3078 -1.2570
 2768SOL    HW2 9139   1.123   1.435   5.216 -1.8006 -0.7971  0.6326
 2769SOL     OW 9140   6.652   5.993   5.749  0.3267 -0.0048  0.0885
 2769SOL    HW1 9141   6.674   6.067   5.693 -1.9545  0.1648 -0.6740
 2769SOL    HW2 9142   6.734   5.973   5.795  2.5245 -0.5749 -3.6907
 2770SOL     OW 9143   2.660   6.187   0.869  0.0657 -0.9995 -0.1419
 2770SOL    HW1 9144   2.735   6.225   0.914  0.9561 -0.3141 -2.0768
 2770SOL    HW2 9145   2.585   6.213   0.921  0.6153  3.3345 -1.1325
 2771SOL     OW 9146   6.574   6.344   0.122 -0.4908  0.0700  0.6602
 2771SOL    HW1 9147   6.647   6.405   0.118 -1.5256  1.4362  1.4185
 2771SOL    HW2 9148   6.592   6.289   0.198  1.1759 -1.6398 -0.8605
 2772SOL     OW 9149   2.060   2.976   7.467  0.7718 -0.4048 -0.4879
 2772SOL    HW1 9150   2.041   2.929   7.548 -3.8500 -2.3406 -2.3542
 2772SOL    HW2 9151   2.112   2.915   7.415  0.0906 -0.9111 -0.5745
 2773SOL     OW 9152   2.446   3.479   5.529  0.3093 -0.7630  0.4524
 2773SOL    HW1 9153   2.478   3.391   5.508  1.8084  0.1026 -1.0711
 2773SOL    HW2 9154   2.499   3.507   5.604  1.0045 -0.5333 -0.1143
 2774SOL     OW 9155   5.425   1.856   1.745 -0.3866  0.3355  0.4073
 2774SOL    HW1 9156   5.374   1.797   1.690 -0.2949  0.0086  0.6725
 2774SOL    HW2 9157   5.513   1.819   1.746 -0.3142  0.5071  0.5265
 2775SOL     OW 9158   5.774   4.525   4.868  0.2770 -0.1232 -0.1288
 2775SOL    HW1 9159   5.713   4.579   4.819  0.3566  0.9265  0.9014
 2775SOL    HW2 9160   5.852   4.580   4.879  0.8185 -0.8798 -0.0788
 2776SOL     OW 9161   4.669   1.860   5.962 -0.6183  0.2239  0.0950
 2776SOL    HW1 9162   4.579   1.885   5.983 -0.9600  0.6952 -1.7241
 2776SOL    HW2 9163   4.660   1.788   5.899  0.3272 -0.8609  1.1335
 2777SOL     OW 9164   4.142   6.146   7.822 -0.7955  0.5245 -0.3470
 2777SOL    HW1 9165   4.183   6.185   7.899 -1.3506 -0.0183  0.2333
 2777SOL    HW2 9166   4.072   6.091   7.857  0.5481 -1.7401 -1.0704
 2778SOL     OW 9167   3.861   4.768   4.532 -1.1297 -0.2917  0.0680
 2778SOL    HW1 9168   3.890   4.714   4.605  0.4627 -0.8814 -0.9524
 2778SOL    HW2 9169   3.918   4.744   4.460  0.2241  3.3030 -0.2647
 2779SOL     OW 9170   1.336   5.716   5.672 -0.0922  0.0529 -0.6230
 2779SOL    HW1 9171   1.243   5.697   5.681 -0.2341  0.6679 -0.7167
 2779SOL    HW2 9172   1.350   5.723   5.578 -0.8245  3.8467 -0.6356
 2780SOL     OW 9173   3.036   1.204   0.841 -0.0833 -0.4310  0.1709
 2780SOL    HW1 9174   3.030   1.192   0.936  0.8148 -1.6243  0.0912
 2780SOL    HW2 9175   3.130   1.207   0.823 -0.2456 -0.1696 -0.6881
 2781SOL     OW 9176   3.302   1.551   5.224  0.4449 -0.3575 -0.5366
 2781SOL    HW1 9177   3.280   1.460   5.242  1.9325 -0.7047 -0.3258
 2781SOL    HW2 9178   3.264   1.600   5.297 -1.1832 -0.6552 -1.1354
 2782SOL     OW 9179   1.657   4.422   7.930  0.1861  0.5185  0.4418
 2782SOL    HW1 9180   1.591   4.484   7.900  0.6159  0.4515 -0.6916
 2782SOL    HW2 9181   1.740   4.468   7.919  0.3732  0.4680  1.5091
 2783SOL     OW 9182   7.752   0.906   4.911 -0.1325 -0.0609 -0.0815
 2783SOL    HW1 9183   7.755   0.821   4.866  0.5073 -0.2918  0.3943
 2783SOL    HW2 9184   7.658   0.920   4.926 -0.1930 -1.1898  0.7697
 2784SOL     OW 9185   0.134   1.477   2.184 -0.2422 -0.1652 -0.4396
 2784SOL    HW1 9186   0.116   1.548   2.246 -1.6852 -0.0166 -1.0060
 2784SOL    HW2 9187   0.062   1.415   2.197 -0.6216 -0.0873 -2.0222
 2785SOL     OW 9188   0.147   5.531   0.312  0.4277 -0.0860 -0.0488
 2785SOL    HW1 9189   0.166   5.576   0.395 -2.7331 -1.5663  1.6487
 2785SOL    HW2 9190   0.127   5.601   0.250  0.3918  1.0015  1.1486
 2786SOL     OW 9191   4.007   3.757   1.865  0.5486 -0.0787 -0.4154
 2786SOL    HW1 9192   4.014   3.731   1.957  1.3594  1.7017  0.0623
 2786SOL    HW2 9193   3.937   3.822   1.863  1.0392  0.4493 -0.9249
 2787SOL     OW 9194   4.439   3.323   4.676  0.3216  0.2786  0.3372
 2787SOL    HW1 9195   4.421   3.355   4.764 -0.2506  0.5043  0.1462
 2787SOL    HW2 9196   4.430   3.400   4.620 -2.5549 -0.4255 -0.3225
 2788SOL     OW 9197   2.625   7.125   7.299 -0.6440 -0.5365  0.2378
 2788SOL    HW1 9198   2.673   7.141   7.381 -3.0600  2.0947  1.3412
 2788SOL    HW2 9199   2.686   7.076   7.245  1.2617 -2.0713  3.4361
 2789SOL     OW 9200   5.671   2.218   7.058 -0.0459 -0.1502  0.1061
 2789SOL    HW1 9201   5.730   2.268   7.115 -1.2149  0.1647  1.0857
 2789SOL    HW2 9202   5.711   2.132   7.050  1.2042  0.4571 -0.3184
 2790SOL     OW 9203   2.150   1.385   5.422  0.2343 -0.3666 -0.0596
 2790SOL    HW1 9204   2.166   1.395   5.516  0.8080 -1.3999 -0.0323
 2790SOL    HW2 9205   2.147   1.290   5.408 -2.2287 -0.2715 -0.7008
 2791SOL     OW 9206   0.128   0.485   2.528 -0.1654  0.5581  0.4915
 2791SOL    HW1 9207   0.223   0.500   2.528 -0.3087  1.5390 -0.5032
 2791SOL    HW2 9208   0.090   0.570   2.505 -1.2380 -0.0971 -0.2350
 2792SOL     OW 9209   3.988   4.328   7.099  0.2519  0.4201 -0.0975
 2792SOL    HW1 9210   4.084   4.328   7.096  0.4937  1.4060  3.3235
 2792SOL    HW2 9211   3.965   4.410   7.142 -2.1316 -0.0256 -0.3795
 2793SOL     OW 9212   3.074   7.803   5.358  0.0069  0.6264  0.3825
 2793SOL    HW1 9213   3.113   7.887   5.332  0.9072  0.1637  0.1962
 2793SOL    HW2 9214   3.020   7.825   5.434 -2.3029  1.9204 -1.5028
 2794SOL     OW 9215   6.340   1.155   5.461 -0.3686 -0.2186  0.3921
 2794SOL    HW1 9216   6.270   1.161   5.526 -0.7443 -1.0570  0.0794
 2794SOL    HW2 9217   6.318   1.221   5.395 -0.3091  0.2197  0.8089
 2795SOL     OW 9218   3.205   5.264   6.389 -0.5101 -0.4232  0.3388
 2795SOL    HW1 9219   3.267   5.325   6.427 -1.8797  0.8399  0.6284
 2795SOL    HW2 9220   3.170   5.309   6.312 -3.7683  0.5458  2.2247
 2796SOL     OW 9221   0.438   4.524   2.608  0.4921 -0.3508  0.3454
 2796SOL    HW1 9222   0.372   4.586   2.576  0.6758 -0.9650 -1.3143
 2796SOL    HW2 9223   0.394   4.477   2.678 -1.4573 -1.7656 -1.6627
 2797SOL     OW 9224   1.980   1.900   1.910 -0.3728 -0.1920  0.1596
 2797SOL    HW1 9225   2.022   1.817   1.932 -0.0784  0.2841  1.4925
 2797SOL    HW2 9226   1.932   1.924   1.988 -0.8869  0.6435 -0.3943
 2798SOL     OW 9227   6.141   3.125   6.032 -0.0259 -0.2168  0.0914
 2798SOL    HW1 9228   6.102   3.124   6.119  0.1665 -0.1838  0.1799
 2798SOL    HW2 9229   6.147   3.218   6.009 -2.0256 -0.2889 -0.8539
 2799SOL     OW 9230   5.481   1.252   0.742  0.4295 -0.2985  0.0716
 2799SOL    HW1 9231   5.498   1.182   0.679  1.6948  1.0097 -1.1230
 2799SOL    HW2 9232   5.405   1.298   0.707 -0.3932 -1.0260  0.8491
 2800SOL     OW 9233   1.130   7.271   5.071  0.6977  0.1603  0.6774
 2800SOL    HW1 9234   1.050   7.255   5.122 -1.1924  3.5514 -0.8804
 2800SOL    HW2 9235   1.141   7.192   5.018 -1.1597 -0.6982  1.4720
 2801SOL     OW 9236   0.417   0.243   4.679  0.0992  0.3600 -0.1822
 2801SOL    HW1 9237   0.489   0.303   4.700  0.7489  0.5161 -2.5382
 2801SOL    HW2 9238   0.355   0.297   4.630  0.5345 -0.7275 -2.0369
 2802SOL     OW 9239   7.789   0.910   2.300 -0.1353 -0.1840  0.2454
 2802SOL    HW1 9240   7.856   0.969   2.334 -0.2954  0.9861 -1.3204
 2802SOL    HW2 9241   7.838   0.848   2.246 -0.0615 -0.9330  1.1634
 2803SOL     OW 9242   4.171   7.182   2.617 -0.1677 -0.7953  0.2800
 2803SOL    HW1 9243   4.120   7.263   2.611  0.6540 -0.3542 -0.9169
 2803SOL    HW2 9244   4.246   7.205   2.671  0.1207 -0.7217 -0.1482
 2804SOL     OW 9245   1.591   5.993   0.278  0.5873 -0.1337  0.0979
 2804SOL    HW1 9246   1.655   6.064   0.277  1.2902 -0.7408  0.2186
 2804SOL    HW2 9247   1.559   5.987   0.188 -0.4934  1.2082  0.3748
 2805SOL     OW 9248   4.732   4.280   2.947 -0.4378 -0.8013 -0.0640
 2805SOL    HW1 9249   4.675   4.282   2.870  0.8612 -1.3919 -1.0847
 2805SOL    HW2 9250   4.698   4.208   3.000 -1.4625 -0.2695  0.0094
 2806SOL     OW 9251   2.374   6.875   4.926  0.2649 -0.2547 -0.0047
 2806SOL    HW1 9252   2.289   6.848   4.892 -0.3021 -0.1484  1.2605
 2806SOL    HW2 9253   2.361   6.878   5.021  1.2197  1.3388  0.0960
 2807SOL     OW 9254   6.790   5.145   6.395  0.3230  0.2333 -0.3206
 2807SOL    HW1 9255   6.788   5.240   6.389 -0.4932  0.2142 -0.5255
 2807SOL    HW2 9256   6.849   5.117   6.324  1.0657  0.6088  0.1449
 2808SOL     OW 9257   0.795   0.158   3.820  0.3651 -0.7726  0.4548
 2808SOL    HW1 9258   0.741   0.092   3.865 -0.1366 -0.7959 -0.1720
 2808SOL    HW2 9259   0.761   0.242   3.850 -0.3245 -0.7816 -0.2784
 2809SOL     OW 9260   4.750   2.167   0.654 -0.2776  0.4146  0.1355
 2809SOL    HW1 9261   4.700   2.087   0.673 -0.7513  0.9475  1.2548
 2809SOL    HW2 9262   4.842   2.139   0.657 -0.3901  0.1044  1.6451
 2810SOL     OW 9263   1.229   1.613   4.348 -0.0940  0.1770 -0.2748
 2810SOL    HW1 9264   1.256   1.537   4.400 -0.8289  0.4209  0.4828
 2810SOL    HW2 9265   1.134   1.619   4.363 -0.3616  0.1481 -1.7858
 2811SOL     OW 9266   6.965   3.343   7.020  0.2590  0.1433  0.5383
 2811SOL    HW1 9267   7.059   3.339   6.999  0.1349 -0.7038  0.1191
 2811SOL    HW2 9268   6.924   3.283   6.958 -0.6690  1.1445  0.1623
 2812SOL     OW 9269   3.625   0.413   4.796 -0.4966 -0.0967 -0.4209
 2812SOL    HW1 9270   3.680   0.340   4.824 -0.1546  0.2582 -0.1586
 2812SOL    HW2 9271   3.536   0.379   4.802 -0.5736  0.3873  2.5402
 2813SOL     OW 9272   4.626   5.054   1.079 -0.4836 -0.3208 -0.1590
 2813SOL    HW1 9273   4.701   5.004   1.048 -0.3101  1.0394 -2.1105
 2813SOL    HW2 9274   4.598   5.106   1.003 -0.9313  2.1803  1.5763
 2814SOL     OW 9275   6.126   4.801   5.181  0.0453 -0.0076 -0.0236
 2814SOL    HW1 9276   6.176   4.724   5.153  0.2446 -0.0216  0.3746
 2814SOL    HW2 9277   6.061   4.767   5.241 -0.0175  0.1039 -0.0283
 2815SOL     OW 9278   4.692   5.285   2.174 -0.5063 -0.5180 -0.2760
 2815SOL    HW1 9279   4.705   5.205   2.123 -1.6739  0.0476 -1.5263
 2815SOL    HW2 9280   4.776   5.300   2.218  0.2938 -1.4386 -1.4483
 2816SOL     OW 9281   4.872   5.443   4.348 -0.2505  0.2056  0.7600
 2816SOL    HW1 9282   4.808   5.378   4.319 -0.6657  1.0057 -0.1752
 2816SOL    HW2 9283   4.956   5.412   4.312 -0.6935  0.9728 -1.0268
 2817SOL     OW 9284   7.409   6.218   5.927 -0.1176 -0.4382  0.0746
 2817SOL    HW1 9285   7.393   6.195   5.835 -0.5417 -0.7995  0.2386
 2817SOL    HW2 9286   7.469   6.151   5.958 -0.3851 -0.6176  0.2064
 2818SOL     OW 9287   6.060   6.900   6.433  0.1163  0.0236  0.2129
 2818SOL    HW1 9288   6.067   6.877   6.526  0.7138  0.8880  0.3877
 2818SOL    HW2 9289   6.099   6.987   6.426  0.4081 -0.1751 -0.9083
 2819SOL     OW 9290   2.091   7.825   7.104 -0.1149  0.0533 -0.0514
 2819SOL    HW1 9291   2.146   7.875   7.164  0.7576  0.0707 -0.8437
 2819SOL    HW2 9292   2.058   7.890   7.042  0.7865 -0.2788 -0.9087
 2820SOL     OW 9293   3.786   6.369   3.892 -0.1215  0.1773  0.1380
 2820SOL    HW1 9294   3.693   6.391   3.896 -0.2157 -0.1041 -0.3972
 2820SOL    HW2 9295   3.823   6.433   3.832  0.0350  0.2959  0.3594
 2821SOL     OW 9296   2.175   5.750   0.158  0.1584 -0.9801 -0.0791
 2821SOL    HW1 9297   2.174   5.761   0.253 -0.4881 -2.6798  0.1501
 2821SOL    HW2 9298   2.256   5.792   0.130 -0.1530  0.4679  1.0779
 2822SOL     OW 9299   5.306   4.778   0.997  0.0444  0.3940 -0.5443
 2822SOL    HW1 9300   5.301   4.761   1.091 -0.1166  1.0481 -0.4254
 2822SOL    HW2 9301   5.251   4.711   0.957  1.7821 -1.2257 -0.3571
 2823SOL     OW 9302   2.842   1.430   2.741  0.1811  0.0266  0.5994
 2823SOL    HW1 9303   2.899   1.477   2.801  1.2538 -0.0683 -0.3274
 2823SOL    HW2 9304   2.835   1.486   2.664 -1.9736  0.6045  1.1268
 2824SOL     OW 9305   6.776   2.182   6.854  0.1469  0.1115 -0.2211
 2824SOL    HW1 9306   6.768   2.187   6.949  1.1259  0.9489 -0.1617
 2824SOL    HW2 9307   6.810   2.267   6.828 -1.6753  0.5111 -1.5250
 2825SOL     OW 9308   4.361   1.925   6.507  0.5607 -0.3833 -0.2213
 2825SOL    HW1 9309   4.294   1.983   6.542  0.4376 -0.2506 -0.6713
 2825SOL    HW2 9310   4.441   1.947   6.556 -0.0607 -1.6294  1.4498
 2826SOL     OW 9311   2.505   6.286   2.770 -0.5648 -0.5996 -0.4296
 2826SOL    HW1 9312   2.571   6.298   2.701 -0.9350 -0.0538 -0.6954
 2826SOL    HW2 9313   2.515   6.195   2.797 -1.0905 -1.1182 -1.8977
 2827SOL     OW 9314   6.168   7.142   6.522  0.1289  0.4327  0.0885
 2827SOL    HW1 9315   6.207   7.170   6.605 -0.1327 -1.0576  0.7404
 2827SOL    HW2 9316   6.091   7.197   6.512  0.3448  0.8529  0.6797
 2828SOL     OW 9317   6.947   6.228   4.003 -0.2003 -0.0336  0.0169
 2828SOL    HW1 9318   6.989   6.313   4.017 -0.2859 -0.1314  0.9182
 2828SOL    HW2 9319   6.855   6.244   4.024 -0.3365 -0.1920 -0.4553
 2829SOL     OW 9320   1.970   5.968   3.017 -0.2113  0.4506 -0.2360
 2829SOL    HW1 9321   1.969   5.896   2.954  1.3883  2.0425 -2.2435
 2829SOL    HW2 9322   2.052   5.956   3.066 -0.0015  0.8167 -0.4920
 2830SOL     OW 9323   6.951   0.578   1.546 -0.1917 -0.1107 -0.1368
 2830SOL    HW1 9324   6.943   0.588   1.641  1.6711 -0.1226  0.0480
 2830SOL    HW2 9325   6.911   0.657   1.510 -2.3963 -0.8344  0.5474
 2831SOL     OW 9326   6.918   2.325   2.416  0.5257  0.0299  0.2583
 2831SOL    HW1 9327   6.870   2.401   2.449 -0.0196 -0.4648  0.6421
 2831SOL    HW2 9328   6.851   2.272   2.372  1.2864  0.7895 -1.9023
 2832SOL     OW 9329   5.247   0.065   4.786 -0.0389 -0.1155  0.4619
 2832SOL    HW1 9330   5.154   0.082   4.775 -0.0591 -0.5745 -0.1206
 2832SOL    HW2 9331   5.291   0.131   4.733  0.0192  0.8801  1.6970
 2833SOL     OW 9332   2.956   3.710   1.218  0.1657  0.0049 -0.0201
 2833SOL    HW1 9333   2.916   3.761   1.148  0.1893 -1.4785 -1.1582
 2833SOL    HW2 9334   2.998   3.637   1.174  0.0279 -1.0796  1.5467
 2834SOL     OW 9335   7.854   7.118   4.193 -0.2080 -0.6136 -0.0432
 2834SOL    HW1 9336   7.873   7.194   4.137 -1.1751 -0.0750  0.3459
 2834SOL    HW2 9337   7.936   7.102   4.240 -0.0577  0.3367  0.0381
 2835SOL     OW 9338   2.541   3.229   6.576 -0.1010  0.1884 -0.5593
 2835SOL    HW1 9339   2.461   3.239   6.524  0.1341  1.0518 -0.7681
 2835SOL    HW2 9340   2.546   3.308   6.629  0.5223  0.0651 -0.4208
 2836SOL     OW 9341   5.518   0.622   5.669  0.3356 -0.9860 -0.1879
 2836SOL    HW1 9342   5.511   0.717   5.660  3.1177 -0.7491 -0.6465
 2836SOL    HW2 9343   5.538   0.608   5.761  1.5102 -0.9662 -0.4269
 2837SOL     OW 9344   4.895   4.317   2.381  0.0904  0.0181  0.1235
 2837SOL    HW1 9345   4.838   4.243   2.402  0.0008  0.0073 -0.1631
 2837SOL    HW2 9346   4.953   4.285   2.313  0.4228  0.0393  0.3920
 2838SOL     OW 9347   6.691   2.122   5.189  0.0189 -0.4698  0.2056
 2838SOL    HW1 9348   6.736   2.141   5.271  0.6677 -4.5177  1.0179
 2838SOL    HW2 9349   6.756   2.140   5.121  1.7279 -2.6774  1.1113
 2839SOL     OW 9350   1.031   5.448   5.001  0.1263  0.2862 -0.4935
 2839SOL    HW1 9351   1.079   5.496   4.933 -1.7603  1.6286 -0.9395
 2839SOL    HW2 9352   1.003   5.515   5.063  0.1879 -0.6940  0.6312
 2840SOL     OW 9353   6.781   2.115   0.105  0.3344 -0.0716  1.0998
 2840SOL    HW1 9354   6.689   2.104   0.128  0.4531  0.0109  1.6386
 2840SOL    HW2 9355   6.818   2.164   0.179  0.6867  0.3944  0.6188
 2841SOL     OW 9356   6.146   0.210   7.748  0.1745 -0.4308  0.3792
 2841SOL    HW1 9357   6.154   0.302   7.724  1.2485 -0.7760 -0.6887
 2841SOL    HW2 9358   6.101   0.169   7.674  0.4915 -0.9159  0.4484
 2842SOL     OW 9359   2.903   1.350   3.060 -0.4230 -0.4151 -0.3073
 2842SOL    HW1 9360   2.940   1.310   2.981  0.1259 -0.0269 -0.2479
 2842SOL    HW2 9361   2.910   1.282   3.127 -0.4365 -0.5708 -0.4631
 2843SOL     OW 9362   4.692   1.473   0.576  0.3204 -0.1488  0.2093
 2843SOL    HW1 9363   4.642   1.462   0.496 -2.4893 -1.5111  1.9857
 2843SOL    HW2 9364   4.742   1.392   0.584 -1.9922 -1.5802  1.3712
 2844SOL     OW 9365   0.204   1.585   3.916  0.7200 -0.1827 -0.7621
 2844SOL    HW1 9366   0.288   1.545   3.894  0.8787 -1.1540  1.4375
 2844SOL    HW2 9367   0.139   1.522   3.887  0.9457 -1.7418  1.8371
 2845SOL     OW 9368   2.619   3.332   0.397 -0.2747 -0.2919 -0.7983
 2845SOL    HW1 9369   2.706   3.303   0.424 -0.6402 -1.1419 -0.5233
 2845SOL    HW2 9370   2.598   3.277   0.321 -1.5750 -1.8193  0.6094
 2846SOL     OW 9371   3.288   5.478   4.662 -0.3464 -0.2214  0.0358
 2846SOL    HW1 9372   3.331   5.418   4.723  2.0431  0.4253 -0.8865
 2846SOL    HW2 9373   3.225   5.526   4.716 -1.2179 -2.4298  1.0977
 2847SOL     OW 9374   0.827   4.262   5.792  0.1659 -0.1422  0.1219
 2847SOL    HW1 9375   0.785   4.215   5.864  0.6832 -1.1840 -0.2400
 2847SOL    HW2 9376   0.846   4.349   5.828 -0.9324 -0.1494  0.7532
 2848SOL     OW 9377   3.637   7.577   1.356 -0.0968  0.6899  0.0489
 2848SOL    HW1 9378   3.730   7.557   1.363 -0.3272 -0.5206 -0.2180
 2848SOL    HW2 9379   3.619   7.576   1.262 -0.1146  2.2572  0.0098
 2849SOL     OW 9380   0.059   7.451   5.429 -0.5808 -0.0432 -0.2579
 2849SOL    HW1 9381   0.125   7.518   5.445 -2.4946  1.4968  1.7977
 2849SOL    HW2 9382   0.023   7.473   5.343 -0.7396  1.2423  0.1084
 2850SOL     OW 9383   2.879   5.772   4.167  0.3438  0.2788 -0.2345
 2850SOL    HW1 9384   2.861   5.866   4.170  0.4101  0.3504 -1.5168
 2850SOL    HW2 9385   2.823   5.735   4.235 -1.2898  1.0154 -1.1213
 2851SOL     OW 9386   1.579   1.362   2.001  0.4861  0.1808  0.5619
 2851SOL    HW1 9387   1.528   1.395   1.927  1.2164 -0.4810 -0.2593
 2851SOL    HW2 9388   1.548   1.272   2.014 -0.4374  0.6469  1.8141
 2852SOL     OW 9389   0.301   4.814   1.830 -0.5810  0.2995 -0.3210
 2852SOL    HW1 9390   0.222   4.765   1.856  0.6609 -1.2783  0.6783
 2852SOL    HW2 9391   0.318   4.786   1.740 -2.1036  2.0002 -1.2011
 2853SOL     OW 9392   6.756   5.996   1.458  0.1625  0.0200  0.0022
 2853SOL    HW1 9393   6.803   6.009   1.376 -0.9739 -0.6412 -0.7722
 2853SOL    HW2 9394   6.664   5.989   1.433 -0.0373 -2.3023  1.0669
 2854SOL     OW 9395   0.275   2.235   2.745  0.6984  0.1913  0.6528
 2854SOL    HW1 9396   0.218   2.174   2.699  0.7362 -0.5167  1.5234
 2854SOL    HW2 9397   0.248   2.321   2.713  1.6063 -0.3243 -1.6560
 2855SOL     OW 9398   6.756   2.020   5.689 -0.5868 -0.0497 -0.5154
 2855SOL    HW1 9399   6.781   1.931   5.714 -1.4578 -0.4672 -1.0834
 2855SOL    HW2 9400   6.715   2.011   5.603 -0.7703  0.8902 -0.5412
 2856SOL     OW 9401   4.217   7.157   5.115 -0.1591 -0.3039 -0.0397
 2856SOL    HW1 9402   4.308   7.131   5.134 -0.0221 -0.3461 -0.7410
 2856SOL    HW2 9403   4.168   7.131   5.193  0.8256  1.8757  1.4059
 2857SOL     OW 9404   0.478   1.960   6.836  0.0828  0.7604  0.1085
 2857SOL    HW1 9405   0.396   1.985   6.793 -0.3481  1.0061  1.0542
 2857SOL    HW2 9406   0.520   1.899   6.775 -1.1962 -0.0323 -0.0077
 2858SOL     OW 9407   6.249   0.200   6.118  0.3348  0.2228  0.2640
 2858SOL    HW1 9408   6.173   0.141   6.117  0.2341  0.3110 -2.4227
 2858SOL    HW2 9409   6.222   0.275   6.066  2.9018 -0.7308 -2.7341
 2859SOL     OW 9410   3.609   1.234   5.431 -0.0577  0.1398 -0.3209
 2859SOL    HW1 9411   3.537   1.171   5.433 -1.2235  1.3853  2.2185
 2859SOL    HW2 9412   3.579   1.302   5.371 -0.8327  0.3798  0.3035
 2860SOL     OW 9413   4.182   4.545   3.609 -0.1128  0.8631  0.3282
 2860SOL    HW1 9414   4.249   4.594   3.561 -0.0206  0.7333  0.3229
 2860SOL    HW2 9415   4.111   4.608   3.622 -0.4755  0.6824 -0.6770
 2861SOL     OW 9416   0.263   5.192   3.163 -0.4650 -0.5358  0.1039
 2861SOL    HW1 9417   0.291   5.255   3.230 -0.7005  0.0040 -0.2971
 2861SOL    HW2 9418   0.294   5.107   3.196  0.1572 -0.1714  0.4868
 2862SOL     OW 9419   5.476   7.400   3.046 -0.5204 -0.1866 -1.3834
 2862SOL    HW1 9420   5.421   7.431   3.117 -1.5895 -1.3771 -1.6599
 2862SOL    HW2 9421   5.539   7.341   3.088 -0.9308 -0.6195 -1.3754
 2863SOL     OW 9422   4.039   7.082   7.939 -0.1969 -0.2926 -0.0093
 2863SOL    HW1 9423   3.989   7.035   8.006  0.8191 -0.4835  0.6317
 2863SOL    HW2 9424   4.019   7.036   7.858 -2.9578  1.0726 -0.2400
 2864SOL     OW 9425   5.509   5.504   3.923  0.1274  0.2955 -0.0215
 2864SOL    HW1 9426   5.574   5.543   3.863  1.5213 -2.3538 -0.3861
 2864SOL    HW2 9427   5.562   5.458   3.988 -1.4039 -0.7772  0.5102
 2865SOL     OW 9428   0.659   3.050   6.715 -0.0897  0.0384 -0.0874
 2865SOL    HW1 9429   0.681   3.119   6.652 -1.0367 -0.6518 -1.2197
 2865SOL    HW2 9430   0.580   3.081   6.759 -0.5578 -0.3143 -0.6474
 2866SOL     OW 9431   6.181   5.021   5.315  0.1313 -0.4123  0.3736
 2866SOL    HW1 9432   6.175   4.948   5.253 -0.4223 -0.5556  0.5965
 2866SOL    HW2 9433   6.275   5.030   5.331  0.2018 -1.1388  0.4148
 2867SOL     OW 9434   1.394   2.510   4.099 -0.7741  0.5352 -0.4743
 2867SOL    HW1 9435   1.390   2.574   4.170  0.1562 -0.3973  0.4534
 2867SOL    HW2 9436   1.311   2.463   4.104 -0.3593 -0.1165  0.5880
 2868SOL     OW 9437   0.413   4.619   4.725  0.7172 -0.2823  0.1567
 2868SOL    HW1 9438   0.343   4.648   4.666  0.6038 -0.4653  0.1997
 2868SOL    HW2 9439   0.376   4.628   4.812  0.9150  0.0663  0.2032
 2869SOL     OW 9440   0.580   5.785   1.835 -0.4476 -0.1395  0.3929
 2869SOL    HW1 9441   0.667   5.793   1.874 -1.1843  1.5736  1.8164
 2869SOL    HW2 9442   0.596   5.792   1.741  0.8961  1.0461  0.6611
 2870SOL     OW 9443   5.592   7.944   5.783 -0.0555 -0.1176  0.0187
 2870SOL    HW1 9444   5.657   7.888   5.825 -1.0084 -1.2558  0.0532
 2870SOL    HW2 9445   5.509   7.896   5.792 -0.7745  0.9243 -0.6795
 2871SOL     OW 9446   6.090   4.097   0.907  0.1892  0.8444  0.1758
 2871SOL    HW1 9447   6.028   4.158   0.948  1.2622  2.2849 -0.2454
 2871SOL    HW2 9448   6.078   4.015   0.954  0.3266  2.0094  2.3768
 2872SOL     OW 9449   7.545   1.076   3.329 -0.0518  0.0503 -0.1988
 2872SOL    HW1 9450   7.496   1.025   3.265  0.7421 -0.7345 -0.1883
 2872SOL    HW2 9451   7.607   1.127   3.277 -1.7926  2.1849 -0.3585
 2873SOL     OW 9452   0.899   7.686   6.779  0.0441 -0.1750  0.2456
 2873SOL    HW1 9453   0.951   7.605   6.777  0.4026  0.0326  0.9450
 2873SOL    HW2 9454   0.857   7.689   6.693 -0.3502 -1.3523  0.3755
 2874SOL     OW 9455   7.778   0.410   5.656  0.2058 -0.2018 -0.4423
 2874SOL    HW1 9456   7.760   0.325   5.617 -0.1489 -0.0907 -0.5206
 2874SOL    HW2 9457   7.819   0.389   5.740  0.1044 -0.4516 -0.4545
 2875SOL     OW 9458   5.750   2.405   5.041  0.3326  0.2337  0.0124
 2875SOL    HW1 9459   5.714   2.484   5.082  0.5756  1.1004 -1.3556
 2875SOL    HW2 9460   5.677   2.367   4.993  0.4501  0.1714 -0.1192
 2876SOL     OW 9461   1.978   0.659   3.096  0.5600  0.0854  0.5220
 2876SOL    HW1 9462   2.002   0.694   3.182  0.6990  0.3376  0.3839
 2876SOL    HW2 9463   2.057   0.612   3.067 -0.3158 -2.2696  1.6513
 2877SOL     OW 9464   6.645   5.237   3.513 -0.1073  0.1087  0.2531
 2877SOL    HW1 9465   6.591   5.158   3.524  1.4631 -1.0623 -0.1220
 2877SOL    HW2 9466   6.648   5.250   3.418 -1.4449  1.4417  0.3604
 2878SOL     OW 9467   3.218   6.952   2.324  0.1732 -0.2506 -0.1090
 2878SOL    HW1 9468   3.293   6.940   2.382  0.7773  0.4017 -0.7441
 2878SOL    HW2 9469   3.237   6.896   2.249 -1.0008 -1.7529  0.6423
 2879SOL     OW 9470   0.830   7.357   6.824 -0.0935  0.0450 -0.2435
 2879SOL    HW1 9471   0.923   7.367   6.841 -0.1004  3.0534 -1.3691
 2879SOL    HW2 9472   0.826   7.322   6.735 -0.0374  0.2377 -0.3218
 2880SOL     OW 9473   5.011   5.438   2.183 -0.6414 -0.1562  0.1686
 2880SOL    HW1 9474   5.027   5.528   2.155  1.1197 -0.1921  0.9160
 2880SOL    HW2 9475   5.005   5.388   2.102 -1.1020  0.5435 -0.2398
 2881SOL     OW 9476   0.791   6.948   1.297  0.2623  1.0336 -0.0361
 2881SOL    HW1 9477   0.853   6.996   1.351  2.1066 -1.1595 -0.0477
 2881SOL    HW2 9478   0.844   6.884   1.249 -1.8423 -0.0712 -1.0607
 2882SOL     OW 9479   3.126   2.113   6.063 -0.3379 -0.2342 -0.8303
 2882SOL    HW1 9480   3.035   2.084   6.071 -0.7187  0.5402 -2.0297
 2882SOL    HW2 9481   3.120   2.209   6.059  0.4827 -0.2029 -1.4681
 2883SOL     OW 9482   5.003   5.067   6.737 -0.2560 -0.0762  0.1853
 2883SOL    HW1 9483   4.966   5.112   6.661  0.0307 -2.4246 -1.4587
 2883SOL    HW2 9484   5.079   5.020   6.702 -0.2049 -1.3783  1.8983
 2884SOL     OW 9485   6.124   1.490   6.123  0.0131  0.0331 -0.2568
 2884SOL    HW1 9486   6.067   1.421   6.091  1.7323 -1.0955 -1.0407
 2884SOL    HW2 9487   6.131   1.552   6.050 -2.0457  1.4635  0.6667
 2885SOL     OW 9488   6.175   6.249   3.641  0.1894  0.6637  0.2657
 2885SOL    HW1 9489   6.154   6.183   3.575  0.7931  0.7814 -0.0524
 2885SOL    HW2 9490   6.191   6.329   3.591  2.0379  0.4319  0.4078
 2886SOL     OW 9491   0.134   4.959   7.274 -0.0558  0.1447 -0.2611
 2886SOL    HW1 9492   0.219   4.926   7.247 -0.8621 -2.2845 -0.0220
 2886SOL    HW2 9493   0.151   5.049   7.303  2.2431  0.0076 -1.0249
 2887SOL     OW 9494   4.093   5.013   6.820 -0.6966  0.2750 -0.5437
 2887SOL    HW1 9495   4.129   5.023   6.732 -1.0485 -0.7497 -0.8265
 2887SOL    HW2 9496   4.064   5.100   6.845  1.5660  1.0695 -0.4792
 2888SOL     OW 9497   3.974   2.103   1.285  0.1200 -0.3334 -0.0933
 2888SOL    HW1 9498   3.902   2.044   1.265 -0.6920  0.2799  0.9398
 2888SOL    HW2 9499   4.025   2.058   1.353 -0.6658  0.2495  0.9077
 2889SOL     OW 9500   4.743   3.336   0.435  0.7752  0.0882 -0.2260
 2889SOL    HW1 9501   4.716   3.248   0.409 -0.1782  0.5456 -0.8442
 2889SOL    HW2 9502   4.839   3.332   0.436  0.8105 -0.4743 -2.0188
 2890SOL     OW 9503   6.406   6.879   7.383 -0.2092 -0.0030 -0.5161
 2890SOL    HW1 9504   6.404   6.813   7.314 -0.1659  1.0576 -1.5822
 2890SOL    HW2 9505   6.347   6.847   7.450  1.3258 -2.0946 -0.0528
 2891SOL     OW 9506   3.899   5.877   7.150  0.6552  0.1511 -0.5367
 2891SOL    HW1 9507   3.853   5.910   7.227 -2.2309  0.5348 -2.2747
 2891SOL    HW2 9508   3.841   5.898   7.076  2.9331 -0.8130 -2.7632
 2892SOL     OW 9509   5.798   5.535   4.556 -0.1581 -0.0306  0.6671
 2892SOL    HW1 9510   5.739   5.609   4.565  1.5504  1.4137  0.5540
 2892SOL    HW2 9511   5.884   5.568   4.584  0.6060 -2.0698  0.9685
 2893SOL     OW 9512   6.520   1.421   1.844 -0.7494 -0.4789 -0.1483
 2893SOL    HW1 9513   6.427   1.443   1.853 -0.7408 -0.4452 -0.1415
 2893SOL    HW2 9514   6.566   1.498   1.878 -0.7151 -0.3026 -0.5927
 2894SOL     OW 9515   5.791   0.992   7.479  0.0901 -0.3056  0.7033
 2894SOL    HW1 9516   5.867   0.940   7.452  1.0786  1.6096 -0.4901
 2894SOL    HW2 9517   5.716   0.947   7.439  0.8341 -1.0742  0.1323
 2895SOL     OW 9518   7.904   1.882   5.501 -0.0521  0.0997 -0.1024
 2895SOL    HW1 9519   7.858   1.884   5.585 -0.5396  1.0303 -0.3689
 2895SOL    HW2 9520   7.981   1.828   5.516 -0.6662 -0.5798  0.6640
 2896SOL     OW 9521   1.602   7.537   2.038 -0.0512  0.3316 -0.4685
 2896SOL    HW1 9522   1.610   7.624   1.997 -0.4659 -0.0989 -1.4990
 2896SOL    HW2 9523   1.509   7.517   2.034 -0.0125  0.0262  0.1667
 2897SOL     OW 9524   0.344   1.043   0.599  0.3817 -0.7536  1.1355
 2897SOL    HW1 9525   0.418   1.084   0.555 -0.4097 -0.0327  0.4416
 2897SOL    HW2 9526   0.382   0.971   0.648  1.8731  0.9368  2.6057
 2898SOL     OW 9527   6.767   2.936   4.982  0.4750  0.1746  0.4475
 2898SOL    HW1 9528   6.714   2.935   5.061 -0.8494  2.0566 -0.3434
 2898SOL    HW2 9529   6.776   2.844   4.957  0.6521 -0.4380  2.5528
 2899SOL     OW 9530   3.396   1.938   5.370 -0.3789  0.1803 -0.2052
 2899SOL    HW1 9531   3.454   1.991   5.316  0.3038 -0.4679 -0.1224
 2899SOL    HW2 9532   3.429   1.849   5.361  0.7018  0.2238  2.4412
 2900SOL     OW 9533   2.599   3.199   0.164 -0.2402  0.0881  0.6376
 2900SOL    HW1 9534   2.654   3.124   0.184  0.1822  0.2506  0.1080
 2900SOL    HW2 9535   2.620   3.221   0.073  0.1407  1.2593  0.9915
 2901SOL     OW 9536   1.394   3.810   5.863  0.0075 -0.2926 -0.0363
 2901SOL    HW1 9537   1.383   3.829   5.770  0.6860 -0.6793 -0.2036
 2901SOL    HW2 9538   1.478   3.765   5.869  0.2747  0.2864  0.8443
 2902SOL     OW 9539   0.541   4.493   1.325 -0.1162  0.5174 -0.1888
 2902SOL    HW1 9540   0.529   4.523   1.235 -1.5434 -1.2112 -0.6335
 2902SOL    HW2 9541   0.456   4.456   1.349  0.3921  0.4912  1.7071
 2903SOL     OW 9542   4.407   2.168   0.079 -0.3173  0.5184  0.3469
 2903SOL    HW1 9543   4.369   2.099   0.025  1.0908 -0.1223  0.1458
 2903SOL    HW2 9544   4.433   2.236   0.017  1.0171 -0.0828  0.2272
 2904SOL     OW 9545   2.632   7.185   1.139  0.7669  0.6682 -0.0038
 2904SOL    HW1 9546   2.651   7.209   1.048  1.3803 -0.4930 -0.2148
 2904SOL    HW2 9547   2.708   7.132   1.165  0.1926  0.2693  0.8989
 2905SOL     OW 9548   0.106   0.866   1.628 -0.0528 -0.1582 -0.0073
 2905SOL    HW1 9549   0.050   0.810   1.575 -0.6275  0.5421 -0.1515
 2905SOL    HW2 9550   0.080   0.848   1.719  0.3709 -0.7610 -0.0020
 2906SOL     OW 9551   0.671   0.629   7.917 -0.2133  0.0433  0.0497
 2906SOL    HW1 9552   0.604   0.565   7.940 -1.2479  0.3095 -1.9593
 2906SOL    HW2 9553   0.628   0.714   7.925  0.3380  0.3214  0.1353
 2907SOL     OW 9554   7.237   2.669   0.530 -0.5987 -0.1254  0.3030
 2907SOL    HW1 9555   7.172   2.603   0.554  0.0525 -0.3338  1.5763
 2907SOL    HW2 9556   7.313   2.617   0.502 -1.3485  0.0915 -2.4898
 2908SOL     OW 9557   1.631   3.109   1.887  0.1709 -0.0280 -0.1197
 2908SOL    HW1 9558   1.695   3.175   1.861  0.2352 -0.4307 -1.0045
 2908SOL    HW2 9559   1.561   3.159   1.928  0.1038  0.6214 -0.9873
 2909SOL     OW 9560   6.184   4.612   6.642  0.4384  0.3911 -0.0075
 2909SOL    HW1 9561   6.122   4.562   6.589  0.1424  0.4230  0.3066
 2909SOL    HW2 9562   6.267   4.603   6.596  0.6701 -1.4045  0.6922
 2910SOL     OW 9563   4.594   0.847   4.571  0.2312  0.0828  0.1871
 2910SOL    HW1 9564   4.617   0.833   4.479  0.8399 -1.5443  0.5548
 2910SOL    HW2 9565   4.501   0.824   4.576  0.2012  0.1542 -0.0162
 2911SOL     OW 9566   3.238   4.357   1.000 -0.0502  0.1427  0.0189
 2911SOL    HW1 9567   3.167   4.379   1.061 -0.0041  1.5468 -0.3803
 2911SOL    HW2 9568   3.223   4.265   0.978 -1.7707  0.4017 -0.0751
 2912SOL     OW 9569   3.521   5.665   5.108 -0.1162 -0.6896 -0.5334
 2912SOL    HW1 9570   3.525   5.685   5.015  1.6539 -0.9299 -0.5421
 2912SOL    HW2 9571   3.600   5.614   5.125 -0.1796 -0.2844  1.1726
 2913SOL     OW 9572   6.734   2.501   3.828 -0.1947 -0.7280  0.1455
 2913SOL    HW1 9573   6.713   2.517   3.920 -3.0086 -1.1955 -0.3357
 2913SOL    HW2 9574   6.658   2.533   3.779  2.2278  1.9910 -2.3431
 2914SOL     OW 9575   4.470   2.444   4.830 -0.4167  0.2207 -0.1760
 2914SOL    HW1 9576   4.467   2.457   4.925 -0.4049  0.1315 -0.1634
 2914SOL    HW2 9577   4.553   2.483   4.803 -0.2570 -0.0654 -0.1019
 2915SOL     OW 9578   5.167   7.297   5.666 -0.2005 -0.1573 -0.6640
 2915SOL    HW1 9579   5.187   7.351   5.589  3.1171  1.1320  0.8853
 2915SOL    HW2 9580   5.249   7.251   5.685 -1.3839 -1.6463  1.2125
 2916SOL     OW 9581   2.197   5.938   0.602 -0.0596  0.2316 -0.5987
 2916SOL    HW1 9582   2.200   5.960   0.508 -1.1352 -0.9438 -0.9402
 2916SOL    HW2 9583   2.153   5.854   0.605  0.5107 -0.0387  0.9455
 2917SOL     OW 9584   6.815   0.314   1.556 -0.1333 -0.2991  0.3614
 2917SOL    HW1 9585   6.840   0.401   1.586 -2.1481  0.7948 -0.9377
 2917SOL    HW2 9586   6.754   0.282   1.622 -1.4639  0.4486 -0.4479
 2918SOL     OW 9587   0.893   1.227   5.510 -0.2835 -0.2633  0.4132
 2918SOL    HW1 9588   0.870   1.240   5.602  2.5614 -1.7819  1.4943
 2918SOL    HW2 9589   0.862   1.138   5.490  0.8761 -0.7288  0.6014
 2919SOL     OW 9590   6.827   0.248   0.372 -0.2086  0.2388  0.1768
 2919SOL    HW1 9591   6.822   0.168   0.423  1.0844  0.4714  0.7207
 2919SOL    HW2 9592   6.741   0.258   0.332 -0.3533 -1.4568  0.0243
 2920SOL     OW 9593   6.638   3.829   5.037 -0.0516  0.2473  0.3301
 2920SOL    HW1 9594   6.566   3.844   4.976  0.3494  0.6996 -0.0406
 2920SOL    HW2 9595   6.653   3.735   5.034 -0.7232  0.1274  0.5236
 2921SOL     OW 9596   7.583   4.050   6.475  0.1705  0.1515  0.3580
 2921SOL    HW1 9597   7.518   4.002   6.526 -0.4729  0.6722  0.0446
 2921SOL    HW2 9598   7.618   3.986   6.413 -1.6128  0.3416 -0.9458
 2922SOL     OW 9599   5.839   7.726   5.240 -0.1000  0.2657 -0.0678
 2922SOL    HW1 9600   5.803   7.749   5.155  1.2327 -0.0440 -0.7516
 2922SOL    HW2 9601   5.934   7.738   5.230  0.4024 -2.6346  0.4196
 2923SOL     OW 9602   4.140   3.840   1.571  0.4996 -0.5461 -0.3687
 2923SOL    HW1 9603   4.215   3.891   1.540  0.7428 -2.1644 -2.7901
 2923SOL    HW2 9604   4.168   3.804   1.655  1.5095  0.7242 -0.1227
 2924SOL     OW 9605   0.887   7.906   2.981 -0.4281 -0.0808 -0.6243
 2924SOL    HW1 9606   0.819   7.839   2.974  0.5713 -1.2164  0.2018
 2924SOL    HW2 9607   0.923   7.895   3.069  1.1122  0.1977 -1.1939
 2925SOL     OW 9608   7.620   7.139   0.329  0.1342  0.1163 -0.3763
 2925SOL    HW1 9609   7.591   7.228   0.308 -0.8470  0.0203  0.4853
 2925SOL    HW2 9610   7.593   7.126   0.420  0.1910 -1.0927 -0.5158
 2926SOL     OW 9611   6.168   7.439   3.687  0.1000  0.0473  0.4219
 2926SOL    HW1 9612   6.189   7.463   3.777  0.6036  1.0439  0.0556
 2926SOL    HW2 9613   6.175   7.344   3.684  0.2754  0.0271  1.3813
 2927SOL     OW 9614   4.070   6.417   3.260 -0.2530  0.1517 -0.1134
 2927SOL    HW1 9615   4.077   6.359   3.336  2.3534  0.8381  0.2503
 2927SOL    HW2 9616   4.076   6.359   3.184 -1.7065 -0.4170  0.1766
 2928SOL     OW 9617   7.517   6.665   5.165 -0.6673  0.0206 -0.0960
 2928SOL    HW1 9618   7.493   6.588   5.114 -1.1461 -1.2244  1.8942
 2928SOL    HW2 9619   7.433   6.700   5.197 -0.2995 -1.1234  2.3843
 2929SOL     OW 9620   3.981   2.047   6.179  0.2610  0.2629  0.4380
 2929SOL    HW1 9621   3.886   2.051   6.171  0.3008  0.3167 -0.0532
 2929SOL    HW2 9622   4.008   1.981   6.116  0.5350  0.0992  0.7223
 2930SOL     OW 9623   3.669   2.948   3.293  0.6016 -0.2969  0.5731
 2930SOL    HW1 9624   3.726   3.020   3.266  1.4065 -1.1686 -0.1520
 2930SOL    HW2 9625   3.672   2.887   3.219  0.4821 -1.3819  1.4394
 2931SOL     OW 9626   4.525   1.906   2.356 -0.1938  0.5822 -0.1992
 2931SOL    HW1 9627   4.450   1.964   2.350 -1.0535 -0.4175  0.4925
 2931SOL    HW2 9628   4.557   1.898   2.266 -1.3728  0.4351 -0.6161
 2932SOL     OW 9629   1.711   2.401   0.153 -0.0869  1.0204  0.3475
 2932SOL    HW1 9630   1.677   2.311   0.152  1.9005  0.2035 -1.1403
 2932SOL    HW2 9631   1.655   2.448   0.091  0.8767 -0.1041 -1.4747
 2933SOL     OW 9632   4.048   0.380   6.642  0.1015  0.1372  0.2337
 2933SOL    HW1 9633   4.011   0.465   6.617  1.1494  0.5097 -0.1096
 2933SOL    HW2 9634   4.022   0.321   6.570 -0.6646  0.1422  0.4957
 2934SOL     OW 9635   6.007   5.238   5.320  0.3847 -0.2509 -0.3970
 2934SOL    HW1 9636   6.088   5.187   5.324  1.9844  2.1404  0.0622
 2934SOL    HW2 9637   5.975   5.239   5.410 -0.1826 -1.1633 -0.5718
 2935SOL     OW 9638   2.772   3.141   2.836 -0.0911 -0.1377 -0.6251
 2935SOL    HW1 9639   2.682   3.142   2.802 -0.7993 -0.3793  1.1480
 2935SOL    HW2 9640   2.796   3.233   2.841 -0.6255 -0.0154 -0.1771
 2936SOL     OW 9641   2.526   4.724   0.636  0.2408 -0.7077  0.5285
 2936SOL    HW1 9642   2.528   4.718   0.732  0.6728 -2.5062  0.4493
 2936SOL    HW2 9643   2.618   4.726   0.610  0.2419 -3.5388  0.0572
 2937SOL     OW 9644   6.939   4.621   4.168 -0.2332 -0.0725  0.7217
 2937SOL    HW1 9645   7.034   4.623   4.161 -0.2546 -0.3114  0.3061
 2937SOL    HW2 9646   6.921   4.588   4.256  0.0720 -1.2992  0.3329
 2938SOL     OW 9647   3.367   0.283   1.425  0.7928 -0.5761  0.3094
 2938SOL    HW1 9648   3.373   0.371   1.388 -1.5547  0.2131  1.5918
 2938SOL    HW2 9649   3.456   0.262   1.451  1.4921  1.2328 -0.4534
 2939SOL     OW 9650   7.608   6.491   7.005  0.0209 -0.1930  0.0670
 2939SOL    HW1 9651   7.616   6.462   6.915 -2.0990  1.2052 -0.6332
 2939SOL    HW2 9652   7.664   6.431   7.055 -0.2471 -2.1990 -1.9091
 2940SOL     OW 9653   4.795   4.321   6.747 -0.0866 -0.0506 -0.5382
 2940SOL    HW1 9654   4.867   4.308   6.808 -0.3827 -0.3593 -0.2498
 2940SOL    HW2 9655   4.803   4.250   6.683  1.1607  1.1709 -1.8043
 2941SOL     OW 9656   4.807   2.157   5.361  0.0852 -0.0717  0.0547
 2941SOL    HW1 9657   4.771   2.071   5.336 -0.8051  0.1407  0.5781
 2941SOL    HW2 9658   4.771   2.217   5.296  1.7087 -0.2587 -1.0720
 2942SOL     OW 9659   7.606   2.247   2.097 -0.1092  0.3078  0.0466
 2942SOL    HW1 9660   7.629   2.332   2.134 -2.2156  0.3826  1.3632
 2942SOL    HW2 9661   7.513   2.254   2.076 -1.4413 -2.6911  3.6232
 2943SOL     OW 9662   2.332   6.145   5.461  0.4003  0.6903 -0.1051
 2943SOL    HW1 9663   2.289   6.063   5.486 -2.6063  1.5807 -1.8937
 2943SOL    HW2 9664   2.370   6.126   5.375 -0.0943  1.0941 -0.4148
 2944SOL     OW 9665   3.454   4.253   3.126  0.2417 -0.2346 -0.0623
 2944SOL    HW1 9666   3.537   4.208   3.110  0.1346  0.7143 -4.5793
 2944SOL    HW2 9667   3.478   4.345   3.136 -0.1671 -0.1471  0.1340
 2945SOL     OW 9668   6.902   1.894   1.618 -0.0606 -0.3119  0.1632
 2945SOL    HW1 9669   6.992   1.891   1.585  0.3996  0.9461  1.2087
 2945SOL    HW2 9670   6.907   1.854   1.705 -0.5634 -0.4314  0.1424
 2946SOL     OW 9671   0.387   2.772   7.528 -0.2851  0.3102 -0.0326
 2946SOL    HW1 9672   0.405   2.720   7.450  1.0162 -0.3361  0.6627
 2946SOL    HW2 9673   0.337   2.847   7.496 -1.4314 -0.9067 -1.1740
 2947SOL     OW 9674   6.195   4.077   4.756  0.1561  0.2112  0.0567
 2947SOL    HW1 9675   6.249   4.151   4.785  1.3758 -0.2091 -1.0223
 2947SOL    HW2 9676   6.131   4.116   4.696  0.2162  0.5204  0.1923
 2948SOL     OW 9677   1.083   4.499   3.970 -0.3294  0.0130  0.1935
 2948SOL    HW1 9678   1.035   4.418   3.952 -0.1295 -0.0905  0.1208
 2948SOL    HW2 9679   1.169   4.470   3.998 -0.5694  0.1841  1.1169
 2949SOL     OW 9680   7.074   4.436   2.388  0.2499  0.3800 -0.0146
 2949SOL    HW1 9681   7.086   4.494   2.464  0.6168 -1.1559  1.1616
 2949SOL    HW2 9682   7.022   4.364   2.422  0.0364 -0.1288 -1.3718
 2950SOL     OW 9683   5.975   4.307   1.711 -0.0055 -0.6687  0.5216
 2950SOL    HW1 9684   5.889   4.300   1.753  0.5319 -1.2872  1.5546
 2950SOL    HW2 9685   6.024   4.368   1.766  0.3661 -0.6649  0.1932
 2951SOL     OW 9686   0.131   5.154   3.964 -0.1705 -0.0308 -0.0886
 2951SOL    HW1 9687   0.108   5.111   3.882  0.6414  0.5302 -0.6176
 2951SOL    HW2 9688   0.148   5.082   4.025 -0.8149 -0.4492 -0.3888
 2952SOL     OW 9689   2.589   6.323   4.713 -0.0998  0.0111 -0.1237
 2952SOL    HW1 9690   2.640   6.351   4.789  0.8577  1.2043 -1.1557
 2952SOL    HW2 9691   2.549   6.404   4.679 -1.7161 -0.7165 -0.0600
 2953SOL     OW 9692   7.941   1.534   0.301 -0.4030  0.0257 -0.5780
 2953SOL    HW1 9693   7.992   1.614   0.316 -0.9201 -0.0928  2.3439
 2953SOL    HW2 9694   7.871   1.538   0.366 -0.6568 -2.6559 -0.5963
 2954SOL     OW 9695   7.916   2.444   4.995 -0.0547 -0.2115  0.7065
 2954SOL    HW1 9696   7.957   2.531   4.993 -0.4441 -0.0053 -1.8584
 2954SOL    HW2 9697   7.944   2.407   5.078  0.8020  2.0456  1.5144
 2955SOL     OW 9698   2.156   4.707   1.903 -0.2930 -0.1634 -0.2714
 2955SOL    HW1 9699   2.125   4.723   1.992  2.2860 -1.0762  0.8871
 2955SOL    HW2 9700   2.162   4.794   1.863  1.7711  0.6872  1.6744
 2956SOL     OW 9701   4.685   4.243   7.717  0.4414 -0.0137 -0.1334
 2956SOL    HW1 9702   4.773   4.209   7.699  0.4646  0.6233 -1.2993
 2956SOL    HW2 9703   4.635   4.165   7.742  1.1776 -0.4783 -0.0631
 2957SOL     OW 9704   7.342   7.205   1.112 -0.0068 -0.2081 -0.1289
 2957SOL    HW1 9705   7.404   7.225   1.183  2.4243  1.8604 -2.6284
 2957SOL    HW2 9706   7.296   7.287   1.096  2.1459  0.5545 -3.2394
 2958SOL     OW 9707   6.267   2.799   7.429 -0.4620  0.3055  0.0269
 2958SOL    HW1 9708   6.251   2.725   7.486 -1.0841  0.2749 -0.1858
 2958SOL    HW2 9709   6.346   2.775   7.380  1.9636  1.5754  2.9672
 2959SOL     OW 9710   1.152   7.557   3.949 -0.2314 -0.6366 -0.1817
 2959SOL    HW1 9711   1.168   7.514   3.865 -1.0992 -0.4741 -0.4427
 2959SOL    HW2 9712   1.057   7.573   3.950 -0.3892 -1.4133  1.1889
 2960SOL     OW 9713   6.696   7.617   4.144  0.5125 -0.6249  1.2021
 2960SOL    HW1 9714   6.743   7.603   4.226  0.7502  1.7403  1.5469
 2960SOL    HW2 9715   6.754   7.583   4.076  2.0254  0.7127  1.7644
 2961SOL     OW 9716   7.486   5.951   1.993 -0.1883  0.0546  0.2102
 2961SOL    HW1 9717   7.475   5.937   2.087 -1.1988 -0.4778  0.0228
 2961SOL    HW2 9718   7.526   6.038   1.987 -0.0186  0.0539  1.1354
 2962SOL     OW 9719   0.673   3.682   3.649 -0.4308  0.6334 -0.4415
 2962SOL    HW1 9720   0.688   3.758   3.705 -0.6551 -1.5811  2.9049
 2962SOL    HW2 9721   0.580   3.663   3.660 -1.0437  1.3409 -3.4419
 2963SOL     OW 9722   3.795   3.110   5.951 -0.0185 -0.2456 -0.4049
 2963SOL    HW1 9723   3.722   3.160   5.987  0.5252  0.3679 -0.1390
 2963SOL    HW2 9724   3.808   3.146   5.863  1.3742  1.1860  0.3476
 2964SOL     OW 9725   0.353   4.760   3.045 -0.1369 -0.6789  0.4247
 2964SOL    HW1 9726   0.401   4.841   3.061 -2.7407  1.3216 -1.1795
 2964SOL    HW2 9727   0.346   4.718   3.131  0.5918  1.1691  1.4333
 2965SOL     OW 9728   5.610   2.987   4.588 -0.5018  0.0215 -0.1792
 2965SOL    HW1 9729   5.580   2.901   4.557  1.2508 -1.1106  1.1042
 2965SOL    HW2 9730   5.559   3.002   4.668 -1.4733  0.6509 -0.8894
 2966SOL     OW 9731   5.909   0.356   4.718  0.4654  0.0443  0.3190
 2966SOL    HW1 9732   5.942   0.440   4.685  1.6199 -0.3810  0.3210
 2966SOL    HW2 9733   5.988   0.307   4.741 -0.2583  0.2834  3.7399
 2967SOL     OW 9734   6.763   2.629   3.408 -0.0083 -0.1808  0.2352
 2967SOL    HW1 9735   6.831   2.645   3.342 -1.4804  2.3155 -0.8220
 2967SOL    HW2 9736   6.796   2.670   3.487  0.3625 -0.2925  0.1406
 2968SOL     OW 9737   0.045   7.024   1.902 -0.0835  0.0029  0.0738
 2968SOL    HW1 9738  -0.024   7.089   1.913  0.4957  0.6471 -0.0568
 2968SOL    HW2 9739   0.124   7.066   1.936  0.4037 -0.4301 -0.4946
 2969SOL     OW 9740   3.899   6.973   7.215  0.1066 -0.1985  0.6491
 2969SOL    HW1 9741   3.947   6.956   7.134  0.1069 -1.6714  0.9302
 2969SOL    HW2 9742   3.918   7.065   7.236 -0.0965  0.2841 -1.1294
 2970SOL     OW 9743   6.077   2.777   2.315  0.1974 -0.3674  0.0131
 2970SOL    HW1 9744   6.154   2.721   2.308  0.7646  0.4449 -0.5010
 2970SOL    HW2 9745   6.081   2.812   2.404 -0.8190 -2.0291  0.7575
 2971SOL     OW 9746   3.229   3.438   4.323 -0.1010 -0.5348  0.4547
 2971SOL    HW1 9747   3.219   3.353   4.279 -1.1161  0.6831 -1.8818
 2971SOL    HW2 9748   3.301   3.481   4.276 -0.8580  0.6152  0.2981
 2972SOL     OW 9749   5.519   4.879   7.722 -0.1835 -0.0075 -0.1199
 2972SOL    HW1 9750   5.492   4.942   7.656 -0.4347 -1.2726 -1.2800
 2972SOL    HW2 9751   5.591   4.831   7.681  0.0495 -0.4450  0.7597
 2973SOL     OW 9752   6.889   4.621   3.792  0.0122 -0.2191  0.3663
 2973SOL    HW1 9753   6.824   4.605   3.862 -1.2951  2.7478 -0.0305
 2973SOL    HW2 9754   6.849   4.583   3.714  0.3638 -1.3822  0.7232
 2974SOL     OW 9755   6.115   0.354   5.898  0.0391  0.8996 -0.3448
 2974SOL    HW1 9756   6.183   0.361   5.831 -0.3220  1.2109 -0.6840
 2974SOL    HW2 9757   6.033   0.371   5.851 -0.3043  0.2270 -0.0048
 2975SOL     OW 9758   1.633   4.900   0.632  0.0874 -0.7213 -0.3595
 2975SOL    HW1 9759   1.549   4.904   0.678  0.8909  1.0136  1.1045
 2975SOL    HW2 9760   1.686   4.841   0.686  1.0910  1.4572  1.2387
 2976SOL     OW 9761   7.237   7.630   6.060 -0.0401 -0.0121  0.3458
 2976SOL    HW1 9762   7.199   7.562   6.116  2.9019  0.3614  3.1241
 2976SOL    HW2 9763   7.179   7.705   6.070 -1.4677 -1.0344  0.0235
 2977SOL     OW 9764   1.982   7.821   3.882 -0.2256 -0.6309 -0.2018
 2977SOL    HW1 9765   2.030   7.813   3.799  1.5683  0.2167  0.6928
 2977SOL    HW2 9766   2.046   7.797   3.949 -1.3501 -0.3602  1.0079
 2978SOL     OW 9767   0.430   7.585   1.629 -0.6207  0.1118 -0.4790
 2978SOL    HW1 9768   0.441   7.569   1.535 -0.9228 -2.5124 -0.1530
 2978SOL    HW2 9769   0.512   7.556   1.668  0.0716  2.5357  0.0138
 2979SOL     OW 9770   4.828   6.908   7.820  1.2519 -0.0604  0.1504
 2979SOL    HW1 9771   4.868   6.995   7.826 -0.3481  0.6604  0.6987
 2979SOL    HW2 9772   4.827   6.889   7.726 -0.7827  1.7132 -0.2567
 2980SOL     OW 9773   4.453   5.393   5.238  0.0566  0.0078  0.3616
 2980SOL    HW1 9774   4.454   5.432   5.326  0.6296 -0.6205  0.6433
 2980SOL    HW2 9775   4.544   5.395   5.210  0.0619 -0.9518  0.3027
 2981SOL     OW 9776   3.823   5.493   2.847 -0.0461  0.3584  0.4838
 2981SOL    HW1 9777   3.817   5.579   2.889 -2.8991 -0.2345  1.5193
 2981SOL    HW2 9778   3.845   5.512   2.755 -0.3513  2.1588  0.7562
 2982SOL     OW 9779   1.357   5.156   5.332  0.1225  0.0731 -0.1891
 2982SOL    HW1 9780   1.366   5.116   5.419  0.5486  0.2954 -0.1251
 2982SOL    HW2 9781   1.377   5.248   5.347  0.0855  0.1318 -0.5077
 2983SOL     OW 9782   6.585   6.938   7.030  0.2234 -0.0835  0.8608
 2983SOL    HW1 9783   6.626   6.934   6.943  0.2163  1.1915  0.7781
 2983SOL    HW2 9784   6.496   6.908   7.016  0.0872  0.5401  0.3230
 2984SOL     OW 9785   5.924   4.279   4.785 -0.1476  0.2293  0.3719
 2984SOL    HW1 9786   5.928   4.266   4.690  0.6642  0.4827  0.3658
 2984SOL    HW2 9787   5.903   4.371   4.796 -1.1291  0.0065  0.4417
 2985SOL     OW 9788   3.718   0.010   0.230 -0.1587  0.8763  0.0207
 2985SOL    HW1 9789   3.813   0.008   0.222 -0.0720 -0.4110  1.0821
 2985SOL    HW2 9790   3.686  -0.003   0.141  0.6886 -1.0682 -0.0364
 2986SOL     OW 9791   1.766   2.467   5.932  0.4926  0.4268  0.6304
 2986SOL    HW1 9792   1.846   2.433   5.971  0.7459 -1.3490 -1.2504
 2986SOL    HW2 9793   1.699   2.451   5.999  1.3728  0.2040  1.4898
 2987SOL     OW 9794   3.389   1.106   0.247  0.0897 -0.5552 -0.2716
 2987SOL    HW1 9795   3.385   1.013   0.268  2.7981 -0.6518  0.1894
 2987SOL    HW2 9796   3.391   1.108   0.151  2.1144 -1.1886 -0.2933
 2988SOL     OW 9797   7.821   6.743   3.191 -0.5720  0.0716 -0.7036
 2988SOL    HW1 9798   7.853   6.699   3.112  3.3988  1.1417  0.1280
 2988SOL    HW2 9799   7.860   6.830   3.188 -0.7808  0.3606  2.1261
 2989SOL     OW 9800   2.969   5.957   5.652  0.1153  0.2347 -0.2543
 2989SOL    HW1 9801   2.939   6.035   5.700  1.6830  1.1357 -0.6478
 2989SOL    HW2 9802   3.036   5.991   5.592  1.3569 -1.5100  0.0641
 2990SOL     OW 9803   7.048   7.181   4.001  0.1758  0.1196  0.3515
 2990SOL    HW1 9804   7.067   7.117   4.070  2.2230  0.1349 -0.1305
 2990SOL    HW2 9805   7.133   7.222   3.983 -0.8727  2.1807 -0.1443
 2991SOL     OW 9806   5.506   3.997   3.990  0.1708 -0.9044 -0.1951
 2991SOL    HW1 9807   5.564   3.938   4.039  2.2793  1.0336 -0.2066
 2991SOL    HW2 9808   5.486   4.067   4.052  1.0809  0.4663 -1.4173
 2992SOL     OW 9809   3.883   6.621   5.822 -0.4486 -0.3437  0.2418
 2992SOL    HW1 9810   3.807   6.584   5.778  0.2215 -1.2120 -0.2033
 2992SOL    HW2 9811   3.943   6.646   5.752  0.8153 -2.1397  0.6211
 2993SOL     OW 9812   6.892   0.781   3.258 -0.1286 -0.1473  0.5251
 2993SOL    HW1 9813   6.894   0.842   3.332  1.1184 -2.6357  2.7282
 2993SOL    HW2 9814   6.805   0.741   3.262 -0.4129  0.4131  0.0153
 2994SOL     OW 9815   5.285   0.962   7.198 -0.0486  0.5765 -0.2831
 2994SOL    HW1 9816   5.312   1.047   7.235  2.7877  0.1476 -1.0997
 2994SOL    HW2 9817   5.270   0.980   7.105  0.0834  0.2873 -0.3612
 2995SOL     OW 9818   5.012   2.975   7.836  0.1114 -0.6260  0.1353
 2995SOL    HW1 9819   5.054   3.061   7.847  0.5354 -0.8825  0.5973
 2995SOL    HW2 9820   4.935   2.992   7.782  0.3376  0.0027  0.0034
 2996SOL     OW 9821   4.164   4.927   5.786  0.3178 -0.3557  0.6914
 2996SOL    HW1 9822   4.196   4.954   5.700 -1.8921  1.1621  0.2589
 2996SOL    HW2 9823   4.237   4.944   5.846  1.4571 -0.2594 -0.6834
 2997SOL     OW 9824   3.297   0.400   6.310  0.0414 -0.0314  0.1932
 2997SOL    HW1 9825   3.381   0.440   6.331  0.4625 -1.1468  0.7824
 2997SOL    HW2 9826   3.252   0.463   6.255  1.0722  0.7879  0.2692
 2998SOL     OW 9827   0.127   0.330   5.288 -0.4774 -0.5481 -0.0533
 2998SOL    HW1 9828   0.064   0.392   5.325  0.6575 -0.1575  1.2681
 2998SOL    HW2 9829   0.120   0.252   5.343  1.0720 -0.0379  0.9355
 2999SOL     OW 9830   4.585   0.302   6.544 -0.1088  0.4917  0.1224
 2999SOL    HW1 9831   4.491   0.290   6.529 -0.1693  1.7064 -0.5835
 2999SOL    HW2 9832   4.616   0.345   6.465  1.7233 -2.8400 -1.1836
 3000SOL     OW 9833   3.103   7.294   1.802  0.3980 -0.1259  0.4838
 3000SOL    HW1 9834   3.024   7.293   1.748  0.5081 -0.8358  0.3308
 3000SOL    HW2 9835   3.075   7.257   1.886  0.3955  0.3303  0.6921
 3001SOL     OW 9836   7.112   3.225   6.239  0.4075 -0.0031 -0.4349
 3001SOL    HW1 9837   7.076   3.206   6.152 -1.0613 -2.9351  0.6824
 3001SOL    HW2 9838   7.035   3.237   6.295  1.2513 -0.8953  0.9719
 3002SOL     OW 9839   5.087   6.408   7.338 -0.4335 -0.3087 -0.0444
 3002SOL    HW1 9840   5.019   6.464   7.375  0.0986  0.5576 -0.3437
 3002SOL    HW2 9841   5.039   6.337   7.295 -1.1111 -0.2362  0.5665
 3003SOL     OW 9842   0.515   1.035   7.840 -0.2623  0.0998 -0.0699
 3003SOL    HW1 9843   0.490   1.122   7.809  0.1202  0.5625  0.8962
 3003SOL    HW2 9844   0.603   1.046   7.875 -0.4687 -0.5283  0.6732
 3004SOL     OW 9845   7.622   6.193   1.885  0.3032  0.2371 -0.7774
 3004SOL    HW1 9846   7.715   6.174   1.873  0.0177 -1.3425 -0.6720
 3004SOL    HW2 9847   7.593   6.227   1.800  0.4029 -1.8696 -1.7270
 3005SOL     OW 9848   5.071   2.897   3.619 -0.3577  0.1171  0.6287
 3005SOL    HW1 9849   5.043   2.976   3.666 -0.2784  1.9765 -2.1281
 3005SOL    HW2 9850   5.041   2.913   3.529  3.8242 -0.7393 -1.1253
 3006SOL     OW 9851   1.966   4.471   1.889  0.3585 -0.1055  0.0663
 3006SOL    HW1 9852   2.031   4.541   1.886 -0.9150  1.1248  0.0939
 3006SOL    HW2 9853   1.972   4.437   1.979  1.1973 -0.2546 -0.0392
 3007SOL     OW 9854   4.488   4.380   1.188 -0.1133 -0.3506  0.3224
 3007SOL    HW1 9855   4.463   4.472   1.202 -0.4002 -0.5005  0.8302
 3007SOL    HW2 9856   4.411   4.340   1.148  0.1411 -0.2907 -0.2322
 3008SOL     OW 9857   0.439   1.274   0.420  0.4684 -0.3923 -0.6632
 3008SOL    HW1 9858   0.478   1.276   0.507 -1.3649  3.3808  0.2719
 3008SOL    HW2 9859   0.347   1.251   0.435  0.4960 -1.4588 -1.8808
 3009SOL     OW 9860   6.403   4.093   6.749  0.0610  0.0133  0.3874
 3009SOL    HW1 9861   6.395   4.157   6.678 -0.5296 -0.3542  0.1195
 3009SOL    HW2 9862   6.492   4.058   6.740 -0.7542 -1.7076 -1.6215
 3010SOL     OW 9863   0.419   6.534   7.062  0.5173 -0.1449 -0.1065
 3010SOL    HW1 9864   0.462   6.616   7.087  0.7624  0.1239 -1.3402
 3010SOL    HW2 9865   0.478   6.496   6.996 -0.8605 -0.0156 -1.4559
 3011SOL     OW 9866   2.034   4.146   4.698 -0.4580 -0.7166  0.1573
 3011SOL    HW1 9867   2.104   4.210   4.685 -0.2558 -0.8851  0.3994
 3011SOL    HW2 9868   2.045   4.117   4.789 -1.8883  0.5098  0.7546
 3012SOL     OW 9869   3.767   2.185   4.522  0.1665 -0.9214  0.2582
 3012SOL    HW1 9870   3.686   2.173   4.473 -0.0865  0.7116  0.2274
 3012SOL    HW2 9871   3.744   2.161   4.612 -0.2181 -0.9616  0.1518
 3013SOL     OW 9872   5.793   0.663   1.683 -1.2011 -0.0319 -0.0350
 3013SOL    HW1 9873   5.728   0.730   1.662  0.3894  1.6451  0.1268
 3013SOL    HW2 9874   5.853   0.663   1.609  0.7454  1.2397  1.4407
 3014SOL     OW 9875   7.647   4.731   0.637 -0.0019  0.1028  0.0785
 3014SOL    HW1 9876   7.604   4.810   0.669 -0.1155  0.5797 -1.1839
 3014SOL    HW2 9877   7.699   4.760   0.562  1.1194 -0.7756  0.4854
 3015SOL     OW 9878   3.751   2.841   5.982  0.0593 -0.6190  0.2754
 3015SOL    HW1 9879   3.769   2.926   5.943  2.6462 -0.8060  0.8908
 3015SOL    HW2 9880   3.760   2.855   6.077  3.2151 -1.9931  0.3085
 3016SOL     OW 9881   0.113   2.290   2.115  0.0661 -0.0997 -0.1632
 3016SOL    HW1 9882   0.018   2.301   2.128  0.0603 -0.7199  0.4074
 3016SOL    HW2 9883   0.132   2.206   2.157  0.8489 -0.0416 -0.4011
 3017SOL     OW 9884   3.348   2.223   0.385 -0.0214 -0.6405  0.0052
 3017SOL    HW1 9885   3.432   2.178   0.387  1.0120  1.1338  3.0514
 3017SOL    HW2 9886   3.293   2.173   0.445  0.0693  0.2724  0.8567
 3018SOL     OW 9887   0.123   2.571   1.383  0.5902 -0.0141 -0.5034
 3018SOL    HW1 9888   0.127   2.601   1.292  0.3433 -1.8552 -1.1859
 3018SOL    HW2 9889   0.188   2.500   1.387  0.1346 -0.3923  0.5710
 3019SOL     OW 9890   5.142   2.612   1.486  0.2436 -0.2485  0.2960
 3019SOL    HW1 9891   5.076   2.678   1.465  1.1134  0.8360  0.8517
 3019SOL    HW2 9892   5.104   2.563   1.559 -0.1390  0.0745  0.3214
 3020SOL     OW 9893   4.411   2.662   4.299 -0.2600 -0.2528 -0.1981
 3020SOL    HW1 9894   4.376   2.703   4.377  0.2348 -2.8720  1.5466
 3020SOL    HW2 9895   4.338   2.662   4.237 -0.8794  1.2744  0.4987
 3021SOL     OW 9896   6.568   1.315   7.376 -0.4459 -0.2899 -0.1129
 3021SOL    HW1 9897   6.628   1.288   7.306 -1.0074 -1.3262 -0.2120
 3021SOL    HW2 9898   6.608   1.282   7.456 -1.1476 -1.4815 -0.2373
 3022SOL     OW 9899   6.899   2.209   5.037 -0.7954  0.2337  0.7342
 3022SOL    HW1 9900   6.937   2.124   5.013 -0.3917  0.4662  0.5489
 3022SOL    HW2 9901   6.973   2.260   5.069 -0.7230  1.1081 -0.7552
 3023SOL     OW 9902   3.403   4.535   7.737 -0.1230  0.0299  0.1878
 3023SOL    HW1 9903   3.372   4.446   7.716 -1.0117  0.3152  0.2496
 3023SOL    HW2 9904   3.329   4.592   7.716  1.3823  1.1356 -2.6677
 3024SOL     OW 9905   1.170   3.802   4.578  0.4635  0.0065  0.4901
 3024SOL    HW1 9906   1.244   3.743   4.595  1.3875  0.6928 -0.9323
 3024SOL    HW2 9907   1.208   3.874   4.526 -1.2289  0.2654 -0.4696
 3025SOL     OW 9908   5.817   5.127   3.525 -0.6419  0.5232  0.2258
 3025SOL    HW1 9909   5.742   5.185   3.512 -0.4346  0.4614 -1.4433
 3025SOL    HW2 9910   5.875   5.145   3.451  1.2306  0.8761  1.6992
 3026SOL     OW 9911   7.913   2.435   0.340  0.4435 -0.5190  0.2276
 3026SOL    HW1 9912   7.986   2.497   0.338 -0.3713  0.4569 -1.8546
 3026SOL    HW2 9913   7.941   2.367   0.401  2.4401  0.5975  0.6293
 3027SOL     OW 9914   3.514   4.832   5.822  0.1754  0.7478  0.8552
 3027SOL    HW1 9915   3.556   4.880   5.894 -0.5049  0.6216  1.3459
 3027SOL    HW2 9916   3.587   4.790   5.776  0.5931  0.4762  1.7333
 3028SOL     OW 9917   7.853   4.050   7.057  0.6088 -0.2527  0.2630
 3028SOL    HW1 9918   7.761   4.078   7.064 -0.1303 -2.5484  0.5735
 3028SOL    HW2 9919   7.865   3.991   7.132  2.1119 -0.5781 -0.2113
 3029SOL     OW 9920   0.016   0.644   4.557 -0.3865  0.4827  0.2545
 3029SOL    HW1 9921   0.076   0.713   4.584 -1.4335  0.7131  2.1894
 3029SOL    HW2 9922  -0.070   0.674   4.588 -1.4061 -0.1878 -1.7413
 3030SOL     OW 9923   6.446   0.776   4.026 -0.1441 -0.0858 -0.4565
 3030SOL    HW1 9924   6.436   0.862   4.067  0.6088  0.1587 -0.7656
 3030SOL    HW2 9925   6.518   0.787   3.964 -1.0304 -0.5399 -1.6035
 3031SOL     OW 9926   5.303   3.556   5.520  0.1091  0.7807  1.2286
 3031SOL    HW1 9927   5.260   3.634   5.486 -0.0223  0.0571 -0.3737
 3031SOL    HW2 9928   5.261   3.484   5.474  1.6369 -0.0800  1.1165
 3032SOL     OW 9929   7.799   6.934   0.388  0.7235 -0.4562  0.4336
 3032SOL    HW1 9930   7.762   6.847   0.375  0.7657 -0.7744  2.2196
 3032SOL    HW2 9931   7.742   6.992   0.337 -2.2564 -0.9438  2.8812
 3033SOL     OW 9932   2.705   0.001   3.555  0.0865 -0.0252  0.2070
 3033SOL    HW1 9933   2.686  -0.079   3.605  1.5289 -1.5570 -1.5644
 3033SOL    HW2 9934   2.625   0.053   3.563 -0.7210 -1.3871  1.8333
 3034SOL     OW 9935   4.073   1.781   7.768  0.7984 -0.0160 -0.1790
 3034SOL    HW1 9936   4.067   1.738   7.682 -0.4161 -0.6003  0.1776
 3034SOL    HW2 9937   4.079   1.708   7.830  1.1180  0.3946  0.2704
 3035SOL     OW 9938   5.261   4.966   2.688 -0.0502  0.4425  0.9121
 3035SOL    HW1 9939   5.231   5.044   2.733  1.1251  1.4230  0.0517
 3035SOL    HW2 9940   5.343   4.992   2.646  0.2828 -1.2009  0.4693
 3036SOL     OW 9941   7.571   0.403   7.060  0.5029  0.2645 -0.0484
 3036SOL    HW1 9942   7.544   0.442   7.144 -0.7641  1.0663 -0.7957
 3036SOL    HW2 9943   7.666   0.389   7.070  0.5188  1.0754  1.2235
 3037SOL     OW 9944   5.256   4.745   3.322 -0.2844 -0.2944  0.1211
 3037SOL    HW1 9945   5.260   4.803   3.246  0.1881  0.4137  0.6665
 3037SOL    HW2 9946   5.164   4.745   3.347 -0.2381  0.5484  0.3429
 3038SOL     OW 9947   4.385   0.669   4.648 -0.0742 -0.2817 -0.8612
 3038SOL    HW1 9948   4.422   0.586   4.678 -0.0883 -0.1479 -0.4701
 3038SOL    HW2 9949   4.291   0.652   4.641 -0.2525  0.0601  0.4558
 3039SOL     OW 9950   7.463   7.011   4.229 -0.0374  0.5977  0.5164
 3039SOL    HW1 9951   7.497   7.092   4.267 -0.3163  0.2492  1.5571
 3039SOL    HW2 9952   7.489   6.943   4.291 -2.1604  0.2532  1.1023
 3040SOL     OW 9953   3.092   7.270   3.715  0.2154 -0.8774  0.1628
 3040SOL    HW1 9954   3.081   7.193   3.771  0.7869 -0.6572  0.5969
 3040SOL    HW2 9955   3.114   7.341   3.776 -2.5187  0.1808  0.0435
 3041SOL     OW 9956   3.085   3.746   5.371 -0.1284  0.1871  0.6195
 3041SOL    HW1 9957   3.046   3.665   5.337 -1.9229  0.7224  1.2645
 3041SOL    HW2 9958   3.090   3.804   5.294 -1.8691  0.5410  0.7233
 3042SOL     OW 9959   5.029   2.093   1.682 -0.0425 -0.2445 -0.0811
 3042SOL    HW1 9960   5.020   2.022   1.618 -0.2167 -0.7658  0.5062
 3042SOL    HW2 9961   5.098   2.149   1.647  0.0891 -0.6984 -0.5636
 3043SOL     OW 9962   2.975   2.540   5.859  0.2781 -0.0959 -0.1774
 3043SOL    HW1 9963   2.908   2.512   5.796 -0.2051  1.7944 -0.5763
 3043SOL    HW2 9964   2.927   2.594   5.923  1.0955 -0.3783  0.6909
 3044SOL     OW 9965   7.403   0.726   6.694 -0.5625  0.2966  0.1692
 3044SOL    HW1 9966   7.435   0.645   6.733  0.1649  0.0865 -0.8181
 3044SOL    HW2 9967   7.480   0.763   6.650 -1.2065  0.8268 -0.5323
 3045SOL     OW 9968   0.791   3.960   3.619  0.2067 -0.0821  0.4527
 3045SOL    HW1 9969   0.736   3.958   3.697  1.0372 -0.0767  1.0562
 3045SOL    HW2 9970   0.837   3.876   3.620  1.8055  0.7358  1.1788
 3046SOL     OW 9971   2.819   2.091   6.880 -0.0025 -0.3212  0.0220
 3046SOL    HW1 9972   2.886   2.115   6.944  0.0220 -0.9119  0.2271
 3046SOL    HW2 9973   2.756   2.038   6.930 -0.2411 -0.3758 -0.3321
 3047SOL     OW 9974   5.079   0.623   5.182 -0.6445  0.3048  0.3987
 3047SOL    HW1 9975   5.016   0.621   5.110 -0.4561  1.1403  0.2018
 3047SOL    HW2 9976   5.037   0.572   5.252 -0.6924 -0.7910 -0.3944
 3048SOL     OW 9977   1.620   3.495   6.291 -0.2471  0.1406 -0.0752
 3048SOL    HW1 9978   1.569   3.510   6.211  0.0423  0.7108 -0.1622
 3048SOL    HW2 9979   1.672   3.417   6.271 -0.7053 -0.1485 -0.1716
 3049SOL     OW 9980   4.871   5.316   0.855  0.5468 -0.2159 -0.0843
 3049SOL    HW1 9981   4.777   5.300   0.854 -0.0770  2.9229 -0.8599
 3049SOL    HW2 9982   4.884   5.382   0.922  2.6247 -2.2015  1.6439
 3050SOL     OW 9983   5.937   2.673   3.330 -0.2191 -0.5411  0.4137
 3050SOL    HW1 9984   5.892   2.721   3.400  1.8652 -0.4872  1.8157
 3050SOL    HW2 9985   5.935   2.582   3.358 -1.0499 -0.7992 -0.4518
 3051SOL     OW 9986   0.096   5.422   1.596  0.3294 -0.4343 -0.0640
 3051SOL    HW1 9987   0.134   5.339   1.569  1.3175  0.4533 -1.5916
 3051SOL    HW2 9988   0.162   5.487   1.573 -1.1419  0.9412 -0.5989
 3052SOL     OW 9989   7.022   0.306   4.445  0.3675  0.4288  0.5482
 3052SOL    HW1 9990   7.086   0.236   4.430 -0.5564 -0.3818  0.2945
 3052SOL    HW2 9991   7.022   0.355   4.362 -1.4603 -1.3625 -0.6143
 3053SOL     OW 9992   6.805   4.722   1.154 -0.2455 -0.1836 -0.0192
 3053SOL    HW1 9993   6.727   4.730   1.210  0.1468  0.1961  0.4878
 3053SOL    HW2 9994   6.770   4.706   1.067 -0.9847  1.7168 -0.1277
 3054SOL     OW 9995   0.818   7.891   6.142  0.2485  0.1220  0.0014
 3054SOL    HW1 9996   0.783   7.868   6.228  0.2596 -0.3262 -0.1140
 3054SOL    HW2 9997   0.874   7.818   6.118  0.3235  0.2900 -0.3452
 3055SOL     OW 9998   6.522   5.273   6.127  0.9459  0.0776 -0.5399
 3055SOL    HW1 9999   6.436   5.268   6.086  0.6475 -0.4527  0.1328
 3055SOL    HW210000   6.504   5.284   6.220  1.5813 -0.8764 -0.2842
 3056SOL     OW10001   2.613   4.015   0.405 -0.4443  0.1125 -0.0972
 3056SOL    HW110002   2.684   4.071   0.375 -0.1566  0.2436  0.8043
 3056SOL    HW210003   2.561   3.998   0.326  0.8926 -0.4612 -0.8929
 3057SOL     OW10004   7.601   2.095   3.257 -0.1263  0.1478  0.0166
 3057SOL    HW110005   7.683   2.146   3.258  0.3758 -0.5825 -1.1143
 3057SOL    HW210006   7.608   2.036   3.332  1.0078 -0.7837 -0.7669
 3058SOL     OW10007   7.549   4.992   7.066  0.0913 -0.3848  0.3404
 3058SOL    HW110008   7.591   4.909   7.044 -0.3513 -0.4497 -0.2938
 3058SOL    HW210009   7.621   5.053   7.079  0.3952 -0.5302 -0.5918
 3059SOL     OW10010   4.969   2.289   0.036  0.0490  0.1238  0.3449
 3059SOL    HW110011   5.020   2.292   0.117  0.0865 -1.0946  0.3831
 3059SOL    HW210012   5.031   2.311  -0.033  0.0237  1.1476  0.6297
 3060SOL     OW10013   5.065   3.173   3.899  0.3186 -0.2260  0.0995
 3060SOL    HW110014   5.025   3.246   3.852  0.6934 -0.7605 -1.0810
 3060SOL    HW210015   5.159   3.189   3.895  0.4291 -0.9428 -0.4916
 3061SOL     OW10016   4.117   7.753   7.050 -0.0356  0.0103 -0.1341
 3061SOL    HW110017   4.101   7.739   6.956  1.0791  0.0994 -0.3560
 3061SOL    HW210018   4.208   7.781   7.054 -0.4167  1.1847  0.8746
 3062SOL     OW10019   2.625   0.571   5.420 -0.2264 -0.0779  0.2018
 3062SOL    HW110020   2.668   0.605   5.341  0.9036 -2.2304 -0.2101
 3062SOL    HW210021   2.533   0.563   5.396 -0.1446  0.6873 -0.3913
 3063SOL     OW10022   4.242   6.188   2.227 -0.8937 -0.4385  0.4373
 3063SOL    HW110023   4.167   6.216   2.173  0.3964  2.6073  0.0047
 3063SOL    HW210024   4.310   6.252   2.207  1.0882 -1.7709  2.5321
 3064SOL     OW10025   1.838   3.198   1.542 -0.0120  0.0648  0.6796
 3064SOL    HW110026   1.857   3.162   1.629  0.4755  2.2423  1.5259
 3064SOL    HW210027   1.863   3.290   1.547 -0.9075  0.5033 -1.4848
 3065SOL     OW10028   6.568   2.787   1.015 -0.2230  0.2513 -0.1855
 3065SOL    HW110029   6.523   2.767   0.933 -0.8855 -0.6292  0.3614
 3065SOL    HW210030   6.611   2.705   1.039  1.9839  1.1584 -0.8408
 3066SOL     OW10031   0.344   4.428   6.255  0.6800  0.4812  0.1391
 3066SOL    HW110032   0.393   4.415   6.336  0.5361  1.0386  0.3202
 3066SOL    HW210033   0.345   4.342   6.212  1.9835  0.5293  0.0370
 3067SOL     OW10034   7.722   4.881   1.318  0.5922  0.4358 -0.2875
 3067SOL    HW110035   7.709   4.791   1.287  2.1898  0.0771 -0.0170
 3067SOL    HW210036   7.671   4.886   1.399 -0.9314  0.3483 -1.2115
 3068SOL     OW10037   1.553   6.949   6.244  0.5358 -0.3612 -0.1540
 3068SOL    HW110038   1.595   6.976   6.326 -0.4339 -0.3489  0.3526
 3068SOL    HW210039   1.517   7.030   6.208 -1.1290 -0.6956  0.6443
 3069SOL     OW10040   1.218   4.504   0.254  0.4408 -0.1230 -0.3140
 3069SOL    HW110041   1.306   4.475   0.229  0.5378 -0.7857  0.7590
 3069SOL    HW210042   1.169   4.424   0.267  0.6196  0.0993  2.3492
 3070SOL     OW10043   4.043   1.694   6.169  0.7857 -0.4874  0.1541
 3070SOL    HW110044   4.105   1.740   6.226  0.1333  0.3377  0.2165
 3070SOL    HW210045   4.029   1.755   6.096  1.4968 -1.4637 -0.8299
 3071SOL     OW10046   4.116   3.169   4.961 -0.0612  0.4103 -0.3947
 3071SOL    HW110047   4.208   3.152   4.981  0.1897  1.2328 -0.8418
 3071SOL    HW210048   4.088   3.231   5.028  0.1398  1.3650 -1.1869
 3072SOL     OW10049   0.989   3.127   1.956 -0.0666  0.3444 -0.3430
 3072SOL    HW110050   1.008   3.048   1.906  2.6790  0.6152  0.0973
 3072SOL    HW210051   1.001   3.102   2.047 -1.5867  0.7164 -0.0087
 3073SOL     OW10052   6.805   3.034   5.303 -0.2587  0.0726  0.4083
 3073SOL    HW110053   6.715   3.008   5.284 -0.6131  0.2766  1.6771
 3073SOL    HW210054   6.811   3.032   5.399  0.8421  0.8491  0.3841
 3074SOL     OW10055   1.451   2.155   5.202 -0.1494  0.0068 -0.1678
 3074SOL    HW110056   1.498   2.076   5.229 -0.6393 -0.4298 -0.5602
 3074SOL    HW210057   1.505   2.227   5.234 -0.3747 -0.4730  1.3680
 3075SOL     OW10058   3.907   3.352   2.836  0.2152  0.0802  0.1362
 3075SOL    HW110059   3.842   3.282   2.840 -1.5377  1.6613  0.5470
 3075SOL    HW210060   3.949   3.350   2.922  0.5775 -0.7792 -0.0426
 3076SOL     OW10061   7.767   3.579   3.851 -0.4770 -0.0966 -0.1087
 3076SOL    HW110062   7.743   3.565   3.759  2.1138 -1.1100 -0.7196
 3076SOL    HW210063   7.862   3.562   3.854 -0.6237 -1.0124  2.9208
 3077SOL     OW10064   6.353   7.061   1.494  0.8028  0.1898  0.1281
 3077SOL    HW110065   6.327   7.140   1.542 -0.3890 -1.2106  1.9357
 3077SOL    HW210066   6.283   7.046   1.431  2.7150  2.4362 -2.7777
 3078SOL     OW10067   2.042   0.995   6.010  0.1190  0.6784 -0.9406
 3078SOL    HW110068   1.962   0.969   5.965 -0.9427  2.1411 -0.0074
 3078SOL    HW210069   2.062   1.082   5.975  0.0343  1.2613  0.3815
 3079SOL     OW10070   2.418   1.013   2.913  0.0551 -0.3036  0.6224
 3079SOL    HW110071   2.510   1.041   2.914  0.1450 -0.4962 -0.4067
 3079SOL    HW210072   2.388   1.035   2.825 -0.0969 -2.6475  0.0074
 3080SOL     OW10073   1.351   7.259   5.243 -0.4514 -0.2389 -0.1158
 3080SOL    HW110074   1.293   7.197   5.199 -0.2796 -0.5734  0.1229
 3080SOL    HW210075   1.379   7.319   5.173  0.9753 -1.6203 -0.8131
 3081SOL     OW10076   6.736   3.521   5.540 -0.3777  0.5810 -0.1227
 3081SOL    HW110077   6.763   3.503   5.630 -1.4805  2.3592  0.6054
 3081SOL    HW210078   6.812   3.562   5.499 -0.5193  1.6380  0.6308
 3082SOL     OW10079   3.504   5.933   2.618  0.1579  0.1875 -0.0068
 3082SOL    HW110080   3.522   6.017   2.661  1.6738 -0.4913  0.7655
 3082SOL    HW210081   3.553   5.869   2.669  1.2170 -0.8117 -2.1386
 3083SOL     OW10082   3.697   0.908   4.252 -0.4771  0.6189  0.3513
 3083SOL    HW110083   3.631   0.967   4.288 -1.3444 -1.1116  1.7421
 3083SOL    HW210084   3.646   0.836   4.214  0.5725  0.1015 -0.1129
 3084SOL     OW10085   1.700   0.013   2.499  0.9921  0.2489  0.7642
 3084SOL    HW110086   1.725  -0.066   2.547  0.4911 -0.6340 -0.4008
 3084SOL    HW210087   1.652   0.065   2.563 -0.0481 -1.1020  1.1213
 3085SOL     OW10088   5.591   5.128   0.127  0.4399  0.1294 -0.1292
 3085SOL    HW110089   5.592   5.200   0.064 -0.9363 -1.2163 -1.7833
 3085SOL    HW210090   5.677   5.131   0.168  0.9521  1.7786 -1.2186
 3086SOL     OW10091   5.142   5.949   5.737 -0.2131 -0.4362 -0.6551
 3086SOL    HW110092   5.205   5.982   5.801  0.9378 -0.4574 -1.7534
 3086SOL    HW210093   5.087   5.889   5.787  0.9769 -0.8451  0.2059
 3087SOL     OW10094   1.560   0.391   3.426  0.4521  0.6642  0.2123
 3087SOL    HW110095   1.510   0.434   3.356  2.3639 -0.6026 -2.0935
 3087SOL    HW210096   1.635   0.448   3.440  0.4403  0.5513  0.7548
 3088SOL     OW10097   3.178   6.162   1.834  0.2872  0.8502 -0.2975
 3088SOL    HW110098   3.109   6.141   1.772 -0.5804 -0.2460  0.9668
 3088SOL    HW210099   3.135   6.214   1.901  0.7056  0.3037  0.4154
 3089SOL     OW10100   6.714   5.598   4.483 -0.0831  0.1494 -0.1320
 3089SOL    HW110101   6.794   5.582   4.533  0.0500 -1.0884 -0.7065
 3089SOL    HW210102   6.645   5.606   4.549  0.5127  1.3985  0.3774
 3090SOL     OW10103   6.185   2.490   4.100  0.1556 -0.4388  0.4969
 3090SOL    HW110104   6.096   2.473   4.070  0.5016  0.9364 -1.5352
 3090SOL    HW210105   6.184   2.470   4.193 -1.8752 -1.8729  0.2316
 3091SOL     OW10106   1.520   4.876   7.071 -0.2419 -0.4235 -0.6032
 3091SOL    HW110107   1.444   4.830   7.036 -1.2890  0.9134 -0.1425
 3091SOL    HW210108   1.487   4.925   7.146  1.2061 -0.3159 -0.0084
 3092SOL     OW10109   4.554   0.784   6.748  0.4976  0.2038 -0.1858
 3092SOL    HW110110   4.560   0.778   6.843 -2.9191  1.2494  0.2615
 3092SOL    HW210111   4.529   0.875   6.731 -2.8133 -0.7769 -1.5958
 3093SOL     OW10112   6.575   2.660   3.196  0.0146 -0.0225 -0.2547
 3093SOL    HW110113   6.647   2.660   3.259 -0.7909  0.3463  0.6676
 3093SOL    HW210114   6.560   2.567   3.177 -0.3881 -0.1885  0.8474
 3094SOL     OW10115   2.228   6.113   6.938 -0.2304 -0.1762 -0.0163
 3094SOL    HW110116   2.297   6.141   6.999 -0.2513 -0.5914  0.2023
 3094SOL    HW210117   2.236   6.017   6.936 -1.3587 -0.2947  0.6793
 3095SOL     OW10118   4.923   2.317   6.739  0.3050  0.1481  0.1223
 3095SOL    HW110119   5.013   2.316   6.773  0.5896  0.7707 -0.6029
 3095SOL    HW210120   4.877   2.378   6.796  0.3186 -0.2131  0.5303
 3096SOL     OW10121   3.151   5.536   0.822  0.2011  0.5613  0.3060
 3096SOL    HW110122   3.231   5.552   0.772 -0.7311  0.3412 -1.3610
 3096SOL    HW210123   3.082   5.573   0.767 -0.8175  1.1900  1.9292
 3097SOL     OW10124   4.152   4.884   0.901 -0.0273  0.5391  0.1415
 3097SOL    HW110125   4.232   4.861   0.854 -0.0334 -0.1174  0.4357
 3097SOL    HW210126   4.098   4.931   0.837  1.3058  2.5532  0.4267
 3098SOL     OW10127   2.643   6.696   7.681  0.4739 -0.3097  0.2363
 3098SOL    HW110128   2.577   6.764   7.664 -0.4589 -0.4519  2.8013
 3098SOL    HW210129   2.696   6.693   7.601 -0.8012  1.8961 -0.7843
 3099SOL     OW10130   1.935   6.766   4.248  0.1583  0.0584  0.0657
 3099SOL    HW110131   1.985   6.751   4.328  2.0949  2.2527 -0.6296
 3099SOL    HW210132   1.847   6.790   4.280  0.1794 -1.4693  1.4006
 3100SOL     OW10133   4.450   3.330   0.487 -0.1153 -0.3715 -0.1340
 3100SOL    HW110134   4.533   3.326   0.440 -0.2724 -0.9191 -0.3752
 3100SOL    HW210135   4.469   3.290   0.572  0.0564  0.2125  0.1099
 3101SOL     OW10136   2.552   7.355   4.983 -0.9280 -0.0099 -0.0610
 3101SOL    HW110137   2.494   7.281   4.964 -0.6158 -0.1300 -0.5854
 3101SOL    HW210138   2.578   7.343   5.074 -2.2838  0.4425  0.4009
 3102SOL     OW10139   6.946   3.331   6.458  0.2432 -0.1138 -0.1531
 3102SOL    HW110140   7.012   3.400   6.464  1.6038 -1.1903 -1.7600
 3102SOL    HW210141   6.963   3.275   6.534 -0.6098  1.0433  0.9350
 3103SOL     OW10142   7.008   2.303   4.368 -0.3401 -0.1978  0.3701
 3103SOL    HW110143   6.917   2.275   4.375  0.0170 -1.3027  0.9104
 3103SOL    HW210144   7.015   2.340   4.280 -1.0577 -1.1083 -0.0985
 3104SOL     OW10145   2.266   5.082   5.347 -0.5527 -0.7014 -0.0046
 3104SOL    HW110146   2.316   5.137   5.287 -0.9899  0.8023  0.9690
 3104SOL    HW210147   2.216   5.023   5.290 -0.9038  0.6351 -1.1172
 3105SOL     OW10148   7.416   7.524   5.521  0.1238 -0.6144 -0.0605
 3105SOL    HW110149   7.434   7.430   5.517 -0.1644 -0.6884  0.3365
 3105SOL    HW210150   7.393   7.541   5.613  1.3316  0.0593  0.1371
 3106SOL     OW10151   7.438   2.636   6.287  0.1689 -0.5452 -0.1868
 3106SOL    HW110152   7.512   2.622   6.346 -1.9634 -3.0457  2.2334
 3106SOL    HW210153   7.432   2.554   6.237 -0.8012 -0.2943 -0.4958
 3107SOL     OW10154   1.888   7.560   3.286 -0.4870 -0.1921  0.4290
 3107SOL    HW110155   1.860   7.591   3.372  1.6404  0.9396  0.7645
 3107SOL    HW210156   1.818   7.590   3.227  0.1133  3.0103  1.1432
 3108SOL     OW10157   1.578   4.448   2.358 -0.0231 -0.3809 -0.0401
 3108SOL    HW110158   1.502   4.487   2.401 -1.0809 -0.5545 -1.6692
 3108SOL    HW210159   1.549   4.360   2.335  0.6330 -0.4074 -0.7870
 3109SOL     OW10160   3.113   1.567   7.145 -0.5502 -0.1480 -0.1050
 3109SOL    HW110161   3.063   1.646   7.126 -1.8689 -0.6253  1.1395
 3109SOL    HW210162   3.105   1.514   7.066 -3.6415 -0.9877  0.6386
 3110SOL     OW10163   1.588   3.265   6.547  0.0498 -0.2750 -0.0314
 3110SOL    HW110164   1.572   3.174   6.523 -0.0985 -0.2517 -0.0203
 3110SOL    HW210165   1.534   3.316   6.486 -0.3521 -0.2153  0.3714
 3111SOL     OW10166   0.401   6.476   4.101  0.0392 -0.5626  0.1739
 3111SOL    HW110167   0.347   6.544   4.061  1.2375  0.4789  0.2428
 3111SOL    HW210168   0.426   6.511   4.186  0.2633 -1.3091  0.4278
 3112SOL     OW10169   4.292   5.362   4.366  0.3454 -0.4626  0.1652
 3112SOL    HW110170   4.258   5.280   4.329  0.9836 -0.2624 -0.9225
 3112SOL    HW210171   4.231   5.429   4.333 -0.4206 -0.5262  1.3961
 3113SOL     OW10172   5.049   2.534   0.817 -0.1149 -0.2791 -0.3514
 3113SOL    HW110173   5.112   2.589   0.864 -1.3133  0.1737  0.7886
 3113SOL    HW210174   4.964   2.571   0.839 -0.7707 -0.4450 -2.4284
 3114SOL     OW10175   7.484   6.667   5.698 -0.0611 -0.0787  0.3066
 3114SOL    HW110176   7.473   6.679   5.604 -1.1180 -0.0361  0.4273
 3114SOL    HW210177   7.537   6.742   5.726 -3.1450  2.2759  0.3872
 3115SOL     OW10178   2.502   0.431   4.543 -0.6230  0.2323 -0.2591
 3115SOL    HW110179   2.588   0.389   4.543 -0.4804  0.5208 -0.5846
 3115SOL    HW210180   2.440   0.359   4.554 -0.3968 -0.0995 -1.0914
 3116SOL     OW10181   4.257   0.536   6.859 -0.4787  0.1122  0.2627
 3116SOL    HW110182   4.193   0.487   6.806 -0.1154 -1.3348  1.1042
 3116SOL    HW210183   4.299   0.594   6.796 -0.0668 -1.5398 -1.0939
 3117SOL     OW10184   4.936   3.981   1.664 -0.6658  0.0447 -0.4302
 3117SOL    HW110185   4.996   4.021   1.727 -0.7306 -0.8166  0.1969
 3117SOL    HW210186   4.938   3.887   1.685 -0.6548 -0.2714 -1.7314
 3118SOL     OW10187   1.540   2.085   7.834 -0.1086  0.5121  0.1872
 3118SOL    HW110188   1.455   2.042   7.844  0.7885 -2.0481 -2.0378
 3118SOL    HW210189   1.520   2.165   7.784 -1.2523  0.1926  0.0963
 3119SOL     OW10190   7.166   0.394   6.117 -0.5501  0.0423 -0.1462
 3119SOL    HW110191   7.189   0.313   6.162  0.7024  1.2418  1.4751
 3119SOL    HW210192   7.077   0.378   6.084 -1.0244 -1.3627  1.6354
 3120SOL     OW10193   1.012   1.185   5.780 -0.1749  0.2544  0.2708
 3120SOL    HW110194   1.021   1.247   5.853  1.0304  0.1123  0.2684
 3120SOL    HW210195   1.013   1.099   5.821  0.4919  0.1744  0.0938
 3121SOL     OW10196   7.491   1.930   0.023 -0.0838  0.5101  0.6224
 3121SOL    HW110197   7.505   1.929  -0.072  0.0962 -1.9702  0.6224
 3121SOL    HW210198   7.525   2.015   0.051 -1.0542  1.7418 -1.6284
 3122SOL     OW10199   3.914   4.090   4.952 -0.2835  0.1770 -0.0246
 3122SOL    HW110200   3.830   4.100   4.906 -0.1615 -1.6079 -0.7123
 3122SOL    HW210201   3.893   4.033   5.026  0.1559  0.4102  0.2754
 3123SOL     OW10202   6.080   3.816   6.203  0.1914  1.3055  0.3531
 3123SOL    HW110203   6.063   3.727   6.171 -0.0540  1.2156  0.7382
 3123SOL    HW210204   6.113   3.863   6.126 -0.3858  1.0826 -0.0418
 3124SOL     OW10205   6.588   3.535   3.513  0.3589  0.3107 -0.1276
 3124SOL    HW110206   6.539   3.617   3.511  0.4597  0.3837  0.3752
 3124SOL    HW210207   6.525   3.470   3.544  0.6984  0.4971  1.0164
 3125SOL     OW10208   7.755   1.500   0.500  0.2317 -0.2835 -0.4477
 3125SOL    HW110209   7.672   1.541   0.523  0.4344 -0.7091  1.1252
 3125SOL    HW210210   7.821   1.554   0.542  0.5801 -1.3921  0.4818
 3126SOL     OW10211   6.761   5.237   5.580 -0.0546 -0.5027  1.0126
 3126SOL    HW110212   6.720   5.320   5.559 -0.2832 -1.2426 -1.8541
 3126SOL    HW210213   6.689   5.180   5.607 -0.5472 -0.9167 -1.0507
 3127SOL     OW10214   4.000   6.235   3.459 -0.0076  0.3617  0.5162
 3127SOL    HW110215   3.993   6.280   3.543  2.6388  0.0404  1.0021
 3127SOL    HW210216   4.040   6.150   3.480  0.4842  0.1790 -1.0067
 3128SOL     OW10217   4.537   3.822   1.507 -0.0811  0.6247 -0.4528
 3128SOL    HW110218   4.602   3.795   1.572 -3.0190 -1.8596  1.7843
 3128SOL    HW210219   4.512   3.741   1.463 -2.4458  1.2103 -0.3393
 3129SOL     OW10220   5.142   6.151   3.518 -0.0991  0.1411  0.1022
 3129SOL    HW110221   5.075   6.116   3.578 -0.1001  0.3113  0.2014
 3129SOL    HW210222   5.224   6.144   3.568 -0.1498  0.5884  0.2472
 3130SOL     OW10223   0.952   3.005   4.228 -0.2186 -0.1939 -0.1992
 3130SOL    HW110224   1.041   2.987   4.196  0.4478 -0.3334  1.6246
 3130SOL    HW210225   0.918   3.070   4.167  0.3574 -1.5828 -2.1151
 3131SOL     OW10226   3.183   0.967   3.043  0.4461  0.8179 -0.4005
 3131SOL    HW110227   3.208   0.889   2.994 -1.1505  0.2559 -0.3732
 3131SOL    HW210228   3.231   0.961   3.125 -1.1736 -1.2522  0.4848
 3132SOL     OW10229   3.148   2.974   7.112  0.3869  0.2737  0.2588
 3132SOL    HW110230   3.239   2.990   7.086  0.4095  0.7212  0.6063
 3132SOL    HW210231   3.112   2.922   7.040  1.8607 -2.9425  1.6157
 3133SOL     OW10232   5.383   0.147   0.341 -0.8670  0.0693  0.1311
 3133SOL    HW110233   5.295   0.119   0.314 -0.3121  0.0714 -1.8485
 3133SOL    HW210234   5.401   0.224   0.287 -0.1205  0.8635  1.4452
 3134SOL     OW10235   0.573   6.129   5.730  0.4627  0.2910  0.0236
 3134SOL    HW110236   0.633   6.146   5.658  0.6804  1.0578  0.3784
 3134SOL    HW210237   0.489   6.113   5.688 -0.0025  3.1887 -0.3420
 3135SOL     OW10238   3.836   0.020   1.537 -0.5384 -0.9984 -0.3570
 3135SOL    HW110239   3.905   0.005   1.602 -1.1134 -0.3718  0.4174
 3135SOL    HW210240   3.883   0.042   1.457  0.1945  1.8478  0.7454
 3136SOL     OW10241   4.943   5.208   4.786  0.0127 -0.2670  0.5572
 3136SOL    HW110242   5.030   5.190   4.752 -0.3000  0.0394 -0.4563
 3136SOL    HW210243   4.889   5.135   4.755 -0.2906  0.0479  0.3248
 3137SOL     OW10244   3.474   2.638   5.985  0.9359 -0.0047 -0.5375
 3137SOL    HW110245   3.565   2.616   6.005  0.9714 -1.1789 -1.8434
 3137SOL    HW210246   3.423   2.572   6.032  0.8418 -0.4136 -1.2148
 3138SOL     OW10247   5.739   6.289   0.200 -0.0417  0.4315 -0.0663
 3138SOL    HW110248   5.813   6.332   0.156  0.9471 -1.1667 -0.0669
 3138SOL    HW210249   5.740   6.325   0.289  0.9736  0.1864  0.0372
 3139SOL     OW10250   0.299   4.987   3.516 -0.1140 -0.4154  0.2892
 3139SOL    HW110251   0.382   5.035   3.516 -0.0716 -0.4736  0.9822
 3139SOL    HW210252   0.325   4.896   3.533 -0.3536 -0.3673  0.9200
 3140SOL     OW10253   3.623   4.385   4.954  0.1755 -0.1404 -0.4023
 3140SOL    HW110254   3.593   4.296   4.974  0.6643 -0.0237  0.9618
 3140SOL    HW210255   3.561   4.417   4.889  0.2205 -1.6092 -1.2118
 3141SOL     OW10256   3.398   6.885   1.015  0.1195 -0.2771  0.2767
 3141SOL    HW110257   3.444   6.881   0.931 -0.3063  0.4471  0.0011
 3141SOL    HW210258   3.305   6.885   0.992  0.0010  0.5481  0.7099
 3142SOL     OW10259   6.738   7.132   5.580  0.1249  0.3031 -0.0213
 3142SOL    HW110260   6.786   7.195   5.633  0.8453 -1.4412  1.5120
 3142SOL    HW210261   6.646   7.155   5.593  0.3770  1.0979  0.4227
 3143SOL     OW10262   2.442   3.685   6.656  0.1322 -0.1031 -0.3874
 3143SOL    HW110263   2.527   3.721   6.682  0.3513 -0.5533 -0.4653
 3143SOL    HW210264   2.439   3.697   6.561  0.7092 -1.3138 -0.5798
 3144SOL     OW10265   6.714   4.479   3.117 -0.9044 -0.4312  0.5902
 3144SOL    HW110266   6.761   4.421   3.056  0.0404 -0.1167  1.0022
 3144SOL    HW210267   6.627   4.441   3.123 -0.7582 -0.9514 -0.3066
 3145SOL     OW10268   4.957   1.873   5.240  0.3534 -0.5585  0.4190
 3145SOL    HW110269   4.868   1.841   5.251 -0.5762  1.9696  0.9704
 3145SOL    HW210270   4.967   1.939   5.308  2.6365 -0.7284  0.3125
 3146SOL     OW10271   6.905   5.457   5.775 -0.1203 -0.1885  0.2770
 3146SOL    HW110272   6.876   5.549   5.774  0.7791  0.1086  0.2025
 3146SOL    HW210273   6.825   5.407   5.760 -0.4501  0.6293 -0.8164
 3147SOL     OW10274   0.065   1.830   5.837  0.0649 -0.5716 -0.6266
 3147SOL    HW110275  -0.014   1.776   5.847  0.6985 -1.5227 -0.7102
 3147SOL    HW210276   0.137   1.771   5.858  0.6609  1.4064  4.4473
 3148SOL     OW10277   4.593   5.696   2.752  0.1735  0.0974 -0.5658
 3148SOL    HW110278   4.516   5.729   2.705 -0.3565 -0.1287  0.1201
 3148SOL    HW210279   4.568   5.701   2.844  1.3920  0.9932 -0.2740
 3149SOL     OW10280   7.154   7.703   0.408 -0.0408  0.3823 -0.2183
 3149SOL    HW110281   7.080   7.652   0.374  0.6222  0.0546 -1.2116
 3149SOL    HW210282   7.132   7.718   0.500 -2.0233  1.4971 -0.7907
 3150SOL     OW10283   3.916   6.054   0.076  0.0660  0.0542 -0.4870
 3150SOL    HW110284   3.925   6.118   0.147 -1.7656 -0.1018 -0.0487
 3150SOL    HW210285   3.843   6.086   0.024  0.3246 -0.7084 -1.3468
 3151SOL     OW10286   1.369   7.249   7.414  0.2699 -0.3996  0.0439
 3151SOL    HW110287   1.312   7.323   7.393  0.4830 -0.5428 -1.0630
 3151SOL    HW210288   1.389   7.261   7.507  1.8583  2.0347 -0.5146
 3152SOL     OW10289   6.693   5.376   5.259  0.5802 -0.6524 -0.9490
 3152SOL    HW110290   6.655   5.305   5.208 -0.1335 -0.6925 -0.3859
 3152SOL    HW210291   6.672   5.354   5.350  1.1656 -0.2030 -0.6970
 3153SOL     OW10292   7.643   6.185   3.370 -0.0294  0.6520  0.0883
 3153SOL    HW110293   7.677   6.228   3.449 -1.0145  1.9162 -0.1451
 3153SOL    HW210294   7.717   6.137   3.335  0.4389  0.0849  1.7693
 3154SOL     OW10295   2.758   2.711   0.717 -0.5868 -0.3311 -0.4886
 3154SOL    HW110296   2.790   2.767   0.646  0.8059 -0.5884 -0.0881
 3154SOL    HW210297   2.694   2.766   0.764  0.5293  0.8471 -0.2842
 3155SOL     OW10298   5.782   7.737   7.258 -0.3672  0.1571  0.1580
 3155SOL    HW110299   5.851   7.772   7.201  0.2394  1.0134  1.3859
 3155SOL    HW210300   5.724   7.810   7.273 -1.4014 -0.4805 -0.6010
 3156SOL     OW10301   0.101   0.302   2.113 -0.6021 -0.3707 -0.0589
 3156SOL    HW110302   0.047   0.223   2.121 -0.5766 -0.6688 -2.2291
 3156SOL    HW210303   0.191   0.271   2.122 -0.6708 -0.0672  2.2384
 3157SOL     OW10304   3.066   0.574   3.280  0.1522 -0.1593  0.0996
 3157SOL    HW110305   3.149   0.593   3.236  0.9957 -2.3204  0.6353
 3157SOL    HW210306   3.083   0.592   3.372  0.3974 -1.6376  0.3613
 3158SOL     OW10307   2.463   1.305   7.193 -0.3635  0.4963  0.1442
 3158SOL    HW110308   2.474   1.263   7.108  0.2695  0.6428  0.1535
 3158SOL    HW210309   2.425   1.237   7.248  0.9332 -0.1750  0.2487
 3159SOL     OW10310   3.066   7.611   0.063  0.3318  0.2836 -0.3278
 3159SOL    HW110311   3.059   7.648   0.151  0.4335 -1.1138  0.2951
 3159SOL    HW210312   3.137   7.661   0.022  0.2931  0.9406  0.3824
 3160SOL     OW10313   6.736   4.620   0.546 -0.1473 -0.5460  0.4623
 3160SOL    HW110314   6.811   4.561   0.538 -0.9954 -1.4937 -0.9396
 3160SOL    HW210315   6.773   4.708   0.538  1.1942 -0.7894  2.9921
 3161SOL     OW10316   1.949   4.197   5.608  0.0753 -0.4829 -0.0368
 3161SOL    HW110317   2.036   4.162   5.626  0.5139  0.7804  0.3792
 3161SOL    HW210318   1.942   4.197   5.512  1.1180  0.7325 -0.1434
 3162SOL     OW10319   1.981   3.876   1.042  0.4308  0.5531 -0.2484
 3162SOL    HW110320   2.042   3.853   0.972 -0.5035  0.4100 -1.0323
 3162SOL    HW210321   1.897   3.837   1.015 -0.4211  2.1521 -0.0179
 3163SOL     OW10322   0.093   7.379   2.857 -0.1831 -0.1178 -0.1075
 3163SOL    HW110323   0.060   7.338   2.776  0.1391  0.7150 -0.6765
 3163SOL    HW210324   0.115   7.305   2.914  0.2997 -0.7335 -1.0658
 3164SOL     OW10325   5.152   3.903   5.667 -0.3231 -0.1725  0.2252
 3164SOL    HW110326   5.141   3.983   5.616  1.6615  0.9035  1.3701
 3164SOL    HW210327   5.199   3.844   5.608  0.0807  0.2881  0.0755
 3165SOL     OW10328   6.740   1.674   1.162  0.6553  0.3988  0.2354
 3165SOL    HW110329   6.749   1.675   1.257 -0.0046  0.2014  0.3089
 3165SOL    HW210330   6.709   1.585   1.142  2.3490 -0.1013 -0.3264
 3166SOL     OW10331   4.591   4.114   0.012  0.0188 -0.0265 -0.6942
 3166SOL    HW110332   4.625   4.025   0.011  0.7779  0.2042  0.7997
 3166SOL    HW210333   4.666   4.168   0.038 -1.0523  0.6924  1.1363
 3167SOL     OW10334   3.786   4.524   3.682 -0.2458 -0.4356 -0.1932
 3167SOL    HW110335   3.751   4.521   3.771  1.3432 -1.6213  0.4386
 3167SOL    HW210336   3.807   4.617   3.668  1.3737 -0.4908  1.4787
 3168SOL     OW10337   5.189   7.883   0.207 -0.1356  0.0188  0.2419
 3168SOL    HW110338   5.197   7.788   0.214  1.8188  0.2041  1.1486
 3168SOL    HW210339   5.124   7.897   0.138 -0.1329 -1.9561 -0.2111
 3169SOL     OW10340   5.731   0.640   3.324 -0.5297  0.3930 -0.0203
 3169SOL    HW110341   5.640   0.611   3.320  0.3714 -2.7832  0.3788
 3169SOL    HW210342   5.752   0.640   3.417  0.6828 -1.9276 -0.2277
 3170SOL     OW10343   4.110   6.158   5.979  0.0940  0.0627  0.1389
 3170SOL    HW110344   4.137   6.117   5.897  2.3462  0.4219  0.6391
 3170SOL    HW210345   4.069   6.241   5.952 -1.3075 -0.8645 -0.6940
 3171SOL     OW10346   5.629   3.377   5.352  0.1338  0.1467 -0.7303
 3171SOL    HW110347   5.634   3.465   5.315 -0.0339 -0.0937 -1.3389
 3171SOL    HW210348   5.719   3.355   5.375  0.0959  0.7046 -0.0218
 3172SOL     OW10349   0.501   7.044   5.915 -0.6375 -0.2791  0.1981
 3172SOL    HW110350   0.454   6.996   5.847  0.7235  1.7591 -2.3850
 3172SOL    HW210351   0.437   7.105   5.950 -0.6732  0.6852 -1.4439
 3173SOL     OW10352   4.693   0.034   2.294  0.4150  0.0090 -0.5029
 3173SOL    HW110353   4.611   0.075   2.267  0.3481  0.8847  0.9143
 3173SOL    HW210354   4.746   0.106   2.329  1.0807 -0.8066  0.2376
 3174SOL     OW10355   3.850   4.532   0.835  0.5033  0.1948  0.1188
 3174SOL    HW110356   3.860   4.612   0.886 -1.2429 -0.5246  1.7321
 3174SOL    HW210357   3.911   4.470   0.875  0.8846  0.3305 -0.2522
 3175SOL     OW10358   1.223   4.006   3.964  0.0162 -0.5504 -0.0571
 3175SOL    HW110359   1.255   4.072   4.025 -0.3735 -0.1237 -0.3049
 3175SOL    HW210360   1.132   3.991   3.990 -2.1638  3.7274 -3.7566
 3176SOL     OW10361   1.488   5.421   0.478 -0.2143  0.3690  0.4846
 3176SOL    HW110362   1.457   5.470   0.555 -0.4032  1.0898 -0.0421
 3176SOL    HW210363   1.495   5.486   0.409  0.9932 -0.0734  0.1660
 3177SOL     OW10364   5.666   1.757   1.735 -0.1893 -0.7367 -0.4648
 3177SOL    HW110365   5.738   1.771   1.673  0.3783  0.3344  0.4000
 3177SOL    HW210366   5.687   1.673   1.777  0.9481 -0.1192  0.2553
 3178SOL     OW10367   6.139   7.177   3.761 -0.0792 -0.4461  0.0337
 3178SOL    HW110368   6.053   7.168   3.802  0.1462  1.1832  0.9378
 3178SOL    HW210369   6.201   7.164   3.833  0.3607  0.7773 -0.1029
 3179SOL     OW10370   4.298   3.500   1.577 -0.1438  0.1708 -0.1368
 3179SOL    HW110371   4.246   3.432   1.535  0.1794  1.4316 -2.8106
 3179SOL    HW210372   4.237   3.545   1.636 -1.5179  0.2258 -1.5500
 3180SOL     OW10373   2.310   7.743   3.745 -0.1507  0.3488 -0.1624
 3180SOL    HW110374   2.257   7.753   3.666  1.5081  0.5704 -1.3083
 3180SOL    HW210375   2.378   7.810   3.737 -0.1232  0.5749  1.6212
 3181SOL     OW10376   0.533   4.716   4.172  0.1690 -0.1074 -0.0569
 3181SOL    HW110377   0.449   4.684   4.206  0.4135  0.7226  1.4118
 3181SOL    HW210378   0.532   4.810   4.191  0.1157  0.5493 -2.8755
 3182SOL     OW10379   4.666   1.315   5.164  0.4658 -0.0039  0.7211
 3182SOL    HW110380   4.687   1.371   5.239  0.6765  1.3077 -0.2823
 3182SOL    HW210381   4.714   1.354   5.091 -0.6808 -0.5437 -0.3560
 3183SOL     OW10382   7.092   1.454   6.937 -0.2882 -0.4057 -0.1883
 3183SOL    HW110383   7.165   1.514   6.952 -0.0649 -0.1458 -2.1451
 3183SOL    HW210384   7.122   1.395   6.868 -1.8502 -0.4073 -0.9020
 3184SOL     OW10385   7.040   2.191   0.622  0.7395  0.5236  0.0463
 3184SOL    HW110386   7.035   2.125   0.553 -0.2251  0.5159  0.1069
 3184SOL    HW210387   7.032   2.141   0.703 -2.3008  0.8354  0.0622
 3185SOL     OW10388   0.488   1.268   5.188  0.7771  0.2848  0.3031
 3185SOL    HW110389   0.441   1.185   5.201  0.1905  0.5915  0.1719
 3185SOL    HW210390   0.456   1.324   5.258  1.7576  0.1587  0.8683
 3186SOL     OW10391   5.891   7.063   5.989  0.3616  0.1387 -0.5906
 3186SOL    HW110392   5.930   7.096   5.908  1.0811 -1.5112 -0.9653
 3186SOL    HW210393   5.937   7.109   6.059  1.3322 -0.0783 -1.0810
 3187SOL     OW10394   1.160   6.538   7.257  0.5806  0.0077 -0.0456
 3187SOL    HW110395   1.171   6.527   7.163 -0.4956 -1.7459 -0.0063
 3187SOL    HW210396   1.076   6.583   7.267  0.4558 -0.2594  0.1018
 3188SOL     OW10397   1.853   5.086   5.322  0.3542  0.0625  0.1503
 3188SOL    HW110398   1.886   5.168   5.286 -0.1532  0.0880 -0.2719
 3188SOL    HW210399   1.845   5.102   5.416 -0.5444  0.7904 -0.0316
 3189SOL     OW10400   5.040   1.114   2.729 -0.1965 -0.2458  0.3317
 3189SOL    HW110401   5.069   1.204   2.742  0.5048 -0.0596 -2.0369
 3189SOL    HW210402   4.948   1.122   2.703 -0.4581 -0.3310  1.1841
 3190SOL     OW10403   7.878   3.790   1.981 -0.0289 -0.0488  0.0647
 3190SOL    HW110404   7.838   3.703   1.969  0.0728 -0.1897  0.6784
 3190SOL    HW210405   7.817   3.851   1.940 -0.3472 -0.3688  0.0603
 3191SOL     OW10406   7.608   4.465   6.228 -0.0860  0.0098 -0.6662
 3191SOL    HW110407   7.623   4.533   6.163  0.3873 -1.3553 -2.0551
 3191SOL    HW210408   7.514   4.447   6.224  0.1947 -1.3501 -2.3882
 3192SOL     OW10409   7.193   5.235   1.993  0.1061 -0.2670 -0.8642
 3192SOL    HW110410   7.170   5.247   2.086 -0.0159 -1.1730 -0.7630
 3192SOL    HW210411   7.224   5.145   1.988  2.3802  0.4838 -1.2766
 3193SOL     OW10412   3.626   3.960   7.818  0.0958  0.8426  0.1042
 3193SOL    HW110413   3.639   3.866   7.829  1.5604  1.1029  0.8291
 3193SOL    HW210414   3.654   3.978   7.728 -1.9594  0.3365 -0.6951
 3194SOL     OW10415   4.912   4.441   6.494  0.2291  0.0704  0.0110
 3194SOL    HW110416   4.844   4.482   6.441  1.3414 -0.3694 -1.8493
 3194SOL    HW210417   4.870   4.425   6.579 -2.0235 -0.3186 -1.1010
 3195SOL     OW10418   7.830   5.538   2.148  0.0926 -0.5052 -0.4930
 3195SOL    HW110419   7.841   5.455   2.102 -0.0834 -2.2834  2.3858
 3195SOL    HW210420   7.740   5.564   2.130 -0.4952 -2.0225  0.0661
 3196SOL     OW10421   1.933   7.065   1.183  0.7499  0.0068  0.6797
 3196SOL    HW110422   2.002   7.012   1.224  1.6163  0.1513 -0.5260
 3196SOL    HW210423   1.851   7.025   1.213  1.2986  0.4355  2.9515
 3197SOL     OW10424   3.064   4.550   0.509 -0.3456 -0.2954 -0.4569
 3197SOL    HW110425   3.128   4.602   0.461 -1.6720 -0.2140 -2.2736
 3197SOL    HW210426   3.112   4.514   0.584  1.3288  1.1669 -0.7703
 3198SOL     OW10427   3.473   1.960   6.416 -0.0682 -0.4762  0.1309
 3198SOL    HW110428   3.394   2.001   6.380  0.6686  0.2160 -0.7189
 3198SOL    HW210429   3.506   2.024   6.480  0.1572 -0.4803  0.0189
 3199SOL     OW10430   5.057   4.183   6.515  0.3492  0.0463 -0.2592
 3199SOL    HW110431   4.977   4.153   6.559  0.6250  1.2682  1.1673
 3199SOL    HW210432   5.031   4.263   6.470  0.3862 -0.4907 -1.2685
 3200SOL     OW10433   5.318   7.588   2.772 -0.3292  0.3189 -0.3236
 3200SOL    HW110434   5.254   7.559   2.836  0.4640 -1.0831 -0.1132
 3200SOL    HW210435   5.366   7.658   2.816  0.1159 -0.5361  0.5986
 3201SOL     OW10436   4.730   0.365   4.595 -0.0047  0.0585 -0.1100
 3201SOL    HW110437   4.746   0.297   4.660 -1.7932 -1.9994 -1.6995
 3201SOL    HW210438   4.800   0.352   4.530 -0.6001 -0.5877 -0.6349
 3202SOL     OW10439   4.899   1.708   6.750  0.2847  0.0083  0.1891
 3202SOL    HW110440   4.954   1.647   6.700  0.1591 -0.6167  0.7884
 3202SOL    HW210441   4.933   1.794   6.728 -0.7102 -0.1004 -2.1554
 3203SOL     OW10442   3.152   7.609   3.250 -0.2231  0.3434 -0.3968
 3203SOL    HW110443   3.160   7.525   3.205  0.0230  0.1550 -0.0135
 3203SOL    HW210444   3.157   7.587   3.343  0.4657  0.8386 -0.3052
 3204SOL     OW10445   0.277   6.792   0.232 -0.0297 -0.1612 -0.0092
 3204SOL    HW110446   0.224   6.822   0.159 -1.3266  0.1813  1.0252
 3204SOL    HW210447   0.225   6.815   0.310  2.1709  1.2774  1.1317
 3205SOL     OW10448   0.248   6.820   1.899 -0.1186  0.5700  0.1261
 3205SOL    HW110449   0.300   6.741   1.886 -0.6157  0.5196 -1.8180
 3205SOL    HW210450   0.239   6.827   1.994 -0.1458 -1.7587  0.3533
 3206SOL     OW10451   3.612   4.826   4.716 -0.8641 -0.0380 -0.3523
 3206SOL    HW110452   3.688   4.845   4.772 -1.4670  2.5715 -0.2835
 3206SOL    HW210453   3.650   4.788   4.637  0.3257 -0.5473  0.4273
 3207SOL     OW10454   1.225   1.720   5.073 -0.2068  0.5173 -0.2196
 3207SOL    HW110455   1.181   1.639   5.100 -0.3017  0.6978  0.1844
 3207SOL    HW210456   1.198   1.784   5.139  1.5051  0.3873  0.6882
 3208SOL     OW10457   2.009   4.456   6.366  0.2297 -0.4925 -0.1922
 3208SOL    HW110458   1.971   4.429   6.449  0.9337  1.2236  0.7441
 3208SOL    HW210459   1.939   4.444   6.302 -0.0746 -2.5836  0.4610
 3209SOL     OW10460   4.897   2.310   3.215  0.2708  0.0592 -0.1225
 3209SOL    HW110461   4.905   2.314   3.120  2.1101 -2.1504 -0.1407
 3209SOL    HW210462   4.808   2.278   3.230  0.3306 -0.6456 -1.1587
 3210SOL     OW10463   4.051   1.120   3.428 -0.2308  0.0953 -0.2859
 3210SOL    HW110464   4.120   1.083   3.483  0.7763  1.6422 -0.4413
 3210SOL    HW210465   3.977   1.061   3.439  1.3213 -2.0483 -0.6759
 3211SOL     OW10466   1.726   6.619   0.759  0.2159  0.0638 -0.1976
 3211SOL    HW110467   1.673   6.553   0.715  0.3225 -0.5762  0.6177
 3211SOL    HW210468   1.759   6.674   0.688  1.0239 -1.3953 -0.9979
 3212SOL     OW10469   7.297   1.079   6.485 -0.5920  0.7265 -0.1530
 3212SOL    HW110470   7.379   1.094   6.531  0.3597  0.2282 -1.6292
 3212SOL    HW210471   7.318   1.014   6.418 -1.7231  1.9458 -1.7788
 3213SOL     OW10472   7.662   1.512   1.404  0.3707  0.0404  0.2973
 3213SOL    HW110473   7.751   1.480   1.418 -0.4013 -2.3092  0.2528
 3213SOL    HW210474   7.661   1.543   1.314  1.4464  1.3659  0.6954
 3214SOL     OW10475   0.826   3.775   7.214 -0.0694  0.2776 -0.1259
 3214SOL    HW110476   0.742   3.771   7.169 -0.0844 -1.4475 -0.0228
 3214SOL    HW210477   0.889   3.798   7.146 -0.8844  4.7405  0.3090
 3215SOL     OW10478   0.671   1.068   2.942  0.6374  0.8853 -0.1650
 3215SOL    HW110479   0.726   0.999   2.979  0.0494 -0.4128 -1.6078
 3215SOL    HW210480   0.584   1.050   2.975  0.7396  1.9019  0.7099
 3216SOL     OW10481   3.735   6.111   1.340 -0.2491  0.0964 -0.1074
 3216SOL    HW110482   3.823   6.086   1.368 -0.3585 -0.3654 -0.1643
 3216SOL    HW210483   3.676   6.067   1.401 -0.4156  1.5247  0.7916
 3217SOL     OW10484   6.372   5.117   7.078  0.5694 -0.1131 -0.0713
 3217SOL    HW110485   6.306   5.133   7.010 -0.2690 -2.7648  0.0132
 3217SOL    HW210486   6.322   5.089   7.154  1.6338  0.9707  1.0647
 3218SOL     OW10487   3.652   1.120   1.827  0.2120  0.0328  0.3931
 3218SOL    HW110488   3.635   1.093   1.737 -2.1317  0.3443  0.6590
 3218SOL    HW210489   3.744   1.099   1.842  0.5619 -0.3663 -1.9337
 3219SOL     OW10490   4.527   4.506   5.880 -0.1995  0.4134  0.1697
 3219SOL    HW110491   4.565   4.449   5.946 -0.0936  0.6408  0.3063
 3219SOL    HW210492   4.572   4.590   5.892 -1.7867  1.1410  1.3440
 3220SOL     OW10493   2.056   4.410   3.745  0.0576  0.0873 -0.4684
 3220SOL    HW110494   2.098   4.373   3.823 -1.9701  1.0920  1.1658
 3220SOL    HW210495   2.087   4.501   3.742  0.5888 -0.1037 -1.2222
 3221SOL     OW10496   6.425   1.733   6.086 -0.7394  0.5079 -0.0891
 3221SOL    HW110497   6.337   1.754   6.055 -0.0477  1.1602 -1.7089
 3221SOL    HW210498   6.482   1.745   6.010  0.5661 -1.4142  0.4785
 3222SOL     OW10499   1.454   5.640   5.054 -0.2162  0.5199 -0.2113
 3222SOL    HW110500   1.395   5.696   5.103 -1.3933 -1.2385  0.4941
 3222SOL    HW210501   1.537   5.687   5.052 -0.6234  1.4308  1.9558
 3223SOL     OW10502   4.293   7.820   3.545  0.0864 -0.2327  0.1107
 3223SOL    HW110503   4.354   7.821   3.471  0.0255  1.0115  0.0446
 3223SOL    HW210504   4.312   7.901   3.592 -2.4930  1.0151 -0.7653
 3224SOL     OW10505   1.836   7.380   0.627  0.0627  0.4586 -0.4354
 3224SOL    HW110506   1.880   7.383   0.712 -1.4053 -3.8778  0.7141
 3224SOL    HW210507   1.746   7.355   0.646 -0.7797  0.9315 -3.2287
 3225SOL     OW10508   0.712   6.055   7.831 -0.3053 -0.1284 -0.3752
 3225SOL    HW110509   0.618   6.076   7.824 -0.5092 -1.4899 -2.7567
 3225SOL    HW210510   0.716   5.987   7.898 -0.3216  3.0986  3.2341
 3226SOL     OW10511   7.890   7.849   7.032  0.0339 -0.0150  0.6008
 3226SOL    HW110512   7.973   7.832   7.076  0.0652 -0.6353  0.3062
 3226SOL    HW210513   7.830   7.873   7.103  0.7010  1.4415  0.7178
 3227SOL     OW10514   7.919   0.137   0.619 -0.7768 -0.0557  0.1036
 3227SOL    HW110515   7.985   0.078   0.582  0.0755  1.3611 -0.6995
 3227SOL    HW210516   7.918   0.117   0.713  0.2658 -0.5944  0.0099
 3228SOL     OW10517   0.636   3.198   3.047 -0.3384  0.0043 -0.0512
 3228SOL    HW110518   0.635   3.164   3.137  0.9485  0.4185  0.1441
 3228SOL    HW210519   0.627   3.120   2.992  0.8635 -0.4964  0.4191
 3229SOL     OW10520   3.189   7.118   1.405  0.1393 -0.0594 -0.2675
 3229SOL    HW110521   3.145   7.104   1.489  0.7020  0.2652  0.0834
 3229SOL    HW210522   3.180   7.034   1.359 -0.9466  0.0313 -0.2579
 3230SOL     OW10523   1.072   3.219   4.713  0.3727  0.1394 -0.4634
 3230SOL    HW110524   1.032   3.142   4.754 -0.1020  0.0987 -0.9876
 3230SOL    HW210525   1.046   3.213   4.621 -0.4933  1.4541 -0.3279
 3231SOL     OW10526   0.255   6.957   5.221 -0.4867 -0.5326 -0.9143
 3231SOL    HW110527   0.285   7.048   5.225 -0.0949 -0.6230 -1.6544
 3231SOL    HW210528   0.163   6.961   5.245  0.1377 -0.2744  1.7869
 3232SOL     OW10529   2.629   3.372   2.071  0.0381  0.3811 -0.3763
 3232SOL    HW110530   2.692   3.420   2.016 -1.7751  3.1627 -0.2126
 3232SOL    HW210531   2.621   3.286   2.028  1.3215  1.1784 -2.3837
 3233SOL     OW10532   7.201   5.631   1.940 -0.1880  0.0549 -0.3728
 3233SOL    HW110533   7.168   5.617   2.028  0.5659  0.2239 -0.0553
 3233SOL    HW210534   7.245   5.549   1.917  0.1963  0.2448 -0.3250
 3234SOL     OW10535   7.540   0.880   3.607 -0.3145  0.5550 -0.2103
 3234SOL    HW110536   7.466   0.870   3.668  0.6221  0.2721  0.9232
 3234SOL    HW210537   7.582   0.962   3.634 -0.0299  0.5540 -0.6420
 3235SOL     OW10538   6.474   1.163   6.589  0.0360 -0.2707 -0.4117
 3235SOL    HW110539   6.426   1.134   6.511 -0.0254  0.9800 -0.8530
 3235SOL    HW210540   6.488   1.082   6.639 -3.6507 -0.5980  0.3899
 3236SOL     OW10541   7.319   4.322   1.572  0.9029 -0.4838 -0.0638
 3236SOL    HW110542   7.244   4.347   1.626  2.7877  0.5889  2.2662
 3236SOL    HW210543   7.327   4.392   1.507 -0.4616 -0.9775 -0.8135
 3237SOL     OW10544   6.050   4.459   4.017 -0.0086  0.1972 -0.2246
 3237SOL    HW110545   6.067   4.490   4.106 -0.1817  0.7619 -0.3852
 3237SOL    HW210546   5.982   4.517   3.984  0.5766  0.4727 -0.9902
 3238SOL     OW10547   3.677   6.653   4.820 -1.4021  0.4593 -0.2770
 3238SOL    HW110548   3.693   6.678   4.911  0.4904 -1.1153 -0.1068
 3238SOL    HW210549   3.738   6.581   4.804 -2.4562 -0.0287 -2.4793
 3239SOL     OW10550   6.066   1.616   3.577  0.0547  0.2006 -0.2648
 3239SOL    HW110551   6.119   1.568   3.513 -0.0897 -3.4372  2.0146
 3239SOL    HW210552   5.982   1.571   3.578 -1.0461  2.1367  0.3701
 3240SOL     OW10553   5.785   4.437   4.521  0.0761  0.9074 -0.0794
 3240SOL    HW110554   5.842   4.514   4.521  1.3931 -0.0229  0.3184
 3240SOL    HW210555   5.699   4.471   4.546  0.5956  2.2575 -0.0094
 3241SOL     OW10556   6.322   6.970   6.767 -0.3177  0.4384 -0.0194
 3241SOL    HW110557   6.326   6.917   6.846  0.9016 -1.2674 -1.1439
 3241SOL    HW210558   6.236   6.949   6.728  0.1780 -0.8142 -0.4854
 3242SOL     OW10559   4.573   7.311   3.397  0.5282  0.6286 -0.0899
 3242SOL    HW110560   4.591   7.330   3.489 -0.6557 -2.4829  0.9442
 3242SOL    HW210561   4.659   7.292   3.359  0.8271 -0.4531  1.0637
 3243SOL     OW10562   4.185   0.497   2.521 -0.1274  0.0211  0.4989
 3243SOL    HW110563   4.109   0.441   2.505 -0.6829 -0.0534  2.9091
 3243SOL    HW210564   4.220   0.466   2.604  3.2566 -0.6245 -1.0216
 3244SOL     OW10565   4.066   3.427   2.549 -0.3925  0.4321  0.2748
 3244SOL    HW110566   4.132   3.399   2.612 -1.1481 -3.4696 -0.4153
 3244SOL    HW210567   4.117   3.456   2.473  0.4784  1.6922  1.2934
 3245SOL     OW10568   1.092   1.537   2.996 -0.0009 -0.4029 -0.6116
 3245SOL    HW110569   1.026   1.603   2.974  0.3719 -0.3974 -1.7581
 3245SOL    HW210570   1.166   1.557   2.939 -0.1609 -2.2513 -1.5452
 3246SOL     OW10571   0.839   5.608   2.406 -0.4808  0.4077 -0.0070
 3246SOL    HW110572   0.799   5.521   2.406  1.6809 -0.6637 -0.4570
 3246SOL    HW210573   0.811   5.648   2.488 -2.4248 -0.2379 -0.3212
 3247SOL     OW10574   3.580   2.843   7.506 -0.3089 -0.7147 -1.2599
 3247SOL    HW110575   3.622   2.909   7.561 -0.8196 -0.8809 -0.6563
 3247SOL    HW210576   3.495   2.882   7.485 -0.4454 -1.0027 -1.2434
 3248SOL     OW10577   2.738   5.482   5.601  0.2558 -0.0060  0.5638
 3248SOL    HW110578   2.658   5.534   5.598  0.2415 -0.0371 -1.9174
 3248SOL    HW210579   2.709   5.395   5.627 -0.3433  0.2522  0.7752
 3249SOL     OW10580   5.497   6.733   6.505 -0.1356  0.2907 -0.3781
 3249SOL    HW110581   5.446   6.767   6.432  0.2053 -1.7293 -1.6487
 3249SOL    HW210582   5.587   6.761   6.487 -0.2353  0.8733 -0.0149
 3250SOL     OW10583   7.166   1.086   6.110 -0.2833 -0.1877 -0.1250
 3250SOL    HW110584   7.071   1.084   6.122 -0.2909 -0.0441 -0.1570
 3250SOL    HW210585   7.200   1.022   6.173 -0.4098 -0.3317 -0.2016
 3251SOL     OW10586   6.986   3.188   6.672 -0.5268 -0.1805  0.2606
 3251SOL    HW110587   7.027   3.162   6.755  0.4607  0.9441  0.1545
 3251SOL    HW210588   6.951   3.107   6.635  0.7513 -1.0148  0.8479
 3252SOL     OW10589   3.607   0.703   4.055 -0.8680  0.1675  0.6037
 3252SOL    HW110590   3.649   0.624   4.021  2.1760 -0.2974  4.6199
 3252SOL    HW210591   3.659   0.775   4.019  0.3598 -0.1290  1.7006
 3253SOL     OW10592   4.134   7.565   1.636  0.3109  0.0625  0.0782
 3253SOL    HW110593   4.050   7.566   1.681  1.0012  2.6875  1.5739
 3253SOL    HW210594   4.161   7.473   1.638 -2.3366 -0.7988 -0.1970
 3254SOL     OW10595   7.854   0.735   7.664  0.6552 -0.7145 -0.6956
 3254SOL    HW110596   7.793   0.808   7.656  0.4179 -0.8201  0.0633
 3254SOL    HW210597   7.890   0.723   7.575  2.0863  1.4936 -0.4896
 3255SOL     OW10598   2.870   5.733   3.303  1.0737  0.7119 -0.5780
 3255SOL    HW110599   2.931   5.768   3.368  0.6800  1.6492 -0.6886
 3255SOL    HW210600   2.814   5.672   3.351  1.2638  0.8385 -0.1990
 3256SOL     OW10601   1.212   7.878   1.291  0.5749  0.3435 -0.2109
 3256SOL    HW110602   1.254   7.955   1.252  1.7448  0.0185  0.3625
 3256SOL    HW210603   1.118   7.892   1.277  0.8699  1.0376 -1.6335
 3257SOL     OW10604   1.897   3.262   6.472 -0.2771 -0.0905  0.2582
 3257SOL    HW110605   1.942   3.197   6.525 -0.4146  0.2722  0.8309
 3257SOL    HW210606   1.807   3.262   6.505 -0.9427 -1.3818 -1.4130
 3258SOL     OW10607   2.824   7.030   5.809 -0.0346 -0.1781 -0.0545
 3258SOL    HW110608   2.785   7.020   5.896 -0.0855 -1.9529 -0.2575
 3258SOL    HW210609   2.916   7.010   5.822 -0.2277 -1.4717 -0.5771
 3259SOL     OW10610   0.089   1.433   1.035  0.0855  0.6735  0.0116
 3259SOL    HW110611   0.020   1.385   1.081 -0.8823  0.9016 -1.1549
 3259SOL    HW210612   0.141   1.365   0.992  0.8287  0.4784  1.1579
 3260SOL     OW10613   0.091   0.483   7.822  0.3059 -0.0643  0.9000
 3260SOL    HW110614   0.182   0.494   7.794 -0.2480 -3.2019 -2.9513
 3260SOL    HW210615   0.041   0.540   7.763 -0.4189 -0.9503  0.6437
 3261SOL     OW10616   1.787   4.362   6.153  0.4346 -0.1105 -0.5899
 3261SOL    HW110617   1.814   4.419   6.081  0.4374 -1.0797 -1.3672
 3261SOL    HW210618   1.691   4.358   6.146  0.3348  0.6379  0.1252
 3262SOL     OW10619   2.044   1.259   2.660 -0.0691  0.0830  0.0595
 3262SOL    HW110620   2.094   1.178   2.653 -1.2841 -0.7336  0.4267
 3262SOL    HW210621   1.960   1.239   2.618 -1.1201  0.5026  1.8468
 3263SOL     OW10622   0.847   2.979   2.488 -0.1653  0.1155  0.1332
 3263SOL    HW110623   0.823   2.923   2.414  1.3098  0.3397 -0.5446
 3263SOL    HW210624   0.797   3.060   2.474 -1.3737 -0.5451  0.4599
 3264SOL     OW10625   5.223   3.723   6.538 -0.8935 -0.4843  0.3765
 3264SOL    HW110626   5.197   3.636   6.507 -2.6634  0.7635 -1.8845
 3264SOL    HW210627   5.299   3.746   6.484 -1.0331 -0.2371  0.2836
 3265SOL     OW10628   7.444   4.469   1.093 -0.0252  0.3288  0.4012
 3265SOL    HW110629   7.437   4.521   1.173  1.1286 -1.5103  1.7769
 3265SOL    HW210630   7.357   4.431   1.082 -0.1083  0.3340  0.9796
 3266SOL     OW10631   7.460   2.515   0.423 -0.5215 -0.3281 -0.0555
 3266SOL    HW110632   7.389   2.496   0.362 -0.2631 -2.6928  0.2861
 3266SOL    HW210633   7.444   2.457   0.497  1.9605 -1.2862 -0.1638
 3267SOL     OW10634   6.033   4.450   5.282  0.0235 -0.1613 -0.1894
 3267SOL    HW110635   6.047   4.360   5.310 -0.1815 -0.4046 -0.8725
 3267SOL    HW210636   6.101   4.466   5.216  0.4424  0.3810  0.3575
 3268SOL     OW10637   4.242   0.321   1.763  0.5430 -0.6736  0.2951
 3268SOL    HW110638   4.155   0.360   1.760  0.6087 -0.5116  0.4758
 3268SOL    HW210639   4.297   0.388   1.803  0.6845 -0.8982  0.4773
 3269SOL     OW10640   2.061   6.219   3.112  0.4672 -0.5993  0.2808
 3269SOL    HW110641   2.024   6.246   3.028 -1.0281 -0.2745  1.0078
 3269SOL    HW210642   2.025   6.132   3.128 -2.0252  0.6135  2.0672
 3270SOL     OW10643   0.259   6.199   0.039 -0.2006  0.2941 -0.0895
 3270SOL    HW110644   0.344   6.237   0.062  0.6598 -1.4157 -0.3292
 3270SOL    HW210645   0.273   6.105   0.040 -2.3505 -0.0761  0.8061
 3271SOL     OW10646   7.337   5.291   3.747  0.0868 -0.6267 -0.0033
 3271SOL    HW110647   7.376   5.366   3.702  1.0064 -0.6401  0.7379
 3271SOL    HW210648   7.330   5.318   3.838 -1.1880 -0.8278 -0.0157
 3272SOL     OW10649   7.535   3.440   7.591 -0.1702  0.0915 -0.7485
 3272SOL    HW110650   7.493   3.527   7.596 -2.2211 -0.7767 -1.5111
 3272SOL    HW210651   7.482   3.393   7.527  1.6126 -1.3767 -1.2074
 3273SOL     OW10652   3.702   2.179   1.079  0.2103 -0.3870  0.6541
 3273SOL    HW110653   3.709   2.270   1.052  0.3889 -0.3998  0.6547
 3273SOL    HW210654   3.634   2.142   1.023  1.0157 -0.5790 -0.2134
 3274SOL     OW10655   3.068   4.305   0.403  0.3015 -0.2675  0.3666
 3274SOL    HW110656   3.151   4.299   0.356 -0.7445  0.0592 -1.6325
 3274SOL    HW210657   3.065   4.395   0.435  0.2139  0.0969 -0.6188
 3275SOL     OW10658   2.167   6.198   0.010  0.1535 -0.1394 -0.3092
 3275SOL    HW110659   2.203   6.117   0.046  1.3754  0.7723  0.5993
 3275SOL    HW210660   2.100   6.169  -0.052  1.2896 -1.8620 -0.7911
 3276SOL     OW10661   0.983   6.776   4.926 -0.2155  0.2010  0.4182
 3276SOL    HW110662   1.022   6.801   4.842 -1.7033 -0.2241 -0.4327
 3276SOL    HW210663   1.026   6.833   4.990 -1.6077  3.1997 -1.0926
 3277SOL     OW10664   7.717   1.311   4.804 -0.1758  0.0043  0.0767
 3277SOL    HW110665   7.765   1.390   4.828  0.5298  0.3300 -2.1641
 3277SOL    HW210666   7.625   1.336   4.811  0.0385  1.0941 -0.7096
 3278SOL     OW10667   3.606   0.290   7.320 -0.3884  0.2315 -0.1135
 3278SOL    HW110668   3.595   0.239   7.401 -0.4294 -1.6985 -1.2886
 3278SOL    HW210669   3.698   0.275   7.295 -1.0617 -1.4519 -1.8289
 3279SOL     OW10670   7.223   4.116   3.109 -0.3572  0.4539 -0.0345
 3279SOL    HW110671   7.224   4.166   3.028 -1.5863  0.1872 -0.2326
 3279SOL    HW210672   7.232   4.182   3.178 -0.0723  0.7588 -0.3639
 3280SOL     OW10673   1.802   6.684   1.847  0.3258 -0.4312  0.1350
 3280SOL    HW110674   1.808   6.779   1.840  0.2805 -0.4276  0.1478
 3280SOL    HW210675   1.830   6.664   1.936  0.8690 -0.4735 -0.0373
 3281SOL     OW10676   1.466   7.007   5.431 -0.1997 -0.2836  0.1918
 3281SOL    HW110677   1.485   7.075   5.366 -0.4194 -1.2456 -0.9283
 3281SOL    HW210678   1.551   6.983   5.467  0.4949 -2.2331 -2.3908
 3282SOL     OW10679   7.083   7.744   1.797  0.2096 -0.4827 -0.4161
 3282SOL    HW110680   7.033   7.736   1.878 -0.6887  2.6718 -0.5289
 3282SOL    HW210681   7.166   7.701   1.815 -0.2686 -0.5585  1.8800
 3283SOL     OW10682   1.624   5.347   5.900  0.3056 -0.5286  0.2561
 3283SOL    HW110683   1.641   5.409   5.829  0.9982  1.7528  2.2590
 3283SOL    HW210684   1.539   5.309   5.879 -1.1247  2.6093 -0.1662
 3284SOL     OW10685   0.540   5.270   5.153  0.1156  0.3975 -0.3015
 3284SOL    HW110686   0.584   5.240   5.233 -0.0984  0.0133 -0.3270
 3284SOL    HW210687   0.448   5.278   5.178  0.0635  0.3662 -0.4826
 3285SOL     OW10688   3.880   0.776   0.912  0.3098  0.4081  0.2510
 3285SOL    HW110689   3.917   0.785   0.825 -0.7082  0.5864 -0.1804
 3285SOL    HW210690   3.906   0.688   0.940  0.8096  0.4269 -0.1455
 3286SOL     OW10691   3.700   5.549   5.789  0.2824  0.1002  0.2562
 3286SOL    HW110692   3.609   5.576   5.778  0.1325 -0.6477 -0.3612
 3286SOL    HW210693   3.715   5.484   5.721  1.4099  0.5262  0.0663
 3287SOL     OW10694   6.489   3.536   5.176 -0.4383 -0.1786  0.3274
 3287SOL    HW110695   6.493   3.560   5.083 -2.2582  0.8094  0.4630
 3287SOL    HW210696   6.398   3.552   5.201  0.3013  0.7952  2.6186
 3288SOL     OW10697   7.841   3.557   7.462 -0.3700 -0.4914  0.4644
 3288SOL    HW110698   7.931   3.533   7.483  0.3816  2.4388  0.9725
 3288SOL    HW210699   7.789   3.520   7.533  1.0012  1.2756  2.4895
 3289SOL     OW10700   5.726   5.367   5.324 -0.2188 -0.2518 -0.3788
 3289SOL    HW110701   5.804   5.311   5.331  0.1975  0.4019  0.3673
 3289SOL    HW210702   5.657   5.316   5.368  0.5517  0.4821  1.8266
 3290SOL     OW10703   5.140   4.935   1.329 -0.2612 -0.7607  0.0934
 3290SOL    HW110704   5.127   5.029   1.326  0.7261 -0.6362 -0.8601
 3290SOL    HW210705   5.198   4.916   1.256  1.2290 -1.8215  1.4713
 3291SOL     OW10706   2.206   3.470   2.511  0.0800 -0.2470  0.0919
 3291SOL    HW110707   2.300   3.458   2.504  0.2437 -0.4032  2.1003
 3291SOL    HW210708   2.173   3.384   2.538 -0.4066  0.2219  1.0547
 3292SOL     OW10709   6.546   0.956   2.860 -0.0177  0.4138 -0.0190
 3292SOL    HW110710   6.491   0.934   2.935 -0.4194 -1.6964 -0.8654
 3292SOL    HW210711   6.634   0.966   2.897 -0.5416  1.4985  1.0009
 3293SOL     OW10712   4.170   3.914   5.127  0.0082  0.0271  0.0428
 3293SOL    HW110713   4.259   3.938   5.153  0.1258  1.0566 -1.1974
 3293SOL    HW210714   4.182   3.839   5.069  0.0373 -0.0545  0.1539
 3294SOL     OW10715   5.961   3.982   4.923 -0.2056 -0.1204  0.1656
 3294SOL    HW110716   6.040   3.999   4.872 -0.2513  3.7053  1.0376
 3294SOL    HW210717   5.992   3.970   5.012 -0.4863 -0.7363  0.1825
 3295SOL     OW10718   3.123   7.896   2.269  0.3702 -0.1526 -0.0935
 3295SOL    HW110719   3.178   7.938   2.336  0.4845 -1.9185  0.9923
 3295SOL    HW210720   3.034   7.919   2.293  0.3640 -1.2819  1.1083
 3296SOL     OW10721   5.206   1.943   4.536  0.0926 -0.5279 -0.3790
 3296SOL    HW110722   5.187   1.864   4.485 -0.4942  1.3304 -3.3209
 3296SOL    HW210723   5.235   2.007   4.470  1.2114  1.5242  1.9509
 3297SOL     OW10724   6.501   7.448   5.680 -0.0179  0.6691  0.1368
 3297SOL    HW110725   6.569   7.412   5.623  0.1774  0.2447  0.6285
 3297SOL    HW210726   6.493   7.539   5.652  0.4254  0.6035 -0.2343
 3298SOL     OW10727   5.779   1.134   5.562  0.2659 -0.1837  0.0541
 3298SOL    HW110728   5.712   1.134   5.494 -0.0865  0.7381  0.3832
 3298SOL    HW210729   5.854   1.178   5.523  0.2816 -0.2116  0.0535
 3299SOL     OW10730   4.763   6.721   6.541  0.3829  0.5352  0.3787
 3299SOL    HW110731   4.749   6.636   6.499  1.8123  0.3028  0.3330
 3299SOL    HW210732   4.855   6.741   6.525  0.1118  2.0173  0.5556
 3300SOL     OW10733   7.435   7.548   1.556  0.1167  0.5548  0.3649
 3300SOL    HW110734   7.461   7.457   1.539  0.5359  0.6131  0.6698
 3300SOL    HW210735   7.343   7.551   1.533  0.2957  0.2586 -0.4456
 3301SOL     OW10736   0.702   2.329   4.050 -0.2338 -0.1883  0.5435
 3301SOL    HW110737   0.712   2.416   4.089  0.8199 -0.5439  1.1203
 3301SOL    HW210738   0.671   2.273   4.122  0.2156 -0.5207  0.4867
 3302SOL     OW10739   0.120   7.579   6.613 -0.0914 -0.6315 -0.5967
 3302SOL    HW110740   0.178   7.640   6.659 -1.0188 -0.6356  0.6451
 3302SOL    HW210741   0.032   7.600   6.646 -0.6012 -1.7367 -1.1772
 3303SOL     OW10742   0.477   4.520   6.017 -0.8145 -0.0533 -0.2647
 3303SOL    HW110743   0.486   4.434   5.976 -0.7355 -0.3297  0.3176
 3303SOL    HW210744   0.400   4.513   6.073 -1.6573  0.7094 -1.2958
 3304SOL     OW10745   5.577   3.170   6.791 -0.4112 -0.6220 -0.2352
 3304SOL    HW110746   5.533   3.088   6.814 -0.6723 -0.7177 -1.0304
 3304SOL    HW210747   5.653   3.142   6.739 -0.4972 -0.3678 -0.5031
 3305SOL     OW10748   3.076   4.954   3.582  0.1659  0.4076 -0.2872
 3305SOL    HW110749   3.018   4.892   3.625 -2.3636  1.2290 -2.2593
 3305SOL    HW210750   3.060   5.037   3.626  1.8715  0.1634  0.8713
 3306SOL     OW10751   0.188   4.620   7.479 -0.1621 -0.2604  0.0957
 3306SOL    HW110752   0.260   4.671   7.516  0.1723  0.0808 -0.9861
 3306SOL    HW210753   0.112   4.644   7.532  0.4230 -0.2789  0.9617
 3307SOL     OW10754   5.234   0.083   3.413  0.0523 -0.1345  0.9724
 3307SOL    HW110755   5.285   0.111   3.489  0.9567 -0.6695  0.5719
 3307SOL    HW210756   5.299   0.063   3.346 -0.7357  1.1863 -0.2676
 3308SOL     OW10757   4.400   4.237   1.651 -0.0107 -0.1213  0.5241
 3308SOL    HW110758   4.428   4.301   1.717 -1.8722  0.5828  0.7081
 3308SOL    HW210759   4.434   4.272   1.569 -2.7428  2.3846  0.3041
 3309SOL     OW10760   2.514   6.622   0.091  0.2957  0.7261  0.1880
 3309SOL    HW110761   2.485   6.611   0.182  2.7435  0.1773  1.0005
 3309SOL    HW210762   2.608   6.642   0.099  0.7722 -0.2428 -2.2477
 3310SOL     OW10763   3.136   1.672   5.432 -0.1283 -0.0023  0.2567
 3310SOL    HW110764   3.107   1.761   5.411 -2.1852 -0.6989 -0.0926
 3310SOL    HW210765   3.109   1.658   5.522 -1.7912 -0.9746 -0.3518
 3311SOL     OW10766   1.645   5.559   6.074  0.7359  0.0239  0.0499
 3311SOL    HW110767   1.740   5.565   6.084  0.6535  0.3152  0.7551
 3311SOL    HW210768   1.631   5.485   6.014  1.4220  0.3374 -0.5046
 3312SOL     OW10769   1.748   5.787   1.283 -0.1249  0.2544  0.0067
 3312SOL    HW110770   1.660   5.825   1.283  0.0578  0.7066  0.5409
 3312SOL    HW210771   1.779   5.796   1.193 -1.6513 -2.4211 -0.8941
 3313SOL     OW10772   3.357   3.405   3.719 -0.4124  0.1076 -0.1439
 3313SOL    HW110773   3.406   3.323   3.720 -1.4228 -0.5585  2.4248
 3313SOL    HW210774   3.423   3.472   3.741 -0.1026 -0.4170  0.5678
 3314SOL     OW10775   5.854   1.738   4.522 -0.1683  0.6118 -0.0717
 3314SOL    HW110776   5.949   1.731   4.510 -0.0248  1.9449  0.1786
 3314SOL    HW210777   5.844   1.788   4.603 -1.0804  1.0393 -0.4378
 3315SOL     OW10778   7.052   7.503   2.799  0.2483 -0.0945 -0.4382
 3315SOL    HW110779   6.976   7.544   2.758  0.2932 -0.2180 -0.6485
 3315SOL    HW210780   7.124   7.521   2.738  0.5242  0.5793  0.0671
 3316SOL     OW10781   6.950   1.429   3.822 -0.1081 -0.3297 -0.3032
 3316SOL    HW110782   6.869   1.474   3.846  1.3090  0.7929  2.9851
 3316SOL    HW210783   7.001   1.496   3.777  0.6064  0.3654  1.4537
 3317SOL     OW10784   2.974   3.059   7.722 -0.1695 -0.3529  0.7936
 3317SOL    HW110785   2.939   3.105   7.798 -0.0477 -1.0825  1.2959
 3317SOL    HW210786   3.016   2.981   7.758  0.5639 -0.3121  0.0463
 3318SOL     OW10787   0.969   7.666   7.154  0.5891  0.0277 -0.0145
 3318SOL    HW110788   1.039   7.603   7.173  1.2347  1.0208  1.1061
 3318SOL    HW210789   0.888   7.621   7.177  0.9010 -0.9173 -0.7191
 3319SOL     OW10790   7.755   4.215   3.498 -0.1516 -0.5719 -0.3324
 3319SOL    HW110791   7.803   4.298   3.502  1.1455 -1.3307  1.6998
 3319SOL    HW210792   7.820   4.152   3.466 -0.0343 -1.3912  1.3641
 3320SOL     OW10793   3.863   5.148   3.406 -0.0843  0.6407 -0.1755
 3320SOL    HW110794   3.862   5.232   3.361  0.7951  0.2172 -1.0373
 3320SOL    HW210795   3.955   5.135   3.430 -0.2575  0.0558  0.1919
 3321SOL     OW10796   2.975   2.018   6.649  0.2533  0.6182 -0.2205
 3321SOL    HW110797   3.052   1.971   6.682 -0.0114  0.1519 -0.2654
 3321SOL    HW210798   2.926   2.041   6.728  0.0503  0.2421 -0.2344
 3322SOL     OW10799   4.308   6.519   3.448 -0.9697  0.2419 -0.7071
 3322SOL    HW110800   4.231   6.523   3.391 -0.5990 -0.2412 -1.2487
 3322SOL    HW210801   4.379   6.491   3.390 -0.6874 -0.7455  0.0963
 3323SOL     OW10802   5.831   7.925   4.163 -0.8028  0.1467  0.2398
 3323SOL    HW110803   5.876   7.969   4.235 -0.1759 -0.7977  0.4263
 3323SOL    HW210804   5.814   7.995   4.100  0.1836  0.6615  0.5329
 3324SOL     OW10805   3.641   0.229   3.733  0.2216  0.1172  0.4487
 3324SOL    HW110806   3.656   0.199   3.823  0.5319 -0.4491  0.2149
 3324SOL    HW210807   3.726   0.265   3.706  0.8928 -1.9809 -0.4611
 3325SOL     OW10808   7.333   6.332   4.020 -0.2456  0.2638  0.2413
 3325SOL    HW110809   7.333   6.287   4.105 -0.2687  2.5757  1.5383
 3325SOL    HW210810   7.421   6.317   3.986  0.0712  0.0746  1.1063
 3326SOL     OW10811   7.355   3.018   0.930 -0.3192 -0.6902 -0.2384
 3326SOL    HW110812   7.300   2.950   0.893 -2.2910  1.9698 -2.7213
 3326SOL    HW210813   7.443   2.996   0.900 -0.8531 -2.2518 -0.7753
 3327SOL     OW10814   5.653   3.739   6.620 -0.2341 -0.4372 -0.0252
 3327SOL    HW110815   5.611   3.662   6.581  0.8238 -1.2616  0.3956
 3327SOL    HW210816   5.623   3.740   6.711 -0.2324 -0.3744 -0.0253
 3328SOL     OW10817   0.579   0.614   3.449  0.7801 -0.1706  0.5744
 3328SOL    HW110818   0.612   0.654   3.529 -1.5120  0.7020  1.1781
 3328SOL    HW210819   0.629   0.533   3.439  0.5438 -0.7702  3.4205
 3329SOL     OW10820   0.444   4.974   7.579  0.3239  0.2062 -0.3769
 3329SOL    HW110821   0.486   4.905   7.527 -0.8551 -0.1711 -0.8642
 3329SOL    HW210822   0.448   5.052   7.524  1.0730  0.3689 -0.0976
 3330SOL     OW10823   3.285   1.391   1.948 -1.0368  0.3802 -0.3820
 3330SOL    HW110824   3.378   1.391   1.928 -0.6092 -0.5324  1.4062
 3330SOL    HW210825   3.243   1.358   1.868  0.1495  0.7376 -1.1800
 3331SOL     OW10826   3.254   3.861   1.242 -0.2580  0.3752 -0.3705
 3331SOL    HW110827   3.259   3.766   1.234 -1.9116  0.3328 -1.5223
 3331SOL    HW210828   3.321   3.884   1.306  1.3665 -1.3743 -1.3591
 3332SOL     OW10829   4.991   6.917   5.814  0.2369  0.3836  0.1351
 3332SOL    HW110830   4.944   6.913   5.897 -0.3108  0.4761 -0.1719
 3332SOL    HW210831   4.987   7.009   5.788  2.0558  0.7499  0.9386
 3333SOL     OW10832   4.064   7.885   1.656 -0.3111  0.1180 -0.3309
 3333SOL    HW110833   4.059   7.811   1.596  0.3475  0.1919 -0.4773
 3333SOL    HW210834   4.107   7.851   1.734 -0.1912  0.2932 -0.3188
 3334SOL     OW10835   6.840   0.909   2.734  0.4254 -0.3499 -0.0742
 3334SOL    HW110836   6.934   0.893   2.729  0.4171 -0.7080  0.8685
 3334SOL    HW210837   6.817   0.890   2.825 -0.4490  0.3225 -0.1458
 3335SOL     OW10838   2.889   1.929   6.394 -0.6688  0.0466 -0.3277
 3335SOL    HW110839   2.976   1.903   6.364 -1.5502  1.0578 -4.2797
 3335SOL    HW210840   2.904   1.964   6.482  2.8061 -0.3011 -0.6438
 3336SOL     OW10841   6.013   3.335   1.812  0.2462 -0.4009 -0.0100
 3336SOL    HW110842   5.924   3.342   1.846  0.6401  0.1591  0.9476
 3336SOL    HW210843   6.069   3.362   1.885  1.1570  0.2682 -0.9230
 3337SOL     OW10844   3.474   0.959   4.837  0.3719 -0.1641  0.4008
 3337SOL    HW110845   3.417   1.035   4.825  0.5398 -0.0451  0.3472
 3337SOL    HW210846   3.434   0.910   4.908  1.5216  1.1781  2.0800
 3338SOL     OW10847   5.470   1.290   1.321 -0.1340  0.0701 -0.0290
 3338SOL    HW110848   5.437   1.376   1.293  2.0871  1.1874  0.5678
 3338SOL    HW210849   5.498   1.304   1.411 -0.1895 -1.4456  0.2344
 3339SOL     OW10850   4.781   3.469   7.175  0.1466 -0.1651 -0.3265
 3339SOL    HW110851   4.821   3.500   7.094  0.4943 -1.1496 -0.5439
 3339SOL    HW210852   4.853   3.429   7.224 -0.2395 -0.3905  0.0661
 3340SOL     OW10853   7.490   4.911   1.983 -0.0901 -0.2917  0.0028
 3340SOL    HW110854   7.510   4.963   2.061 -2.9693 -1.1627  1.4854
 3340SOL    HW210855   7.513   4.822   2.008  0.5259 -0.3704 -0.8117
 3341SOL     OW10856   1.754   5.598   7.409  1.0022 -0.5713  0.5541
 3341SOL    HW110857   1.787   5.571   7.495  1.6789 -0.8072  0.2259
 3341SOL    HW210858   1.730   5.690   7.420  0.6601 -0.7246  1.1172
 3342SOL     OW10859   2.328   1.809   2.853  0.1980 -0.0576  0.1403
 3342SOL    HW110860   2.258   1.846   2.907  0.7524  1.7601 -0.2856
 3342SOL    HW210861   2.299   1.825   2.763  0.3411 -0.9231 -0.0614
 3343SOL     OW10862   1.639   3.930   0.213 -0.9200 -0.2945 -0.0331
 3343SOL    HW110863   1.650   3.904   0.122 -0.6957 -0.1411 -0.0504
 3343SOL    HW210864   1.637   4.025   0.211 -0.4941 -0.2790  0.1678
 3344SOL     OW10865   0.519   0.992   1.292 -0.0649 -0.4419  0.1955
 3344SOL    HW110866   0.590   1.042   1.331 -1.4141  0.8131  1.1344
 3344SOL    HW210867   0.474   1.055   1.235 -1.5877 -0.6487  1.1267
 3345SOL     OW10868   7.823   4.010   2.177  0.1733  0.2717 -0.4594
 3345SOL    HW110869   7.806   4.098   2.209 -1.3267 -0.8324  2.1112
 3345SOL    HW210870   7.761   3.998   2.105 -1.4825  0.4956  0.8660
 3346SOL     OW10871   4.809   5.975   1.358 -1.0104 -0.3205  0.4857
 3346SOL    HW110872   4.803   5.889   1.400 -0.4740 -0.2560  0.6964
 3346SOL    HW210873   4.802   6.037   1.431 -0.8785 -0.1933  0.3895
 3347SOL     OW10874   7.460   1.085   5.346  0.1118  0.1928 -0.3593
 3347SOL    HW110875   7.447   1.023   5.274 -0.8921  1.3783 -1.2504
 3347SOL    HW210876   7.499   1.033   5.416  0.4599 -1.1526 -1.5110
 3348SOL     OW10877   6.589   1.365   3.646  0.6345  0.2219  0.2414
 3348SOL    HW110878   6.567   1.364   3.739  0.9715  1.2772  0.3505
 3348SOL    HW210879   6.506   1.382   3.601  0.7499  1.5011  0.4772
 3349SOL     OW10880   5.542   7.542   6.090 -0.1262  0.2522 -0.1820
 3349SOL    HW110881   5.498   7.460   6.070  0.1798 -0.3038  1.2520
 3349SOL    HW210882   5.609   7.518   6.154 -1.2073  1.8675  1.6838
 3350SOL     OW10883   6.575   0.769   1.725  0.2495 -0.2948 -0.4457
 3350SOL    HW110884   6.605   0.846   1.772  3.2587 -1.7570  0.2478
 3350SOL    HW210885   6.501   0.800   1.673  0.1396  2.5699  1.2353
 3351SOL     OW10886   4.657   3.447   5.500  0.2087 -0.2503  0.0956
 3351SOL    HW110887   4.617   3.370   5.540 -0.1795  0.2909  0.7729
 3351SOL    HW210888   4.631   3.443   5.408  0.5276 -1.1353  0.0320
 3352SOL     OW10889   1.259   3.433   3.878 -0.3578 -0.0223 -0.0956
 3352SOL    HW110890   1.320   3.371   3.839  0.3447  0.4434  0.2322
 3352SOL    HW210891   1.295   3.450   3.965  0.0305  1.6070 -0.5421
 3353SOL     OW10892   7.892   6.511   7.837  0.3019  0.4146 -0.6322
 3353SOL    HW110893   7.915   6.424   7.805  0.6443  0.9804 -1.9630
 3353SOL    HW210894   7.882   6.565   7.758  0.7890  1.7563  0.1795
 3354SOL     OW10895   1.750   4.707   5.273 -0.5886 -0.2034  0.0113
 3354SOL    HW110896   1.783   4.623   5.243  0.3503 -0.0292  0.5331
 3354SOL    HW210897   1.734   4.757   5.193  0.1598 -0.3931 -0.2635
 3355SOL     OW10898   3.752   5.256   3.762  0.2166  0.0261  0.2010
 3355SOL    HW110899   3.710   5.195   3.700 -0.5319  0.5177  0.2035
 3355SOL    HW210900   3.787   5.200   3.831 -1.3183 -0.3562  0.7118
 3356SOL     OW10901   2.216   7.168   3.548 -0.2519  0.1448 -0.4856
 3356SOL    HW110902   2.159   7.244   3.559  0.7388  1.2161 -2.3088
 3356SOL    HW210903   2.163   7.104   3.501 -0.2024  0.8440 -1.5120
 3357SOL     OW10904   4.222   6.261   4.006  0.0338  0.5901 -0.4764
 3357SOL    HW110905   4.146   6.319   4.012  1.3610  2.3220  0.5404
 3357SOL    HW210906   4.278   6.303   3.940 -0.1874 -1.0985 -1.8205
 3358SOL     OW10907   3.493   0.087   7.149  0.0783  0.1734  0.5122
 3358SOL    HW110908   3.571   0.083   7.094  0.5103  0.1519  1.1095
 3358SOL    HW210909   3.502   0.170   7.197 -0.0115 -0.0593  0.9402
 3359SOL     OW10910   5.057   2.709   2.097  0.1336 -0.2614 -0.2582
 3359SOL    HW110911   5.056   2.614   2.111 -2.0873 -0.3091 -0.4215
 3359SOL    HW210912   5.134   2.724   2.043  1.3963 -1.7542  0.9975
 3360SOL     OW10913   6.815   4.305   0.853 -0.1432  0.9019  0.2372
 3360SOL    HW110914   6.739   4.361   0.870  0.0257  1.2527 -0.1433
 3360SOL    HW210915   6.890   4.359   0.876  0.2071  2.0113 -2.9379
 3361SOL     OW10916   2.888   1.715   4.668  0.2158 -0.2099 -0.4291
 3361SOL    HW110917   2.946   1.718   4.744 -1.2950 -0.8378  0.8028
 3361SOL    HW210918   2.907   1.796   4.620  1.9051 -0.2877  0.0451
 3362SOL     OW10919   1.475   2.356   5.565 -0.4315  0.1659  0.2574
 3362SOL    HW110920   1.439   2.295   5.629 -0.2618  0.6494  0.8330
 3362SOL    HW210921   1.569   2.356   5.583 -0.5078  1.1134  0.7485
 3363SOL     OW10922   4.177   6.814   5.050  0.2153  0.0849  0.0442
 3363SOL    HW110923   4.125   6.734   5.057  1.5892 -0.8852 -0.2250
 3363SOL    HW210924   4.227   6.818   5.132  0.7203  0.2289 -0.2606
 3364SOL     OW10925   5.909   3.574   2.008  0.0556 -0.3101  0.5960
 3364SOL    HW110926   5.951   3.657   1.986 -0.0779 -0.0552  1.2760
 3364SOL    HW210927   5.850   3.595   2.081  0.5427 -1.1325  1.2522
 3365SOL     OW10928   7.067   3.946   1.056 -0.0830 -0.1796  0.3847
 3365SOL    HW110929   7.052   3.872   1.114  0.1193 -1.5220 -1.1836
 3365SOL    HW210930   7.101   3.906   0.975 -0.5278  1.5663 -0.7211
 3366SOL     OW10931   7.069   4.279   3.542 -0.2615 -0.2340  0.0277
 3366SOL    HW110932   7.028   4.327   3.470  2.6890 -1.0031 -2.3544
 3366SOL    HW210933   7.109   4.347   3.596  1.0158  0.2459 -1.4443
 3367SOL     OW10934   2.245   1.085   6.317  0.0234  0.5875 -0.0264
 3367SOL    HW110935   2.168   1.140   6.324 -0.2815  0.0612  0.9649
 3367SOL    HW210936   2.309   1.138   6.270 -1.1716  0.7604 -1.5312
 3368SOL     OW10937   0.745   7.247   7.071 -0.2974  0.0179 -0.1627
 3368SOL    HW110938   0.764   7.275   6.982 -2.1615 -0.4062 -0.7326
 3368SOL    HW210939   0.778   7.157   7.076  0.4150  0.2681 -0.1811
 3369SOL     OW10940   1.415   6.334   5.096 -0.3064  0.0574  1.2953
 3369SOL    HW110941   1.396   6.426   5.079 -1.2578 -0.2267  0.7568
 3369SOL    HW210942   1.500   6.335   5.140 -0.5546  1.2260  1.7886
 3370SOL     OW10943   1.525   1.217   2.320 -0.1020 -0.1521 -0.5063
 3370SOL    HW110944   1.596   1.265   2.364 -0.4779 -0.2885  0.2643
 3370SOL    HW210945   1.506   1.144   2.379  0.3396 -1.1633 -1.5820
 3371SOL     OW10946   2.252   6.262   3.891  0.1276  0.3778  0.1714
 3371SOL    HW110947   2.308   6.339   3.903  0.9500  0.2941 -2.3618
 3371SOL    HW210948   2.187   6.290   3.825  0.0894 -0.9023 -0.3684
 3372SOL     OW10949   3.975   1.218   7.178 -0.2316  0.1826  0.0958
 3372SOL    HW110950   3.968   1.311   7.200 -1.0464 -0.1296  1.2663
 3372SOL    HW210951   3.892   1.180   7.206  0.7425 -1.2163  1.2826
 3373SOL     OW10952   0.555   6.115   4.665 -0.3473 -0.1695  0.2158
 3373SOL    HW110953   0.626   6.086   4.607  0.0579  2.8790 -1.0138
 3373SOL    HW210954   0.490   6.153   4.606 -0.3617  2.1824  1.5997
 3374SOL     OW10955   4.375   5.787   2.606  0.5225 -0.1843 -0.4559
 3374SOL    HW110956   4.287   5.782   2.643  0.5946 -1.7471 -0.4313
 3374SOL    HW210957   4.365   5.757   2.515  0.9902 -0.1128 -0.5347
 3375SOL     OW10958   6.302   3.691   5.827 -0.2403  0.3224 -0.3579
 3375SOL    HW110959   6.351   3.751   5.884  0.6423  0.2696 -1.0368
 3375SOL    HW210960   6.217   3.681   5.870  1.2628 -1.8531  2.4352
 3376SOL     OW10961   5.737   6.051   7.484  0.0799 -0.8293 -0.0851
 3376SOL    HW110962   5.832   6.049   7.498  0.2740  0.9057 -0.9030
 3376SOL    HW210963   5.704   5.977   7.534  1.7755 -0.9074  0.9970
 3377SOL     OW10964   2.282   3.876   2.364 -0.2051  0.5102 -0.8472
 3377SOL    HW110965   2.271   3.931   2.442  0.5084 -0.2639 -0.1780
 3377SOL    HW210966   2.272   3.787   2.396 -1.0253  0.2207 -1.8653
 3378SOL     OW10967   1.761   1.933   7.711 -0.0306 -0.1394  0.0037
 3378SOL    HW110968   1.691   1.990   7.746  0.9511  1.2532 -0.2108
 3378SOL    HW210969   1.774   1.965   7.622  2.0328  0.7930  0.5879
 3379SOL     OW10970   0.591   3.876   7.093 -0.3140 -0.4131 -0.1544
 3379SOL    HW110971   0.549   3.947   7.142 -0.1602  0.0057 -0.6213
 3379SOL    HW210972   0.642   3.920   7.026 -0.0366 -0.9629 -0.3109
 3380SOL     OW10973   4.451   1.776   6.807  0.4855  0.3428 -0.2842
 3380SOL    HW110974   4.379   1.839   6.795 -1.2856 -1.7424 -1.2384
 3380SOL    HW210975   4.509   1.818   6.870  0.0670  3.4595 -1.7800
 3381SOL     OW10976   2.565   7.460   0.554  0.2069  0.1374  0.2912
 3381SOL    HW110977   2.598   7.544   0.585  2.3919  0.1388 -1.7837
 3381SOL    HW210978   2.503   7.483   0.484  0.5136  0.0582 -0.0123
 3382SOL     OW10979   1.493   1.431   6.824  0.2251  0.0467  0.4161
 3382SOL    HW110980   1.540   1.377   6.887  0.9579  1.0744  0.7656
 3382SOL    HW210981   1.521   1.521   6.842  1.3973  0.2893 -2.1336
 3383SOL     OW10982   6.748   7.616   3.083 -0.1445 -0.1428 -0.1715
 3383SOL    HW110983   6.655   7.629   3.065 -0.6965 -0.1351  2.3523
 3383SOL    HW210984   6.783   7.704   3.098 -0.4046 -0.3001  1.6064
 3384SOL     OW10985   0.042   6.373   2.705 -0.4010 -0.0839  0.1113
 3384SOL    HW110986   0.031   6.409   2.616  0.6451 -1.3928 -0.5772
 3384SOL    HW210987   0.108   6.430   2.745  0.5236 -0.6150 -0.6266
 3385SOL     OW10988   6.641   5.496   6.259 -0.1198 -0.0755 -0.3302
 3385SOL    HW110989   6.731   5.517   6.234 -0.5993  1.1306 -1.1005
 3385SOL    HW210990   6.612   5.432   6.194  0.8654 -2.2128  1.1938
 3386SOL     OW10991   2.479   6.359   1.413 -0.3773  0.1761 -0.2290
 3386SOL    HW110992   2.416   6.378   1.483 -0.4295 -1.8775  0.3393
 3386SOL    HW210993   2.561   6.397   1.445 -0.6361  0.1903  0.4441
 3387SOL     OW10994   3.201   2.930   2.595 -0.1989 -0.2735 -0.5608
 3387SOL    HW110995   3.259   2.936   2.671  1.1001 -1.7524 -1.3991
 3387SOL    HW210996   3.245   2.870   2.535 -2.0349 -0.5142 -1.7460
 3388SOL     OW10997   1.722   5.253   0.794  0.6232  0.7752 -0.1381
 3388SOL    HW110998   1.733   5.300   0.877  0.1487  0.1542  0.2858
 3388SOL    HW210999   1.635   5.215   0.800  1.2765 -0.7738 -0.1544
 3389SOL     OW11000   3.674   1.019   7.910 -0.2252 -0.5336 -0.1937
 3389SOL    HW111001   3.579   1.027   7.915 -0.0790  3.6453 -0.5036
 3389SOL    HW211002   3.704   1.026   8.000 -0.1860  1.7165 -0.3236
 3390SOL     OW11003   5.524   0.307   7.172  0.2501  0.0908  0.4315
 3390SOL    HW111004   5.459   0.372   7.144  0.9508  0.8993  0.6253
 3390SOL    HW211005   5.586   0.302   7.099  1.0328  0.7895  1.0230
 3391SOL     OW11006   3.892   2.253   6.889 -0.4024 -0.4460 -0.0232
 3391SOL    HW111007   3.963   2.305   6.851 -0.7956  0.3989  0.3734
 3391SOL    HW211008   3.932   2.208   6.963 -0.2356 -0.1027  0.0982
 3392SOL     OW11009   0.516   1.581   1.218  0.3033  0.0983  0.4405
 3392SOL    HW111010   0.508   1.573   1.313  0.6121 -0.2486  0.4373
 3392SOL    HW211011   0.426   1.584   1.187  0.1823  1.3527  0.8352
 3393SOL     OW11012   7.595   2.882   4.584 -0.0575  0.3961  0.0287
 3393SOL    HW111013   7.643   2.882   4.500 -0.0612  0.2534  0.0260
 3393SOL    HW211014   7.554   2.968   4.588  0.8725  0.8337  0.4145
 3394SOL     OW11015   7.309   6.927   1.860 -0.1984  0.0230 -0.4646
 3394SOL    HW111016   7.317   6.968   1.774  0.3123 -1.0199 -0.9277
 3394SOL    HW211017   7.393   6.945   1.903 -0.1169 -0.2038 -0.5261
 3395SOL     OW11018   6.412   1.972   5.758 -0.6276  0.0942 -0.5337
 3395SOL    HW111019   6.454   2.054   5.786 -2.1744  0.7388 -0.0078
 3395SOL    HW211020   6.483   1.908   5.760  1.0532  1.7059 -2.5815
 3396SOL     OW11021   1.967   7.338   0.380  0.2595 -0.4432  0.0205
 3396SOL    HW111022   1.905   7.344   0.452  0.0805  2.2088 -0.2540
 3396SOL    HW211023   1.912   7.331   0.302  0.2283  2.0252 -0.2328
 3397SOL     OW11024   6.989   7.911   4.582 -0.5355  0.3280  0.4546
 3397SOL    HW111025   6.981   7.913   4.486  0.6764  2.7232  0.3057
 3397SOL    HW211026   7.057   7.846   4.599  0.0616  0.7060 -0.4275
 3398SOL     OW11027   4.714   0.391   2.788 -0.3860 -0.2621 -0.9469
 3398SOL    HW111028   4.775   0.441   2.843 -0.8584 -0.3252 -0.3657
 3398SOL    HW211029   4.771   0.340   2.730  0.1153  1.0814 -1.6928
 3399SOL     OW11030   7.278   1.794   5.753 -0.1196 -0.5810 -0.3566
 3399SOL    HW111031   7.286   1.786   5.658  0.0126 -0.5540 -0.3482
 3399SOL    HW211032   7.301   1.707   5.786  0.4996 -0.4100 -0.3124
 3400SOL     OW11033   4.932   5.524   0.156  0.4565  0.0621  0.1997
 3400SOL    HW111034   4.881   5.443   0.153 -0.5849  0.6764  0.7634
 3400SOL    HW211035   4.969   5.532   0.068  0.1901 -0.7807  0.0027
 3401SOL     OW11036   6.683   7.467   1.068  0.0846 -0.1960  1.0296
 3401SOL    HW111037   6.737   7.490   0.992 -0.7530  1.8332  0.9869
 3401SOL    HW211038   6.638   7.386   1.042 -0.0336  0.3370 -0.5684
 3402SOL     OW11039   2.368   7.169   7.380 -0.2198 -0.0180  0.2556
 3402SOL    HW111040   2.357   7.261   7.356  1.5950 -0.1435 -1.3431
 3402SOL    HW211041   2.449   7.143   7.335 -0.5496 -2.3227  0.8997
 3403SOL     OW11042   3.179   0.636   5.868 -0.0691 -0.2265  0.2894
 3403SOL    HW111043   3.274   0.639   5.863  0.1717  0.5398  3.2904
 3403SOL    HW211044   3.149   0.696   5.800  1.6049  0.1966 -0.1111
 3404SOL     OW11045   5.815   5.128   0.929  0.4784 -0.0870  0.3516
 3404SOL    HW111046   5.910   5.125   0.918  0.4991  0.6648  0.2485
 3404SOL    HW211047   5.799   5.094   1.017  0.6520 -2.3178 -0.4155
 3405SOL     OW11048   6.342   1.275   0.171  0.2814 -0.5116 -0.4245
 3405SOL    HW111049   6.389   1.207   0.218  0.6409  0.8277  1.2767
 3405SOL    HW211050   6.378   1.274   0.083  0.5769 -2.1925 -0.3168
 3406SOL     OW11051   5.523   4.668   4.873 -0.2600 -0.3035  0.0564
 3406SOL    HW111052   5.515   4.627   4.958 -1.5947 -0.6208 -0.1962
 3406SOL    HW211053   5.502   4.599   4.810 -0.7396  0.2880 -0.4548
 3407SOL     OW11054   7.177   7.394   1.032  0.2614  0.1907 -0.0045
 3407SOL    HW111055   7.218   7.425   0.951  0.6114 -1.5107 -0.5242
 3407SOL    HW211056   7.102   7.343   1.003  0.1371 -0.0795  0.7679
 3408SOL     OW11057   1.813   6.949   1.851 -0.2280  0.6211 -0.4862
 3408SOL    HW111058   1.840   7.028   1.898  1.5436  0.1329 -0.6292
 3408SOL    HW211059   1.764   6.983   1.775  0.0956  1.5602 -0.2967
 3409SOL     OW11060   4.970   1.882   7.597 -0.1908 -0.7060 -0.3497
 3409SOL    HW111061   4.968   1.795   7.556 -0.4993 -1.1369  0.5540
 3409SOL    HW211062   4.908   1.875   7.669 -1.0796  0.6166 -0.9475
 3410SOL     OW11063   1.134   5.631   7.628 -0.1620  0.6883  0.1020
 3410SOL    HW111064   1.042   5.604   7.635  0.4605 -1.0587  3.6047
 3410SOL    HW211065   1.151   5.677   7.711  2.4441 -0.2127  0.1264
 3411SOL     OW11066   0.869   5.135   5.859 -0.2728 -0.0758 -0.2548
 3411SOL    HW111067   0.897   5.180   5.939  0.0675 -1.0836  0.2203
 3411SOL    HW211068   0.935   5.067   5.846 -0.4127 -0.0277 -1.3169
 3412SOL     OW11069   4.941   2.224   3.596  0.2291  0.4085  0.0294
 3412SOL    HW111070   4.910   2.136   3.574  0.6434  0.2039  0.2670
 3412SOL    HW211071   5.028   2.229   3.557 -0.1151  1.0069 -0.6851
 3413SOL     OW11072   5.129   5.124   0.684  0.9907  0.6982  0.8715
 3413SOL    HW111073   5.192   5.084   0.744  1.1519  1.7694  1.4407
 3413SOL    HW211074   5.088   5.050   0.639 -0.2149 -0.2627  3.3645
 3414SOL     OW11075   4.022   6.566   1.306 -0.2337  0.1516 -0.2327
 3414SOL    HW111076   3.963   6.607   1.243 -0.4169  0.0630 -0.1219
 3414SOL    HW211077   3.965   6.539   1.378 -0.0330  0.2129 -0.0474
 3415SOL     OW11078   4.691   6.727   3.372  0.0832 -0.1546  0.2409
 3415SOL    HW111079   4.753   6.693   3.307 -0.6318  1.7503 -1.5581
 3415SOL    HW211080   4.607   6.728   3.326 -0.5240  0.9235  1.3144
 3416SOL     OW11081   1.692   4.703   0.969  0.0989 -0.3473  0.4120
 3416SOL    HW111082   1.733   4.788   0.989  0.1666 -0.3807  0.4174
 3416SOL    HW211083   1.638   4.684   1.046  0.0550 -0.2913  0.3949
 3417SOL     OW11084   1.384   2.777   6.354  0.3806  0.0925 -0.4197
 3417SOL    HW111085   1.307   2.738   6.396  0.2813 -0.6584 -1.2623
 3417SOL    HW211086   1.367   2.770   6.260  0.3605  2.2184 -0.6211
 3418SOL     OW11087   7.343   1.611   2.809 -0.5971  0.0827 -0.0188
 3418SOL    HW111088   7.390   1.539   2.767 -0.9883 -0.1738 -0.0241
 3418SOL    HW211089   7.275   1.568   2.861  0.4700  0.3476  1.6470
 3419SOL     OW11090   0.851   5.699   3.961 -0.1706 -0.5809 -0.7576
 3419SOL    HW111091   0.851   5.624   4.020 -1.6007  0.5400  0.7740
 3419SOL    HW211092   0.938   5.738   3.970 -0.6064  0.0039  1.2482
 3420SOL     OW11093   5.469   1.339   2.819 -0.0367 -0.1936  0.4352
 3420SOL    HW111094   5.457   1.402   2.889  2.3370  0.2186  0.5504
 3420SOL    HW211095   5.482   1.392   2.740 -1.1875 -0.6251 -0.0712
 3421SOL     OW11096   4.019   1.478   5.217 -0.2523 -0.8540 -0.1469
 3421SOL    HW111097   3.926   1.487   5.201 -0.1678 -0.2235 -0.2877
 3421SOL    HW211098   4.061   1.533   5.152  0.3049 -2.5127 -1.2543
 3422SOL     OW11099   2.177   0.848   1.208  0.4119  0.3778 -0.5019
 3422SOL    HW111100   2.255   0.817   1.254 -0.7751 -1.5913  0.3144
 3422SOL    HW211101   2.203   0.932   1.170  2.6445  0.1846  0.4573
 3423SOL     OW11102   6.932   3.733   2.389 -0.6319 -0.2963  0.3477
 3423SOL    HW111103   7.011   3.686   2.416  0.0169  1.5428  1.8247
 3423SOL    HW211104   6.958   3.776   2.308 -1.0245 -1.8567 -0.6559
 3424SOL     OW11105   4.638   0.281   5.911  0.2693 -0.4763 -0.3860
 3424SOL    HW111106   4.707   0.301   5.847  0.0704  1.9931  0.0819
 3424SOL    HW211107   4.577   0.354   5.904 -0.8241 -1.1927  1.2005
 3425SOL     OW11108   1.984   6.195   1.093  0.4787 -0.1436 -0.3157
 3425SOL    HW111109   1.986   6.110   1.136 -1.2841 -0.4807 -0.8274
 3425SOL    HW211110   1.892   6.218   1.089  0.8321  1.2351 -1.2674
 3426SOL     OW11111   5.821   3.142   2.544  0.1156  0.2897 -0.0571
 3426SOL    HW111112   5.761   3.191   2.487  0.2315  4.6981  3.0411
 3426SOL    HW211113   5.763   3.096   2.605 -0.2358  1.8098  0.8308
 3427SOL     OW11114   0.388   3.598   5.145  0.3321  0.2554 -0.0872
 3427SOL    HW111115   0.412   3.592   5.237  0.9998 -0.4030 -0.3011
 3427SOL    HW211116   0.471   3.602   5.098  0.0042  1.0890 -0.6436
 3428SOL     OW11117   6.483   7.307   7.660 -0.2962  0.3538 -0.5876
 3428SOL    HW111118   6.501   7.321   7.568 -0.2748  0.7081 -0.5311
 3428SOL    HW211119   6.391   7.279   7.662  0.7993 -3.8651 -1.0954
 3429SOL     OW11120   4.762   3.113   5.711 -0.1005 -0.2768  0.0682
 3429SOL    HW111121   4.802   3.177   5.769 -0.4864  0.5213 -0.5169
 3429SOL    HW211122   4.828   3.044   5.701  0.1413 -0.1996  1.0694
 3430SOL     OW11123   3.889   4.781   6.461 -0.5705 -0.1751  0.0251
 3430SOL    HW111124   3.893   4.784   6.556  0.0647  0.8509 -0.0135
 3430SOL    HW211125   3.968   4.826   6.432 -2.2248  2.3792 -0.9584
 3431SOL     OW11126   6.289   5.398   4.215 -0.5074 -0.3628 -0.2346
 3431SOL    HW111127   6.257   5.345   4.142 -0.8156 -0.2805 -0.1609
 3431SOL    HW211128   6.343   5.338   4.267 -1.2900 -0.7531  0.1423
 3432SOL     OW11129   5.026   0.142   6.651 -0.1095 -0.0705 -0.0568
 3432SOL    HW111130   5.009   0.215   6.710  0.7674 -0.4676  0.7016
 3432SOL    HW211131   5.063   0.074   6.706 -0.5272 -0.9473 -0.8342
 3433SOL     OW11132   2.184   5.871   0.974 -0.3393 -0.3195  0.8161
 3433SOL    HW111133   2.237   5.831   0.905 -0.1742 -0.9075  1.2805
 3433SOL    HW211134   2.245   5.884   1.047 -0.8389 -1.0560  1.3759
 3434SOL     OW11135   1.138   0.978   7.847 -0.4957  0.1196  0.2236
 3434SOL    HW111136   1.149   0.970   7.752 -1.8881  1.7125 -0.1192
 3434SOL    HW211137   1.064   0.921   7.868  0.7001 -1.3469  0.6220
 3435SOL     OW11138   6.292   0.285   1.177  0.5277 -0.7970 -0.1732
 3435SOL    HW111139   6.277   0.380   1.175 -2.1318 -1.1083  0.6555
 3435SOL    HW211140   6.380   0.274   1.142  1.0909  2.0051  0.1082
 3436SOL     OW11141   0.746   7.884   3.289 -0.6127  0.0125 -0.2216
 3436SOL    HW111142   0.728   7.820   3.220 -0.4614  1.1303 -1.3323
 3436SOL    HW211143   0.679   7.952   3.277 -0.1747  0.5527  0.3128
 3437SOL     OW11144   0.253   2.297   7.321 -0.5430 -0.2437  0.2082
 3437SOL    HW111145   0.249   2.325   7.413  1.0476 -1.9640  0.8754
 3437SOL    HW211146   0.322   2.230   7.320 -2.3868 -2.2688 -1.6906
 3438SOL     OW11147   6.961   0.460   4.242 -0.0534 -0.2308  0.0209
 3438SOL    HW111148   6.893   0.516   4.279 -0.0947 -1.1755  1.4536
 3438SOL    HW211149   6.924   0.431   4.158 -0.1121  1.6604 -0.6595
 3439SOL     OW11150   0.334   7.011   2.805  0.0231 -0.0041 -0.6926
 3439SOL    HW111151   0.377   6.948   2.747  1.8671  0.8717 -0.3521
 3439SOL    HW211152   0.360   7.097   2.771 -2.1134  0.6012 -0.9128
 3440SOL     OW11153   3.101   4.978   5.977  0.3814 -0.0671  0.1020
 3440SOL    HW111154   3.156   4.975   6.055 -0.9182  0.7108  1.0949
 3440SOL    HW211155   3.054   5.061   5.984 -2.1952 -1.4530  0.2380
 3441SOL     OW11156   0.084   1.952   1.121  0.3420  0.9346  0.1593
 3441SOL    HW111157   0.137   1.894   1.066  1.2743  2.2117 -0.3300
 3441SOL    HW211158   0.071   1.903   1.202  1.7523  0.3234  0.0452
 3442SOL     OW11159   6.552   5.033   1.375  0.4862  0.5891  0.0413
 3442SOL    HW111160   6.570   5.092   1.302 -0.6769  1.4283  0.4025
 3442SOL    HW211161   6.542   5.091   1.451  0.3526 -0.1566  0.6111
 3443SOL     OW11162   6.220   1.694   7.799 -0.4031 -0.3129 -0.0214
 3443SOL    HW111163   6.212   1.679   7.705 -0.4724 -0.8410  0.0662
 3443SOL    HW211164   6.162   1.630   7.839 -2.2669  1.4562  0.3193
 3444SOL     OW11165   2.290   2.696   2.359 -0.7547  0.3176  0.3634
 3444SOL    HW111166   2.249   2.610   2.366 -2.0109  0.8771  0.3538
 3444SOL    HW211167   2.382   2.681   2.377 -1.2778 -0.7114  2.6126
 3445SOL     OW11168   3.893   7.231   7.324  0.2521 -0.4362  0.7451
 3445SOL    HW111169   3.928   7.186   7.401  0.5270  1.4693  1.8046
 3445SOL    HW211170   3.906   7.324   7.343 -0.9584  0.1410 -1.0037
 3446SOL     OW11171   5.198   3.261   2.294  0.0885 -0.5060  0.2002
 3446SOL    HW111172   5.126   3.288   2.351  1.5078  0.4808  1.6248
 3446SOL    HW211173   5.189   3.166   2.287 -2.5060 -0.2497 -1.3719
 3447SOL     OW11174   2.385   0.615   5.978  0.0022  0.1685  0.2126
 3447SOL    HW111175   2.313   0.675   5.962 -1.0258 -1.1079 -0.1940
 3447SOL    HW211176   2.385   0.602   6.072  0.4797  1.0800  0.3465
 3448SOL     OW11177   2.080   0.200   3.664  0.2920  0.1910  0.0778
 3448SOL    HW111178   2.089   0.166   3.753  1.2149 -0.7362 -0.3381
 3448SOL    HW211179   2.027   0.279   3.673  0.9577  0.5095  1.5383
 3449SOL     OW11180   0.156   5.492   5.893 -0.6374  0.2044 -0.1859
 3449SOL    HW111181   0.067   5.469   5.921 -0.7786 -0.3671 -1.0753
 3449SOL    HW211182   0.144   5.534   5.808 -0.1098  0.7748  0.0185
 3450SOL     OW11183   0.574   4.013   1.256 -0.1179  0.0760  0.4834
 3450SOL    HW111184   0.661   4.051   1.263  0.1239  0.3292 -2.4810
 3450SOL    HW211185   0.589   3.923   1.230 -0.7807 -0.8354  2.9531
 3451SOL     OW11186   5.402   3.629   7.275 -0.0199  0.8128  0.7733
 3451SOL    HW111187   5.490   3.593   7.266 -0.7423 -1.0178  0.5825
 3451SOL    HW211188   5.367   3.588   7.354 -1.3007  0.1833 -0.0889
 3452SOL     OW11189   6.463   3.119   5.411 -0.3920  0.4026 -0.3341
 3452SOL    HW111190   6.505   3.192   5.457  1.6257 -1.9185  1.8687
 3452SOL    HW211191   6.475   3.139   5.318  2.0559  1.8863  0.1962
 3453SOL     OW11192   7.636   0.309   6.699  0.2396 -0.2472 -0.3050
 3453SOL    HW111193   7.653   0.222   6.661  0.4484  0.4635 -1.9308
 3453SOL    HW211194   7.721   0.337   6.733  0.1563 -0.7029  0.2855
 3454SOL     OW11195   5.341   5.762   5.766  0.2420  0.2075  0.1022
 3454SOL    HW111196   5.388   5.819   5.827  0.6161  0.7369 -0.6629
 3454SOL    HW211197   5.260   5.809   5.748  0.7389  0.7112 -0.8584
 3455SOL     OW11198   5.329   3.944   2.180 -0.3108  0.2228  0.0643
 3455SOL    HW111199   5.382   4.005   2.231  2.3448 -1.5887 -0.3152
 3455SOL    HW211200   5.241   3.953   2.215  0.1115  3.6375  0.5565
 3456SOL     OW11201   4.755   4.507   7.943  0.2019  0.1332 -0.5364
 3456SOL    HW111202   4.789   4.417   7.944  0.8265  0.3426 -1.7564
 3456SOL    HW211203   4.806   4.551   7.875 -2.3971  0.4996 -2.3793
 3457SOL     OW11204   0.576   5.870   1.101 -0.2918  0.3726 -0.0178
 3457SOL    HW111205   0.537   5.785   1.085 -0.7873  1.2826 -5.2883
 3457SOL    HW211206   0.505   5.932   1.087  0.7475  1.8068  0.7265
 3458SOL     OW11207   3.809   6.184   2.205  0.0955 -0.1832  0.2459
 3458SOL    HW111208   3.825   6.269   2.165  1.0095 -1.4018 -2.1873
 3458SOL    HW211209   3.845   6.191   2.293  0.0804  1.9342  0.1310
 3459SOL     OW11210   5.848   6.218   6.012 -0.6928  0.0370  0.2193
 3459SOL    HW111211   5.812   6.277   6.078 -0.7534 -1.5571  1.6683
 3459SOL    HW211212   5.857   6.272   5.934 -1.8259  1.6583  1.1615
 3460SOL     OW11213   5.398   5.283   1.988  0.2961  0.2706  0.0506
 3460SOL    HW111214   5.431   5.256   1.902 -0.1497 -0.3184  0.0555
 3460SOL    HW211215   5.390   5.201   2.037  0.7059  0.6189  0.7149
 3461SOL     OW11216   4.263   4.602   2.575 -0.0691 -0.1778  0.1319
 3461SOL    HW111217   4.226   4.538   2.515  0.3580  0.7096 -1.1124
 3461SOL    HW211218   4.219   4.684   2.552  2.2505  0.8049 -1.0450
 3462SOL     OW11219   2.592   5.384   1.138 -0.5783 -0.2410  0.2832
 3462SOL    HW111220   2.554   5.335   1.064  0.1619  0.4682 -0.5952
 3462SOL    HW211221   2.587   5.475   1.111  0.3018 -0.0252  0.8269
 3463SOL     OW11222   4.431   3.584   6.856 -0.1394  0.4566  0.7129
 3463SOL    HW111223   4.432   3.539   6.941 -0.8341  0.3082  0.6419
 3463SOL    HW211224   4.381   3.526   6.799  3.2651 -1.2993 -0.8305
 3464SOL     OW11225   0.353   7.048   3.838 -0.4898  0.5905  0.2297
 3464SOL    HW111226   0.331   6.978   3.900 -0.6431  0.1039 -0.3693
 3464SOL    HW211227   0.423   7.097   3.882  0.0340 -0.2979  0.4069
 3465SOL     OW11228   6.628   7.637   7.940  0.0295  0.4611 -0.5682
 3465SOL    HW111229   6.554   7.612   7.884 -0.9922  0.4947  0.7404
 3465SOL    HW211230   6.617   7.731   7.954 -0.4020  0.2429  0.6390
 3466SOL     OW11231   5.065   3.971   2.183  0.4263 -0.0145 -0.7089
 3466SOL    HW111232   5.073   4.060   2.149 -1.8313  0.3413 -0.4345
 3466SOL    HW211233   4.993   3.932   2.133 -1.0786 -0.4284  1.6194
 3467SOL     OW11234   6.316   7.785   7.187  0.4240 -0.5415 -0.6825
 3467SOL    HW111235   6.380   7.817   7.125  0.2146  0.3979 -0.4263
 3467SOL    HW211236   6.350   7.700   7.216  1.0517 -0.4900 -1.2684
 3468SOL     OW11237   7.832   3.489   7.880  0.4518  0.3736  0.4240
 3468SOL    HW111238   7.852   3.453   7.966 -1.7929  1.6091  1.5791
 3468SOL    HW211239   7.778   3.422   7.837 -0.9905  0.9318  1.2703
 3469SOL     OW11240   6.830   0.753   1.199  0.0144 -0.2398 -0.6522
 3469SOL    HW111241   6.841   0.796   1.283 -0.3868  0.9336 -1.1780
 3469SOL    HW211242   6.909   0.700   1.189 -0.4537 -1.3021  0.9556
 3470SOL     OW11243   3.420   7.812   3.932 -0.0995 -0.7880 -0.3844
 3470SOL    HW111244   3.345   7.756   3.913  0.4788 -0.7735 -3.2612
 3470SOL    HW211245   3.491   7.751   3.953 -0.4067 -0.9095  0.3087
 3471SOL     OW11246   5.343   4.893   5.026 -0.4333 -0.1655  0.1045
 3471SOL    HW111247   5.356   4.849   4.941 -1.3683  0.0777 -0.1742
 3471SOL    HW211248   5.248   4.893   5.039 -0.2889 -0.3060  1.2180
 3472SOL     OW11249   7.347   0.894   6.216 -0.1431  0.1446 -0.4140
 3472SOL    HW111250   7.298   0.815   6.241 -0.5354 -0.0735 -1.7760
 3472SOL    HW211251   7.436   0.862   6.198  0.2707  0.3814  1.1093
 3473SOL     OW11252   6.227   2.481   3.389  0.4012  0.2474 -0.1046
 3473SOL    HW111253   6.269   2.398   3.369  0.7279  0.6050 -0.9213
 3473SOL    HW211254   6.134   2.460   3.399  0.4328 -0.1518 -0.6573
 3474SOL     OW11255   2.713   6.227   3.836  0.1687 -0.4435 -0.2799
 3474SOL    HW111256   2.793   6.182   3.865 -0.0871  0.3129  1.7935
 3474SOL    HW211257   2.744   6.313   3.805  0.0612  0.8362  2.7951
 3475SOL     OW11258   0.739   4.653   0.558 -0.0120  0.6191  0.4402
 3475SOL    HW111259   0.800   4.721   0.587 -0.1378  0.4474  1.1302
 3475SOL    HW211260   0.659   4.670   0.608 -0.7386  1.1860 -0.8614
 3476SOL     OW11261   0.705   2.977   7.352  0.2831  0.2097  0.3289
 3476SOL    HW111262   0.753   3.043   7.302 -0.4225  0.4303 -0.0794
 3476SOL    HW211263   0.691   3.016   7.438  0.1120  0.4845  0.1774
 3477SOL     OW11264   2.116   0.394   5.649  0.2340  0.4827 -0.2780
 3477SOL    HW111265   2.205   0.361   5.633 -0.2851 -0.1047 -2.0814
 3477SOL    HW211266   2.126   0.450   5.726  1.5788 -2.0081  1.5142
 3478SOL     OW11267   5.400   7.894   5.249  0.2263  0.6113 -0.9515
 3478SOL    HW111268   5.444   7.943   5.179 -0.0261 -1.3912 -2.6184
 3478SOL    HW211269   5.318   7.941   5.263  1.3010  2.3685 -0.3090
 3479SOL     OW11270   0.908   1.229   0.979 -0.6869  0.2522 -0.4229
 3479SOL    HW111271   0.974   1.218   0.910 -1.6481  1.4915 -1.5697
 3479SOL    HW211272   0.939   1.304   1.030 -0.2442 -0.3544  0.2447
 3480SOL     OW11273   3.998   2.685   2.653  0.1188  0.3551 -0.7314
 3480SOL    HW111274   4.003   2.593   2.678  0.4581  0.6009  0.1593
 3480SOL    HW211275   4.085   2.720   2.672 -0.0465  0.8885 -0.9370
 3481SOL     OW11276   2.608   0.152   6.293  0.2826  0.6896  0.0739
 3481SOL    HW111277   2.647   0.232   6.328  1.7623  0.0958 -0.1858
 3481SOL    HW211278   2.631   0.084   6.357 -0.9661  0.4470  0.2938
 3482SOL     OW11279   5.993   3.844   6.738  0.5264  0.1631 -0.6133
 3482SOL    HW111280   5.956   3.770   6.690  0.6867  1.0257 -2.1143
 3482SOL    HW211281   5.936   3.917   6.718  0.7406  0.6136  0.3385
 3483SOL     OW11282   2.837   3.641   2.263 -0.6120 -0.3858  0.1404
 3483SOL    HW111283   2.749   3.607   2.281 -1.1799  1.2093  0.5292
 3483SOL    HW211284   2.895   3.566   2.280 -1.9539 -1.8382 -1.3472
 3484SOL     OW11285   5.136   7.845   3.663 -0.1456  0.3702 -0.4277
 3484SOL    HW111286   5.134   7.821   3.756  0.6051  0.4659 -0.3769
 3484SOL    HW211287   5.070   7.913   3.655 -1.3686 -0.7591 -0.3021
 3485SOL     OW11288   2.449   4.119   6.409 -0.0848  0.6014  0.2366
 3485SOL    HW111289   2.497   4.060   6.467 -1.3867  0.1121  0.8651
 3485SOL    HW211290   2.450   4.076   6.324  0.5187  0.5688  0.2563
 3486SOL     OW11291   6.352   3.257   2.147 -0.5435 -0.3369  0.5958
 3486SOL    HW111292   6.422   3.199   2.117  1.0602  0.6301  2.2653
 3486SOL    HW211293   6.348   3.326   2.081 -0.1704 -0.5989  0.2935
 3487SOL     OW11294   6.658   2.347   3.096  0.4187 -0.1151  0.2095
 3487SOL    HW111295   6.579   2.309   3.058  0.1323 -1.2351  1.8409
 3487SOL    HW211296   6.730   2.313   3.042 -0.0817 -0.2633 -0.3755
 3488SOL     OW11297   7.133   6.973   1.559 -0.2437  0.2517 -0.1684
 3488SOL    HW111298   7.111   7.004   1.471  1.0845 -1.6321 -1.2433
 3488SOL    HW211299   7.068   6.906   1.579 -2.0911  2.3808  1.4401
 3489SOL     OW11300   0.131   4.038   3.015  0.1069  0.7817 -0.4766
 3489SOL    HW111301   0.114   3.958   2.966 -0.0999  0.3143  0.3393
 3489SOL    HW211302   0.222   4.060   2.994  0.0320  0.5708 -1.0347
 3490SOL     OW11303   0.594   1.334   1.464  0.1260 -0.1250  0.2511
 3490SOL    HW111304   0.616   1.247   1.429 -1.6903 -0.9589  1.0418
 3490SOL    HW211305   0.596   1.322   1.559  0.3255  0.8375  0.3741
 3491SOL     OW11306   2.810   2.476   5.294 -0.0827  0.4431  0.4996
 3491SOL    HW111307   2.893   2.466   5.248 -1.3634  1.6237 -2.3357
 3491SOL    HW211308   2.802   2.570   5.309 -1.3969  0.5045 -0.3776
 3492SOL     OW11309   6.132   6.356   5.893 -0.3025 -0.4045  0.4002
 3492SOL    HW111310   6.037   6.363   5.883 -0.2826  0.1734  0.5778
 3492SOL    HW211311   6.160   6.443   5.921  0.1975 -0.7612  1.0313
 3493SOL     OW11312   2.521   3.572   4.210  0.1433  0.1382 -0.0397
 3493SOL    HW111313   2.568   3.590   4.129  0.4719  0.1737  0.1543
 3493SOL    HW211314   2.428   3.578   4.187  0.2352  0.1103 -0.4180
 3494SOL     OW11315   7.847   2.570   3.194 -0.4098  0.0595  0.4795
 3494SOL    HW111316   7.868   2.507   3.263  0.1748 -0.8338 -0.4926
 3494SOL    HW211317   7.902   2.544   3.120 -0.8702  1.1299 -0.2649
 3495SOL     OW11318   5.916   2.373   6.288 -0.0785  0.5519  0.3589
 3495SOL    HW111319   5.966   2.332   6.358 -1.6392 -0.9992  0.6635
 3495SOL    HW211320   5.966   2.355   6.208  0.3724 -0.0707  0.7734
 3496SOL     OW11321   6.260   7.909   2.327  0.4427  0.2008  0.7253
 3496SOL    HW111322   6.171   7.878   2.341  0.5470  0.4284  1.9866
 3496SOL    HW211323   6.314   7.830   2.326  0.1725  0.0132 -0.6440
 3497SOL     OW11324   4.117   6.396   2.599 -0.0124 -0.4003  1.0054
 3497SOL    HW111325   4.072   6.480   2.589 -0.0951 -0.3855  1.4444
 3497SOL    HW211326   4.206   6.412   2.567 -1.0865 -1.2651 -2.9479
 3498SOL     OW11327   6.813   0.822   1.498  0.1073  0.5138 -0.4508
 3498SOL    HW111328   6.729   0.797   1.535  1.1803 -2.8610 -0.0125
 3498SOL    HW211329   6.868   0.841   1.573 -0.0185  2.1879 -0.7260
 3499SOL     OW11330   6.252   5.715   4.725  0.0629  0.0622  0.4238
 3499SOL    HW111331   6.316   5.785   4.712  0.4095 -0.0064  1.6601
 3499SOL    HW211332   6.223   5.724   4.815 -0.7837 -0.6583  0.2436
 3500SOL     OW11333   6.954   2.595   1.502 -0.2439  0.5429 -0.1510
 3500SOL    HW111334   6.925   2.646   1.426 -0.1366 -1.3040 -1.4890
 3500SOL    HW211335   7.050   2.601   1.499 -0.2529  0.9005  0.1689
 3501SOL     OW11336   6.634   6.877   7.774  0.5596 -0.6539 -0.2063
 3501SOL    HW111337   6.546   6.892   7.809  0.1250 -2.6653 -0.3286
 3501SOL    HW211338   6.638   6.932   7.695 -0.2505  0.1355  0.2844
 3502SOL     OW11339   2.303   6.907   3.774 -0.2144  0.2665 -0.1734
 3502SOL    HW111340   2.273   6.824   3.736 -2.1992  1.1487 -0.6588
 3502SOL    HW211341   2.308   6.967   3.700 -0.9350  1.1528  0.4779
 3503SOL     OW11342   2.304   0.991   7.000  0.1531 -0.5309 -0.2056
 3503SOL    HW111343   2.273   0.940   7.075 -1.5197 -2.0016 -1.7999
 3503SOL    HW211344   2.354   0.928   6.948  2.8766  0.9170  0.4841
 3504SOL     OW11345   5.058   4.946   5.111 -0.0597  0.5091 -0.2411
 3504SOL    HW111346   4.990   4.882   5.133  1.3716 -1.1077 -0.3364
 3504SOL    HW211347   5.010   5.019   5.071 -1.6913 -0.7841 -0.7700
 3505SOL     OW11348   7.779   6.202   0.802 -0.6402  0.5911  0.1920
 3505SOL    HW111349   7.723   6.271   0.767  0.1380  1.5534  0.7690
 3505SOL    HW211350   7.845   6.186   0.734 -1.3492 -0.2456 -0.3152
 3506SOL     OW11351   1.187   2.111   4.568  0.0750 -0.0060 -0.5188
 3506SOL    HW111352   1.234   2.030   4.592  0.9060  0.0549 -1.8551
 3506SOL    HW211353   1.097   2.083   4.552  0.3596 -0.6746 -0.9851
 3507SOL     OW11354   1.474   7.527   7.489  0.0952  0.2755  0.3202
 3507SOL    HW111355   1.492   7.486   7.405  1.0904 -0.4433  0.8642
 3507SOL    HW211356   1.517   7.613   7.484 -2.6128  1.6807 -1.1001
 3508SOL     OW11357   0.058   2.185   4.066 -0.2713 -0.0887  0.3694
 3508SOL    HW111358   0.077   2.245   3.994 -2.1952  0.4210  0.2538
 3508SOL    HW211359   0.035   2.102   4.023 -1.1555  0.1379  0.3952
 3509SOL     OW11360   4.147   2.212   3.127 -0.5314  0.2729 -0.3069
 3509SOL    HW111361   4.055   2.237   3.130 -0.0668  2.0782  0.2752
 3509SOL    HW211362   4.173   2.225   3.036 -0.3352  1.8881 -0.0434
 3510SOL     OW11363   2.630   0.214   3.123  0.1964  0.0869  0.3291
 3510SOL    HW111364   2.723   0.211   3.102  0.4246  0.2715  1.2484
 3510SOL    HW211365   2.610   0.307   3.131  0.0062  0.0381  0.4354
 3511SOL     OW11366   1.872   1.596   1.317  0.1936 -0.3031 -0.6824
 3511SOL    HW111367   1.778   1.603   1.300  0.0272 -0.8267 -0.0583
 3511SOL    HW211368   1.879   1.520   1.375  1.1793 -1.3309 -2.0920
 3512SOL     OW11369   6.275   3.990   4.090 -0.1625  0.2222 -0.1024
 3512SOL    HW111370   6.337   3.921   4.114  0.8035  1.0145 -0.2684
 3512SOL    HW211371   6.209   3.988   4.159  0.1679 -0.4869  0.2001
 3513SOL     OW11372   6.486   3.939   5.641 -0.8555  0.5210 -0.0571
 3513SOL    HW111373   6.397   3.907   5.627 -0.7336  1.1355 -2.7502
 3513SOL    HW211374   6.529   3.929   5.556  1.6559  0.3126  1.1429
 3514SOL     OW11375   0.086   7.177   7.159 -0.2167  0.0570  0.4371
 3514SOL    HW111376   0.033   7.101   7.183 -0.0379 -0.4370 -0.6493
 3514SOL    HW211377   0.094   7.171   7.064  1.7583  0.1137  0.5547
 3515SOL     OW11378   2.403   0.156   4.561 -0.0575 -0.3575  0.5039
 3515SOL    HW111379   2.350   0.114   4.629  0.8422 -1.1374  0.7363
 3515SOL    HW211380   2.480   0.101   4.553  1.3591  1.4471  1.0734
 3516SOL     OW11381   7.719   6.169   1.287  0.5555 -0.3766  0.8693
 3516SOL    HW111382   7.686   6.118   1.361 -2.2105 -0.6562 -0.4348
 3516SOL    HW211383   7.700   6.260   1.310 -0.2660 -0.4603  0.5464
 3517SOL     OW11384   3.235   2.055   6.298 -0.1330  0.0202 -0.6063
 3517SOL    HW111385   3.200   2.133   6.341  0.2715 -0.2724  0.2819
 3517SOL    HW211386   3.201   2.059   6.209 -0.2655  1.1147 -0.5196
 3518SOL     OW11387   2.555   3.228   6.934 -0.0439  0.6184 -0.0799
 3518SOL    HW111388   2.493   3.292   6.900 -0.3252  0.6401  0.4641
 3518SOL    HW211389   2.523   3.207   7.022 -0.3312 -0.7854 -0.5048
 3519SOL     OW11390   6.734   6.286   4.398 -0.3159 -0.0471  0.5997
 3519SOL    HW111391   6.679   6.264   4.323  0.3638 -0.8653  0.3236
 3519SOL    HW211392   6.797   6.350   4.364 -0.1672 -0.2276  0.5337
 3520SOL     OW11393   5.717   2.504   5.363 -0.6101  0.2181  0.1617
 3520SOL    HW111394   5.651   2.503   5.294  0.2753 -0.2913 -0.6995
 3520SOL    HW211395   5.703   2.422   5.411 -1.2545  0.5929  0.6223
 3521SOL     OW11396   7.258   5.661   0.903 -0.2543 -0.2023  0.0701
 3521SOL    HW111397   7.224   5.594   0.843 -0.8451 -0.2300  0.4328
 3521SOL    HW211398   7.346   5.680   0.870 -0.8155  0.2609 -1.2035
 3522SOL     OW11399   4.727   3.353   7.859  0.6118  0.3089 -0.4221
 3522SOL    HW111400   4.812   3.340   7.819  1.4746  0.5982  1.2237
 3522SOL    HW211401   4.740   3.425   7.921 -0.6455 -0.0815  0.3422
 3523SOL     OW11402   6.452   7.945   0.500 -0.1250 -0.4152 -0.4432
 3523SOL    HW111403   6.490   7.886   0.566 -0.5056 -1.6195 -1.2641
 3523SOL    HW211404   6.387   7.995   0.548  1.0332  0.2112  0.5381
 3524SOL     OW11405   6.385   3.070   1.288 -0.4626 -0.7602 -0.2883
 3524SOL    HW111406   6.378   3.013   1.212 -0.7501  1.1633 -1.7663
 3524SOL    HW211407   6.320   3.138   1.273  1.1714  1.0456  0.4239
 3525SOL     OW11408   0.913   5.945   4.718 -0.5991 -0.5365  0.2688
 3525SOL    HW111409   0.995   5.987   4.693 -0.5154  0.2319  1.7407
 3525SOL    HW211410   0.855   5.958   4.643 -0.0376  0.7548  0.0322
 3526SOL     OW11411   7.212   6.350   2.956  0.3845  0.1511  0.1085
 3526SOL    HW111412   7.266   6.371   3.032  0.6048  0.0636 -0.0240
 3526SOL    HW211413   7.228   6.421   2.894  0.1201  0.2801  0.1873
 3527SOL     OW11414   2.679   0.256   0.062 -0.0190 -0.5369  0.1033
 3527SOL    HW111415   2.666   0.309  -0.017 -1.7748  2.2276  2.0621
 3527SOL    HW211416   2.695   0.168   0.029 -2.1314  0.1674 -3.3464
 3528SOL     OW11417   7.444   3.194   4.100 -1.1190  0.6417 -0.5203
 3528SOL    HW111418   7.439   3.151   4.185 -0.9767  0.2280 -0.7163
 3528SOL    HW211419   7.352   3.205   4.073 -1.1520 -0.9569 -1.1594
 3529SOL     OW11420   1.258   3.078   5.931 -0.2457  0.2302  0.1362
 3529SOL    HW111421   1.244   3.110   5.842 -0.9254  1.3104  0.6129
 3529SOL    HW211422   1.317   3.142   5.971 -0.3269  0.0131  0.6110
 3530SOL     OW11423   1.707   0.117   5.595  0.2197 -0.2023  0.0427
 3530SOL    HW111424   1.740   0.028   5.610 -0.4100 -0.4236  0.1335
 3530SOL    HW211425   1.644   0.107   5.524  0.7409  0.3070 -0.5000
 3531SOL     OW11426   4.835   1.375   7.477 -0.0784 -0.3957 -0.1509
 3531SOL    HW111427   4.877   1.356   7.393  1.0900 -2.5050  0.8515
 3531SOL    HW211428   4.741   1.371   7.458  0.1087  1.4749 -1.8026
 3532SOL     OW11429   2.212   4.160   5.102 -0.0782  0.2403  0.5249
 3532SOL    HW111430   2.197   4.254   5.093 -0.2223  0.3813  1.9934
 3532SOL    HW211431   2.284   4.153   5.165 -0.3165 -0.6333  0.7176
 3533SOL     OW11432   2.616   3.646   4.730 -1.1706 -0.3626 -0.4249
 3533SOL    HW111433   2.698   3.666   4.776 -1.0949  0.5247 -0.9337
 3533SOL    HW211434   2.550   3.699   4.775 -0.8836  1.5481 -2.0944
 3534SOL     OW11435   2.852   0.538   6.711 -0.0906 -0.6470 -0.1895
 3534SOL    HW111436   2.780   0.572   6.659 -0.4356 -0.4151  0.4277
 3534SOL    HW211437   2.811   0.477   6.772  0.3652 -1.2466 -0.4744
 3535SOL     OW11438   7.606   4.948   5.200 -0.2786 -0.0151 -0.1466
 3535SOL    HW111439   7.538   4.969   5.136  0.2360 -0.7765 -0.9721
 3535SOL    HW211440   7.676   4.910   5.148 -0.1350 -1.3443  0.9711
 3536SOL     OW11441   1.240   7.344   2.774 -0.3324 -0.3868  0.0612
 3536SOL    HW111442   1.313   7.312   2.721 -0.3739 -0.9506  0.3396
 3536SOL    HW211443   1.242   7.290   2.853 -1.3501 -0.7382 -0.1382
 3537SOL     OW11444   4.732   7.804   6.947 -0.1280 -0.1311 -0.2901
 3537SOL    HW111445   4.722   7.843   6.860  0.2880 -1.1099 -0.7978
 3537SOL    HW211446   4.692   7.867   7.006 -0.2293  0.6573 -1.1673
 3538SOL     OW11447   4.366   6.875   0.586 -0.1881  0.1098 -0.0436
 3538SOL    HW111448   4.410   6.791   0.591 -0.5123 -0.1366 -1.0477
 3538SOL    HW211449   4.422   6.935   0.635  0.9110 -0.3302 -0.7301
 3539SOL     OW11450   3.609   1.996   7.528  0.2386  1.0110  0.4863
 3539SOL    HW111451   3.654   2.026   7.449 -0.7583  2.8201  0.5267
 3539SOL    HW211452   3.541   2.062   7.542 -1.2878 -0.6719  1.3995
 3540SOL     OW11453   5.481   2.600   7.697 -0.0462  0.8692 -0.3208
 3540SOL    HW111454   5.436   2.539   7.639 -1.6929 -0.2813  2.0431
 3540SOL    HW211455   5.442   2.686   7.677 -2.1671  0.1573  0.4799
 3541SOL     OW11456   1.619   5.753   2.975 -0.9066  0.0079 -0.2482
 3541SOL    HW111457   1.631   5.659   2.989  0.4644  0.2045  0.0731
 3541SOL    HW211458   1.524   5.765   2.968 -1.0584 -1.5189 -1.1979
 3542SOL     OW11459   4.166   7.086   4.726 -0.4586  0.1208  0.8976
 3542SOL    HW111460   4.149   7.110   4.635  1.1041 -1.9899 -0.0192
 3542SOL    HW211461   4.232   7.149   4.755 -0.2689  0.2190  0.2657
 3543SOL     OW11462   7.878   0.784   5.476  0.6063  0.6417 -0.5855
 3543SOL    HW111463   7.835   0.756   5.395  0.5749  0.4079 -0.4886
 3543SOL    HW211464   7.952   0.837   5.447  1.0329 -0.0509 -0.7907
 3544SOL     OW11465   5.607   7.410   7.792 -0.3746  0.2943  0.5851
 3544SOL    HW111466   5.557   7.341   7.837 -1.6742 -0.3470 -1.6832
 3544SOL    HW211467   5.629   7.371   7.707  2.8707  1.0785  0.9519
 3545SOL     OW11468   2.545   7.739   2.698  0.0585 -0.3685 -0.4542
 3545SOL    HW111469   2.587   7.806   2.751 -0.6023 -0.4808  0.2268
 3545SOL    HW211470   2.540   7.663   2.755 -0.3281 -0.6113 -0.8060
 3546SOL     OW11471   5.992   7.523   5.058 -0.6551  0.2659  0.5109
 3546SOL    HW111472   6.048   7.492   4.987  0.1144  2.8123 -0.1211
 3546SOL    HW211473   6.005   7.460   5.129  1.3206 -0.4218 -0.4036
 3547SOL     OW11474   2.421   7.733   3.306  0.0842 -0.4088  0.7458
 3547SOL    HW111475   2.340   7.683   3.297 -0.3341  0.3591  0.0745
 3547SOL    HW211476   2.471   7.686   3.373 -1.6047  0.0221  2.3899
 3548SOL     OW11477   1.751   6.724   6.442 -0.2803  0.4769  0.0365
 3548SOL    HW111478   1.707   6.682   6.367  2.0376 -0.3679 -0.9442
 3548SOL    HW211479   1.734   6.664   6.515 -1.7353  0.8010  0.0070
 3549SOL     OW11480   5.865   4.457   6.412  0.2255  0.6038  0.4384
 3549SOL    HW111481   5.802   4.424   6.477 -1.4264  0.3227 -1.2249
 3549SOL    HW211482   5.826   4.434   6.328  2.4113  0.7893 -0.6691
 3550SOL     OW11483   3.676   0.474   5.901 -0.4606 -0.2831  0.0028
 3550SOL    HW111484   3.648   0.406   5.962  1.2047 -0.1281  0.9989
 3550SOL    HW211485   3.755   0.510   5.940 -0.9387  1.7987 -0.8350
 3551SOL     OW11486   4.498   0.189   3.404 -0.9982 -0.1785  0.5493
 3551SOL    HW111487   4.460   0.229   3.325 -0.9709 -0.4816  0.3792
 3551SOL    HW211488   4.478   0.095   3.394 -1.5516 -0.1386  1.2130
 3552SOL     OW11489   1.947   1.096   7.197 -0.0209 -0.4817  0.3824
 3552SOL    HW111490   1.977   1.039   7.267 -1.0287 -0.1214  1.1480
 3552SOL    HW211491   1.919   1.176   7.242 -2.0192 -0.7652 -0.2319
 3553SOL     OW11492   3.588   7.412   4.265 -0.1440 -0.1451  0.1416
 3553SOL    HW111493   3.670   7.460   4.280 -0.5731  0.1343  1.8004
 3553SOL    HW211494   3.616   7.323   4.244  0.6117  0.3725 -1.2310
 3554SOL     OW11495   2.879   5.373   0.555  0.3954 -0.4064 -0.0289
 3554SOL    HW111496   2.908   5.460   0.580  0.3331 -0.3543 -0.1365
 3554SOL    HW211497   2.811   5.351   0.619 -2.2786  1.1456 -2.1128
 3555SOL     OW11498   3.288   2.135   2.415  0.8774  0.9937 -0.4361
 3555SOL    HW111499   3.208   2.178   2.445  1.2454  1.6625 -0.3842
 3555SOL    HW211500   3.288   2.146   2.320  0.6284  0.4988 -0.4936
 3556SOL     OW11501   4.746   1.121   3.022 -0.1958 -0.1371 -0.8126
 3556SOL    HW111502   4.718   1.193   3.078 -0.0730 -0.4933 -0.2814
 3556SOL    HW211503   4.757   1.047   3.082 -0.3714 -0.6111 -1.3544
 3557SOL     OW11504   5.144   1.287   1.084  0.2215 -0.5248  0.1024
 3557SOL    HW111505   5.098   1.215   1.128 -1.7372  0.9985  0.6530
 3557SOL    HW211506   5.205   1.320   1.150  0.0375 -0.7015  0.3643
 3558SOL     OW11507   4.692   5.747   6.414  0.1579  0.0759  0.5798
 3558SOL    HW111508   4.623   5.725   6.477 -0.9134 -0.5398 -0.7780
 3558SOL    HW211509   4.747   5.669   6.411 -1.7608 -1.3166 -1.7544
 3559SOL     OW11510   0.935   1.849   6.558 -0.4787 -0.5060 -0.1619
 3559SOL    HW111511   0.877   1.881   6.490  1.4439 -0.0492 -1.6956
 3559SOL    HW211512   0.926   1.754   6.555 -1.7221 -0.4066  0.1945
 3560SOL     OW11513   6.120   0.132   7.473  0.2446  0.4171 -0.7436
 3560SOL    HW111514   6.085   0.072   7.407 -0.0906  1.5440 -1.6071
 3560SOL    HW211515   6.145   0.210   7.424 -0.4443  1.4633  0.5040
 3561SOL     OW11516   2.753   2.450   2.331  0.2161  0.1132  0.3567
 3561SOL    HW111517   2.768   2.468   2.423 -0.2084 -0.5691  0.5651
 3561SOL    HW211518   2.726   2.358   2.328 -0.7992  0.4108 -0.3299
 3562SOL     OW11519   6.363   1.658   1.815  0.4971 -0.1332  0.2389
 3562SOL    HW111520   6.304   1.616   1.878 -0.6780  1.8238  0.5654
 3562SOL    HW211521   6.415   1.718   1.869  0.4457  0.5551 -0.4639
 3563SOL     OW11522   5.838   2.573   7.449  0.2192  0.0001 -0.3040
 3563SOL    HW111523   5.847   2.479   7.438 -0.0319  0.0403 -0.8771
 3563SOL    HW211524   5.767   2.598   7.390 -0.3650  0.4085  0.5354
 3564SOL     OW11525   6.643   4.941   2.330 -0.2701  0.0912 -0.6647
 3564SOL    HW111526   6.660   4.986   2.247  0.5041 -1.9215 -1.6891
 3564SOL    HW211527   6.729   4.930   2.370 -0.3135 -1.0933 -0.8398
 3565SOL     OW11528   6.173   1.834   6.612  0.4242 -0.9314  0.3656
 3565SOL    HW111529   6.233   1.760   6.622  0.1390 -1.1371  0.5656
 3565SOL    HW211530   6.230   1.910   6.603  0.7487 -1.3253 -1.1334
 3566SOL     OW11531   2.876   5.350   4.659 -0.0321 -0.3958  0.0995
 3566SOL    HW111532   2.804   5.353   4.595 -0.0774 -0.3552  0.1521
 3566SOL    HW211533   2.923   5.433   4.645 -0.2406 -0.2348  0.3474
 3567SOL     OW11534   5.586   4.168   0.246 -0.6239  0.0755  0.6172
 3567SOL    HW111535   5.525   4.181   0.174 -0.9110 -0.1468  0.8182
 3567SOL    HW211536   5.531   4.145   0.321 -0.3788  0.9068  1.0657
 3568SOL     OW11537   5.627   1.208   1.907  0.7783 -0.1551  0.0830
 3568SOL    HW111538   5.590   1.187   1.993  1.1617  1.2530  0.6092
 3568SOL    HW211539   5.555   1.249   1.859  1.2956  1.5695  0.7191
 3569SOL     OW11540   1.352   6.668   7.060  0.1141 -0.1299  0.4659
 3569SOL    HW111541   1.264   6.704   7.046 -0.2823 -1.0062  0.6700
 3569SOL    HW211542   1.355   6.589   7.006  0.5370 -0.4785  0.9931
 3570SOL     OW11543   2.700   0.067   0.708 -0.2334 -0.0504  0.1198
 3570SOL    HW111544   2.621   0.048   0.760 -0.1404  0.5326  0.4912
 3570SOL    HW211545   2.677   0.146   0.659  0.6801  1.1267  1.5113
 3571SOL     OW11546   7.134   1.285   6.393  0.0640  0.1596 -0.3285
 3571SOL    HW111547   7.166   1.212   6.445 -1.3068  0.3592  0.8548
 3571SOL    HW211548   7.213   1.333   6.368  0.7595  0.3900  2.0780
 3572SOL     OW11549   4.639   2.164   3.221  0.5386  0.3478 -0.1837
 3572SOL    HW111550   4.571   2.211   3.269  0.3110  0.8025 -0.9239
 3572SOL    HW211551   4.623   2.072   3.239  0.5340  0.5160  0.7007
 3573SOL     OW11552   7.738   3.273   4.569 -0.6429  0.3322 -0.1682
 3573SOL    HW111553   7.786   3.355   4.573 -0.3973  0.1370  1.1402
 3573SOL    HW211554   7.695   3.265   4.654 -2.4278  0.1462 -1.0340
 3574SOL     OW11555   3.363   6.320   4.732  0.2938 -0.2613  0.2221
 3574SOL    HW111556   3.320   6.406   4.735 -2.9254 -1.7097  0.3739
 3574SOL    HW211557   3.341   6.279   4.816 -1.0660 -2.3727 -1.0569
 3575SOL     OW11558   5.654   6.213   0.739  0.1883  0.2793  0.3633
 3575SOL    HW111559   5.655   6.309   0.743  1.8518  0.3253 -0.3194
 3575SOL    HW211560   5.602   6.186   0.815 -0.3783  1.7121  0.5174
 3576SOL     OW11561   6.304   1.322   4.272  0.7456  0.2699  0.6516
 3576SOL    HW111562   6.360   1.322   4.349 -2.2667  0.2284  3.0000
 3576SOL    HW211563   6.316   1.409   4.233  0.3744  1.3038  2.7425
 3577SOL     OW11564   1.118   1.567   1.069 -0.3415 -0.2783 -0.2510
 3577SOL    HW111565   1.120   1.532   0.979 -0.6025  0.2534 -0.4664
 3577SOL    HW211566   1.062   1.506   1.117 -0.7160 -0.2163 -0.6040
 3578SOL     OW11567   5.936   1.161   1.346 -0.2849 -0.4542 -0.3676
 3578SOL    HW111568   5.844   1.168   1.370 -0.8604  0.9674 -2.6356
 3578SOL    HW211569   5.971   1.250   1.356  0.3364 -0.5748 -1.2759
 3579SOL     OW11570   5.441   6.663   5.170  0.0382  0.1395 -0.0566
 3579SOL    HW111571   5.530   6.635   5.188 -0.4774 -0.2766  2.1350
 3579SOL    HW211572   5.423   6.632   5.081  1.2055 -2.0218  0.4100
 3580SOL     OW11573   4.983   3.277   7.237  0.2095 -0.2383  0.3732
 3580SOL    HW111574   4.902   3.238   7.267  0.0281 -0.3589 -0.2583
 3580SOL    HW211575   5.044   3.203   7.229 -0.3906 -0.5561 -1.6752
 3581SOL     OW11576   3.802   6.387   6.179  0.1182 -0.2827  0.4141
 3581SOL    HW111577   3.840   6.470   6.149  1.3737 -1.1698 -0.5879
 3581SOL    HW211578   3.712   6.409   6.203  0.7240  1.5750  1.1956
 3582SOL     OW11579   5.329   0.333   1.308 -0.2398 -0.2748 -0.0213
 3582SOL    HW111580   5.304   0.387   1.383  0.3676  0.6095 -0.4452
 3582SOL    HW211581   5.246   0.299   1.274 -0.5678 -0.1770  0.6653
 3583SOL     OW11582   2.746   0.561   1.697  0.3147  0.0341  0.2736
 3583SOL    HW111583   2.770   0.582   1.788  1.0109  1.3946 -0.1948
 3583SOL    HW211584   2.779   0.472   1.684  1.5358  0.3685  0.9100
 3584SOL     OW11585   6.970   1.737   0.467 -0.0927 -0.2039  0.2079
 3584SOL    HW111586   6.883   1.739   0.506 -0.0491  0.9257  0.2664
 3584SOL    HW211587   6.958   1.696   0.381 -1.0283  1.6428 -0.5921
 3585SOL     OW11588   4.437   3.157   7.344 -0.2596  0.1203  0.3778
 3585SOL    HW111589   4.450   3.246   7.310 -0.5937  0.2771  0.6588
 3585SOL    HW211590   4.408   3.106   7.269 -1.5853  0.5978  0.5481
 3586SOL     OW11591   4.000   2.383   2.667  0.6552  0.4477 -0.1758
 3586SOL    HW111592   4.091   2.401   2.644  1.1307 -0.5201  0.8473
 3586SOL    HW211593   4.004   2.304   2.721 -0.9888 -0.9231 -1.8918
 3587SOL     OW11594   6.615   5.693   3.958 -0.0593 -0.1720 -0.4727
 3587SOL    HW111595   6.700   5.735   3.945 -0.1788  0.2476  0.0408
 3587SOL    HW211596   6.620   5.612   3.907  0.7251 -0.2517 -0.2949
 3588SOL     OW11597   6.256   2.487   4.388 -0.3500 -0.2272 -0.0248
 3588SOL    HW111598   6.290   2.541   4.460 -1.5792  0.9336 -0.2816
 3588SOL    HW211599   6.202   2.421   4.431  0.2002 -0.5321  0.2109
 3589SOL     OW11600   5.358   3.658   2.211  0.3510  0.4200  0.4529
 3589SOL    HW111601   5.280   3.617   2.173  1.8268 -1.5375 -0.6818
 3589SOL    HW211602   5.350   3.751   2.189 -1.9338  0.3801  0.9120
 3590SOL     OW11603   3.952   0.701   7.522 -0.4304  0.0776  0.6687
 3590SOL    HW111604   3.938   0.786   7.564  0.2829  0.7596 -0.4362
 3590SOL    HW211605   3.865   0.675   7.492 -0.4949  0.9159  0.1045
 3591SOL     OW11606   5.816   4.317   1.977  0.0261 -0.0299 -0.0031
 3591SOL    HW111607   5.786   4.400   1.941  1.0832 -0.7163 -2.7097
 3591SOL    HW211608   5.902   4.338   2.015 -0.0725  0.2723  0.0577
 3592SOL     OW11609   7.100   1.095   1.642 -0.0816  0.6018 -0.3592
 3592SOL    HW111610   7.147   1.056   1.568  1.7235 -0.8822  1.4542
 3592SOL    HW211611   7.168   1.137   1.695 -1.2512  1.2122  0.7167
 3593SOL     OW11612   5.089   3.332   4.706 -0.3706 -0.1669 -0.2743
 3593SOL    HW111613   5.021   3.296   4.762 -0.3351 -0.3077 -0.3203
 3593SOL    HW211614   5.063   3.308   4.617 -1.1264  1.1990 -0.4462
 3594SOL     OW11615   4.029   1.596   4.079 -0.0221 -0.1965 -0.3737
 3594SOL    HW111616   4.054   1.519   4.027  2.1371  0.7999 -0.9493
 3594SOL    HW211617   4.090   1.595   4.153 -0.4563  0.5721  0.0070
 3595SOL     OW11618   1.903   1.600   2.520 -0.2875  0.3024 -0.1923
 3595SOL    HW111619   1.974   1.582   2.582 -1.0302  0.6409  0.7835
 3595SOL    HW211620   1.853   1.518   2.517 -0.4354  0.3895 -0.1031
 3596SOL     OW11621   6.671   2.649   6.599 -0.2088  0.6173  0.2010
 3596SOL    HW111622   6.634   2.675   6.684 -1.0522 -1.0089  0.3746
 3596SOL    HW211623   6.610   2.685   6.535 -1.6264 -1.2066  0.4519
 3597SOL     OW11624   3.183   6.432   3.359 -0.7158 -0.1054 -0.1406
 3597SOL    HW111625   3.265   6.385   3.345  0.5156  1.7954  0.4340
 3597SOL    HW211626   3.116   6.372   3.325  0.7956 -2.0702  0.1498
 3598SOL     OW11627   1.083   7.038   2.869  0.1504 -0.0711 -0.0504
 3598SOL    HW111628   1.033   6.963   2.839  0.6194 -1.0884  1.6152
 3598SOL    HW211629   1.172   7.022   2.837 -0.0584  0.6200 -1.0656
 3599SOL     OW11630   5.356   0.574   4.447 -0.0969  0.2628  0.3018
 3599SOL    HW111631   5.351   0.512   4.519 -1.1457 -1.9042 -1.5154
 3599SOL    HW211632   5.265   0.599   4.430  0.0602  0.2468 -0.6466
 3600SOL     OW11633   5.499   6.024   1.184  0.8307  0.0644 -0.0710
 3600SOL    HW111634   5.463   5.949   1.137 -0.5397  0.6278  0.0149
 3600SOL    HW211635   5.586   5.996   1.213  0.2064 -1.6148  0.2763
 3601SOL     OW11636   2.082   6.549   5.003 -0.3427  0.1365  0.4544
 3601SOL    HW111637   2.166   6.508   5.022 -0.1224 -0.5283 -1.6630
 3601SOL    HW211638   2.067   6.608   5.076  2.1223  0.5053  0.7587
 3602SOL     OW11639   2.170   2.457   2.362  0.0845 -0.1745 -0.2502
 3602SOL    HW111640   2.083   2.418   2.373 -0.2281  0.3781 -0.7037
 3602SOL    HW211641   2.182   2.461   2.267  0.2228  0.6007 -0.2015
 3603SOL     OW11642   3.162   0.958   5.952 -0.2745  0.0205  0.0940
 3603SOL    HW111643   3.121   0.909   6.024 -1.9266  0.3223 -0.6029
 3603SOL    HW211644   3.140   0.907   5.874 -0.1846  0.7373 -0.4045
 3604SOL     OW11645   7.599   6.855   5.841  0.1731 -0.1576 -0.3179
 3604SOL    HW111646   7.526   6.887   5.893  0.4370 -1.0723  0.6512
 3604SOL    HW211647   7.676   6.899   5.878 -0.0157  2.5174 -2.7201
 3605SOL     OW11648   0.342   4.933   4.858  0.6824  0.2818 -0.1527
 3605SOL    HW111649   0.384   4.967   4.779 -0.8703  5.6569  0.9342
 3605SOL    HW211650   0.408   4.939   4.926  1.0151 -1.1616 -0.3051
 3606SOL     OW11651   2.882   0.966   5.105  0.0923 -0.7995 -0.3935
 3606SOL    HW111652   2.880   0.912   5.025 -0.5386 -0.9203 -0.3001
 3606SOL    HW211653   2.844   1.050   5.078  0.4001 -0.6492 -0.3579
 3607SOL     OW11654   1.290   0.477   3.634  0.1078  0.0018 -0.6287
 3607SOL    HW111655   1.322   0.563   3.661 -1.9530  0.6255  0.0102
 3607SOL    HW211656   1.279   0.429   3.716 -0.7093 -0.1155 -0.7935
 3608SOL     OW11657   5.596   2.887   3.193 -0.6597  0.0275  0.1765
 3608SOL    HW111658   5.615   2.853   3.281 -0.1094  3.1138  1.3600
 3608SOL    HW211659   5.658   2.842   3.136  0.5338 -0.3783  1.7285
 3609SOL     OW11660   2.477   7.256   4.584  0.5010  0.3029  0.1610
 3609SOL    HW111661   2.457   7.254   4.490 -1.8056 -0.0933  0.5861
 3609SOL    HW211662   2.518   7.171   4.601  0.0798 -0.0177 -0.3574
 3610SOL     OW11663   4.513   0.862   1.813 -0.1246  0.9065  0.7692
 3610SOL    HW111664   4.520   0.786   1.755  0.8710  0.4765  1.4331
 3610SOL    HW211665   4.488   0.933   1.755 -2.5172 -0.1852  0.3398
 3611SOL     OW11666   6.462   0.829   5.739  0.2121  0.2354 -0.5660
 3611SOL    HW111667   6.487   0.753   5.686  1.5932  0.1487  0.1777
 3611SOL    HW211668   6.436   0.793   5.823 -0.3749  0.5022 -0.6254
 3612SOL     OW11669   7.499   6.766   6.242 -0.1560 -0.0010  0.4947
 3612SOL    HW111670   7.447   6.818   6.303 -1.6773  0.1118 -0.8335
 3612SOL    HW211671   7.452   6.683   6.235  0.2699 -0.1953 -0.1638
 3613SOL     OW11672   6.072   3.044   1.522 -0.1367 -0.1681 -0.0829
 3613SOL    HW111673   6.111   2.984   1.458  1.4067  0.5189  0.1745
 3613SOL    HW211674   6.146   3.079   1.571 -1.2870 -0.9027  2.3355
 3614SOL     OW11675   2.854   2.855   4.829 -0.0790 -0.4957 -0.2979
 3614SOL    HW111676   2.882   2.801   4.903  1.1410 -0.1036 -0.4445
 3614SOL    HW211677   2.893   2.813   4.752 -1.1569 -0.7769 -0.6991
 3615SOL     OW11678   3.054   3.923   4.520  0.2889  0.2316 -0.1397
 3615SOL    HW111679   2.978   3.867   4.503 -1.0403  2.0309 -0.4193
 3615SOL    HW211680   3.108   3.872   4.582 -0.4917 -1.6119 -0.9006
 3616SOL     OW11681   5.523   3.073   5.653  0.6010  0.1265 -0.0674
 3616SOL    HW111682   5.469   3.091   5.576  1.8178  1.9099 -0.5620
 3616SOL    HW211683   5.513   3.150   5.709  3.9807  1.4841 -1.0508
 3617SOL     OW11684   1.093   5.921   3.150 -0.4321 -0.1753  0.0319
 3617SOL    HW111685   1.028   5.979   3.112  0.4580  1.0887  0.3759
 3617SOL    HW211686   1.058   5.833   3.136 -1.6107  0.4134 -0.8734
 3618SOL     OW11687   6.413   1.812   2.962  0.2075 -0.1368 -0.5001
 3618SOL    HW111688   6.497   1.857   2.960  1.0943 -1.7613 -0.8843
 3618SOL    HW211689   6.359   1.860   2.899  1.4023 -0.1383 -1.5526
 3619SOL     OW11690   1.271   1.832   4.606  0.6949  0.3340  0.8920
 3619SOL    HW111691   1.274   1.847   4.700  1.8410 -0.9468  1.1021
 3619SOL    HW211692   1.234   1.744   4.596 -0.8107  1.0214  0.0413
 3620SOL     OW11693   4.401   4.852   0.797 -0.1856 -0.1308  0.7710
 3620SOL    HW111694   4.495   4.866   0.792  0.6356 -3.6647  2.7495
 3620SOL    HW211695   4.379   4.802   0.718 -0.3782  0.4961  0.4227
 3621SOL     OW11696   3.787   2.240   5.393 -0.4051  0.5141  0.3910
 3621SOL    HW111697   3.876   2.205   5.388 -0.5915  0.1653 -0.5208
 3621SOL    HW211698   3.798   2.327   5.432  0.3178  0.4298  0.3901
 3622SOL     OW11699   0.867   6.351   1.499  0.0300  0.3963  0.3144
 3622SOL    HW111700   0.864   6.444   1.521  1.6573  0.0106  2.5065
 3622SOL    HW211701   0.955   6.339   1.461 -0.0073 -0.3117  0.4458
 3623SOL     OW11702   2.851   6.548   1.821 -0.1606  0.1502 -0.3357
 3623SOL    HW111703   2.911   6.485   1.861  0.9829  1.2105 -0.3245
 3623SOL    HW211704   2.829   6.510   1.736  0.6793 -0.1628 -0.4175
 3624SOL     OW11705   3.312   4.275   7.699 -0.1209  0.4429  0.0453
 3624SOL    HW111706   3.220   4.278   7.722 -0.4661 -1.2944 -0.9318
 3624SOL    HW211707   3.356   4.242   7.778 -0.3501  1.0146  0.4189
 3625SOL     OW11708   2.016   2.272   4.665  0.3024  0.4849  0.1325
 3625SOL    HW111709   2.013   2.269   4.569 -1.1238  2.1712  0.0896
 3625SOL    HW211710   2.109   2.258   4.686  0.6966  0.4327 -1.5083
 3626SOL     OW11711   0.801   3.592   4.116  0.0375  0.1750 -0.1786
 3626SOL    HW111712   0.803   3.561   4.206  0.9587  0.6781 -0.0048
 3626SOL    HW211713   0.867   3.538   4.071  0.0902  0.4078 -0.3818
 3627SOL     OW11714   7.389   3.123   3.587 -0.0407  0.2711  0.2539
 3627SOL    HW111715   7.352   3.102   3.672  0.9683 -0.3285  0.5695
 3627SOL    HW211716   7.398   3.038   3.543 -3.4971  0.7809 -1.7768
 3628SOL     OW11717   2.559   7.000   4.623 -0.5831  0.6897  0.5614
 3628SOL    HW111718   2.615   6.941   4.572  0.9641  1.5398  1.2196
 3628SOL    HW211719   2.567   6.968   4.713 -0.4279  1.3783  0.7920
 3629SOL     OW11720   0.607   4.673   2.817  0.1542 -0.7231  0.1301
 3629SOL    HW111721   0.571   4.645   2.733 -1.1834  1.8123 -0.2303
 3629SOL    HW211722   0.575   4.762   2.829 -1.3557 -1.5960  4.2647
 3630SOL     OW11723   5.382   5.176   4.904  0.0898 -0.5615 -0.6408
 3630SOL    HW111724   5.395   5.108   4.969 -0.4760 -0.0091  0.0632
 3630SOL    HW211725   5.423   5.254   4.942  2.9285 -0.9937 -2.4688
 3631SOL     OW11726   5.233   2.168   1.945  0.2871  0.2101 -0.2831
 3631SOL    HW111727   5.321   2.204   1.935  0.6291  0.0983  1.8475
 3631SOL    HW211728   5.228   2.142   2.037 -1.6381 -0.7121 -0.5941
 3632SOL     OW11729   7.871   3.835   7.331  0.0358  0.5605  0.3245
 3632SOL    HW111730   7.819   3.855   7.409  1.9618  1.4495  1.4705
 3632SOL    HW211731   7.922   3.758   7.355  0.9056  1.0537  0.0849
 3633SOL     OW11732   1.213   7.261   0.088 -0.2364  0.9514  0.0930
 3633SOL    HW111733   1.206   7.230  -0.002 -1.6291  1.6310 -0.0586
 3633SOL    HW211734   1.305   7.285   0.098 -0.0664  0.8607 -1.1512
 3634SOL     OW11735   2.224   5.155   6.074  0.0952  0.3168 -0.2923
 3634SOL    HW111736   2.313   5.155   6.109  0.3949 -0.4875 -1.0241
 3634SOL    HW211737   2.184   5.076   6.111  0.4895 -0.6701 -1.9019
 3635SOL     OW11738   4.516   0.975   6.968 -0.1462  0.5593  0.0337
 3635SOL    HW111739   4.495   1.063   6.938 -1.6432 -0.0886 -0.9161
 3635SOL    HW211740   4.439   0.947   7.018  0.6534  0.0852  1.0397
 3636SOL     OW11741   3.795   2.508   5.462 -0.0765  0.1527  0.6046
 3636SOL    HW111742   3.752   2.592   5.445 -2.5186 -0.4166  3.1299
 3636SOL    HW211743   3.822   2.513   5.554  0.7953 -1.3895  0.4624
 3637SOL     OW11744   4.297   1.253   4.589  0.1135  0.0568 -0.2237
 3637SOL    HW111745   4.351   1.265   4.511  0.6941  0.2465  0.2039
 3637SOL    HW211746   4.208   1.244   4.555  0.4442 -0.5880 -0.9565
 3638SOL     OW11747   4.729   5.994   7.740 -0.7584 -0.7478  0.1496
 3638SOL    HW111748   4.779   6.020   7.817 -1.6217 -2.7010  1.4327
 3638SOL    HW211749   4.791   6.005   7.667  0.2319  0.6508  1.1501
 3639SOL     OW11750   7.245   7.281   5.668 -0.3008 -0.2196 -0.2517
 3639SOL    HW111751   7.172   7.340   5.652 -1.7523 -1.5570  1.0102
 3639SOL    HW211752   7.204   7.203   5.706  1.3696 -2.5265 -2.8406
 3640SOL     OW11753   6.536   7.286   0.836  0.8228 -0.2310 -0.1975
 3640SOL    HW111754   6.597   7.262   0.767 -1.3523 -1.4337 -1.8265
 3640SOL    HW211755   6.473   7.214   0.840 -0.5861  0.9713  1.2749
 3641SOL     OW11756   2.731   4.687   4.869  0.3528 -0.5949 -0.2196
 3641SOL    HW111757   2.773   4.769   4.846  0.7630 -0.1660  1.8234
 3641SOL    HW211758   2.798   4.620   4.858  1.2253 -0.1053  1.6367
 3642SOL     OW11759   7.065   2.352   2.026 -0.5629 -0.2236 -0.2142
 3642SOL    HW111760   7.057   2.433   1.976  0.3263  0.2605  0.4095
 3642SOL    HW211761   7.077   2.380   2.116 -1.2305 -1.0751  0.1543
 3643SOL     OW11762   3.820   1.345   4.719 -0.6487 -0.9902 -0.0754
 3643SOL    HW111763   3.771   1.424   4.742 -0.3118 -1.1774  1.3853
 3643SOL    HW211764   3.769   1.274   4.758  0.2351 -1.2721  0.5911
 3644SOL     OW11765   6.254   7.555   4.382 -0.3015 -0.9383  0.5574
 3644SOL    HW111766   6.334   7.561   4.435 -0.3438 -0.4147  0.5649
 3644SOL    HW211767   6.284   7.530   4.295  0.2286  2.1988 -0.2767
 3645SOL     OW11768   0.199   3.285   6.181 -0.0379  0.1174 -0.2124
 3645SOL    HW111769   0.247   3.295   6.263 -1.4000  1.2330  0.4957
 3645SOL    HW211770   0.213   3.367   6.133 -1.1155  0.4388 -0.0243
 3646SOL     OW11771   1.026   5.268   6.191 -0.7893 -0.4546 -0.3294
 3646SOL    HW111772   1.113   5.229   6.183 -1.6626 -2.7030  0.3790
 3646SOL    HW211773   1.022   5.333   6.121  1.3165 -0.5358 -0.5847
 3647SOL     OW11774   6.067   6.575   2.707 -0.3659  0.0086 -0.3734
 3647SOL    HW111775   6.162   6.580   2.695 -0.2362 -2.7830 -1.1027
 3647SOL    HW211776   6.056   6.547   2.798 -0.5126  0.1352 -0.3509
 3648SOL     OW11777   2.487   3.439   2.549 -0.5073 -0.2652 -0.2135
 3648SOL    HW111778   2.528   3.523   2.572  0.3560 -0.3495 -1.3388
 3648SOL    HW211779   2.503   3.383   2.625  0.3086  0.1166 -0.0908
 3649SOL     OW11780   3.349   2.052   3.412 -0.2487  0.5526  0.2493
 3649SOL    HW111781   3.386   1.979   3.462 -0.5488 -0.2178 -0.6327
 3649SOL    HW211782   3.381   2.130   3.457  0.3361 -0.1161  1.0236
 3650SOL     OW11783   3.951   2.756   4.147 -0.0036 -0.0577  0.2190
 3650SOL    HW111784   3.920   2.683   4.201  1.6110 -1.8230 -1.0660
 3650SOL    HW211785   4.001   2.810   4.207  1.7785 -1.9932  0.6154
 3651SOL     OW11786   7.666   0.752   0.136 -0.1252  0.3470 -0.1889
 3651SOL    HW111787   7.713   0.692   0.195  1.9545  1.2733 -0.7976
 3651SOL    HW211788   7.695   0.839   0.164 -0.3193  0.8763 -1.5652
 3652SOL     OW11789   4.413   6.491   7.555  0.5690 -0.3970  0.4435
 3652SOL    HW111790   4.392   6.514   7.646 -0.9916 -1.4653  0.3841
 3652SOL    HW211791   4.426   6.575   7.511 -1.1966  0.2504  1.0794
 3653SOL     OW11792   6.839   0.112   5.563 -0.3181 -0.2664 -0.0300
 3653SOL    HW111793   6.922   0.073   5.591  0.0525  1.2182  1.0461
 3653SOL    HW211794   6.846   0.118   5.468  1.1003  0.4526  0.0965
 3654SOL     OW11795   6.301   6.897   5.900 -0.4738 -0.4513  1.0345
 3654SOL    HW111796   6.266   6.952   5.970  0.6523 -1.2759  2.3035
 3654SOL    HW211797   6.262   6.810   5.917 -1.8823 -0.2006 -0.6739
 3655SOL     OW11798   6.779   3.063   6.928 -0.2673 -0.1564  0.4773
 3655SOL    HW111799   6.684   3.052   6.935 -0.2154 -1.0387  0.0487
 3655SOL    HW211800   6.799   3.036   6.838  0.3570  0.2574  0.4881
 3656SOL     OW11801   1.358   1.942   1.315 -0.1827  0.3744 -0.4445
 3656SOL    HW111802   1.352   1.887   1.237  1.1979  2.1431 -1.8837
 3656SOL    HW211803   1.329   2.029   1.286  0.0501  1.0104  1.1115
 3657SOL     OW11804   0.610   3.437   1.547  0.0970 -0.1143  0.4593
 3657SOL    HW111805   0.661   3.411   1.470  1.1252 -1.1336  1.4473
 3657SOL    HW211806   0.548   3.502   1.514  1.2242  0.2647 -1.0137
 3658SOL     OW11807   3.208   2.226   7.001  0.5390 -0.6961  0.1056
 3658SOL    HW111808   3.170   2.312   7.018  0.1418 -0.8922  0.2274
 3658SOL    HW211809   3.284   2.221   7.059 -0.4217 -1.0979  1.3760
 3659SOL     OW11810   5.411   6.661   5.912 -0.2750 -0.0548  0.1776
 3659SOL    HW111811   5.364   6.734   5.871  0.0760 -0.1767 -0.4461
 3659SOL    HW211812   5.343   6.599   5.936 -0.4850  0.0061 -0.2486
 3660SOL     OW11813   3.588   6.137   3.761 -0.5126 -0.3297 -0.2258
 3660SOL    HW111814   3.596   6.054   3.714 -1.6055 -0.9880  0.6816
 3660SOL    HW211815   3.658   6.133   3.827  0.2413  0.0550 -0.9788
 3661SOL     OW11816   1.693   7.291   5.029 -0.1865  0.1920  0.0985
 3661SOL    HW111817   1.698   7.262   5.120  0.6852  1.2319  0.4164
 3661SOL    HW211818   1.708   7.386   5.034 -1.6376  0.5066 -0.9919
 3662SOL     OW11819   2.033   2.610   5.735  0.1663  0.3249  0.0483
 3662SOL    HW111820   2.127   2.619   5.722 -0.0591  1.5090 -0.9905
 3662SOL    HW211821   1.999   2.590   5.648 -0.5698  0.2343  0.3540
 3663SOL     OW11822   0.089   7.559   7.570  1.0366 -0.2355  0.1529
 3663SOL    HW111823   0.061   7.559   7.661 -0.5014  1.2949 -0.2689
 3663SOL    HW211824   0.056   7.475   7.535 -0.5126  0.2197  0.4312
 3664SOL     OW11825   7.778   0.914   3.287  0.5331  0.9881  0.0388
 3664SOL    HW111826   7.694   0.920   3.333  0.3898 -0.9037  0.1235
 3664SOL    HW211827   7.842   0.949   3.350  0.3260 -1.4285  1.7507
 3665SOL     OW11828   5.488   1.134   3.849  0.1238  0.0532  0.3068
 3665SOL    HW111829   5.393   1.139   3.834  0.0905 -1.6563 -0.2182
 3665SOL    HW211830   5.496   1.095   3.936  0.3577  0.5060  0.4924
 3666SOL     OW11831   1.963   4.657   2.506  0.6379  0.0466  0.1094
 3666SOL    HW111832   1.927   4.574   2.474  1.1866  0.4366 -1.6120
 3666SOL    HW211833   1.886   4.712   2.521  0.2346 -0.8610  1.6999
 3667SOL     OW11834   3.809   4.474   2.682 -0.4838 -0.1831  0.3859
 3667SOL    HW111835   3.751   4.466   2.757  0.1440 -0.3995  0.8558
 3667SOL    HW211836   3.831   4.567   2.677 -0.8422 -0.1048  0.2222
 3668SOL     OW11837   1.616   1.956   3.498  0.4189  0.5826 -0.0111
 3668SOL    HW111838   1.593   1.893   3.429 -1.6599  0.8940  0.3369
 3668SOL    HW211839   1.701   1.991   3.471  1.0738 -1.4951 -0.8164
 3669SOL     OW11840   2.339   4.510   2.526 -0.8853 -0.1055 -0.2181
 3669SOL    HW111841   2.380   4.585   2.484  0.1630 -1.2116 -1.2595
 3669SOL    HW211842   2.265   4.488   2.468 -1.7384  0.6343  0.5590
 3670SOL     OW11843   7.520   7.841   3.421  0.4581  0.2488 -0.6157
 3670SOL    HW111844   7.483   7.800   3.343  1.7919 -0.1485 -1.0694
 3670SOL    HW211845   7.535   7.769   3.482 -1.3782  0.6515  0.4039
 3671SOL     OW11846   0.175   2.833   2.591 -0.1110 -0.0784  0.4482
 3671SOL    HW111847   0.214   2.851   2.676 -1.3012  1.0023  0.7968
 3671SOL    HW211848   0.080   2.830   2.608 -0.3155 -0.5750 -0.7032
 3672SOL     OW11849   1.511   7.347   5.441 -0.3216 -0.3134  0.0270
 3672SOL    HW111850   1.473   7.428   5.476 -1.0506 -0.0564 -1.3169
 3672SOL    HW211851   1.443   7.311   5.385  0.1099 -1.7325  0.3851
 3673SOL     OW11852   6.355   4.124   0.039 -0.0395  0.3955 -0.4346
 3673SOL    HW111853   6.341   4.112  -0.055  2.2196  1.0453 -0.9101
 3673SOL    HW211854   6.343   4.036   0.076 -0.7244  0.0885 -1.3514
 3674SOL     OW11855   2.194   4.192   3.592  0.0558  0.2455 -1.1142
 3674SOL    HW111856   2.137   4.177   3.516 -2.0906  0.2682  0.3856
 3674SOL    HW211857   2.144   4.252   3.647  0.3538 -1.6878  1.4720
 3675SOL     OW11858   0.802   0.984   3.216 -0.7601 -0.4341  0.2722
 3675SOL    HW111859   0.869   0.979   3.283 -0.6165  0.4115  0.2026
 3675SOL    HW211860   0.738   1.046   3.251 -0.6460  0.0697 -0.4064
 3676SOL     OW11861   0.884   1.562   0.672 -0.0328  0.1609 -0.3308
 3676SOL    HW111862   0.821   1.513   0.725 -2.0639  3.5632  0.6977
 3676SOL    HW211863   0.834   1.593   0.597 -0.1653  3.9013  1.0748
 3677SOL     OW11864   0.967   3.797   1.353 -0.0839 -0.2498  0.3011
 3677SOL    HW111865   0.954   3.722   1.411 -0.6604 -0.6701 -0.3634
 3677SOL    HW211866   0.983   3.870   1.412 -0.9141 -0.6167  1.0019
 3678SOL     OW11867   4.963   3.652   4.477  0.2442  0.1225 -0.0451
 3678SOL    HW111868   4.869   3.641   4.462  0.4815 -2.1617 -0.1563
 3678SOL    HW211869   5.002   3.568   4.452  2.4231  1.2372 -0.6748
 3679SOL     OW11870   7.747   7.144   1.814  0.0235  0.0370  0.7425
 3679SOL    HW111871   7.767   7.070   1.758 -1.1703  0.6860 -0.6262
 3679SOL    HW211872   7.781   7.220   1.766 -1.6788  0.6795  0.4731
 3680SOL     OW11873   6.354   1.108   7.320 -0.1130 -0.0352 -0.5722
 3680SOL    HW111874   6.407   1.044   7.368 -0.3463 -0.8202 -1.3373
 3680SOL    HW211875   6.413   1.183   7.308 -0.4837  0.7960  2.1336
 3681SOL     OW11876   3.639   2.878   2.952 -0.1218 -0.4228  0.2839
 3681SOL    HW111877   3.719   2.908   2.908 -0.6483  0.1534 -0.3150
 3681SOL    HW211878   3.669   2.814   3.016  0.6910 -1.2622 -0.8792
 3682SOL     OW11879   5.664   6.526   5.935  0.3860 -0.9404 -0.6481
 3682SOL    HW111880   5.637   6.509   6.026 -1.3146  1.0698 -0.7144
 3682SOL    HW211881   5.589   6.568   5.895  2.4929  2.0164 -1.8354
 3683SOL     OW11882   6.611   3.985   1.865 -0.3949  0.7285 -0.0705
 3683SOL    HW111883   6.534   3.969   1.919 -1.5951 -0.4080 -1.9974
 3683SOL    HW211884   6.639   4.074   1.889 -1.8539  0.8936  1.1963
 3684SOL     OW11885   2.105   4.641   1.566  0.1395 -0.3225 -0.7279
 3684SOL    HW111886   2.023   4.661   1.611  0.1882  1.4447 -1.3104
 3684SOL    HW211887   2.157   4.721   1.576  0.3290 -0.0184 -3.4165
 3685SOL     OW11888   5.715   7.045   4.093  0.1182 -0.0675  0.2026
 3685SOL    HW111889   5.685   7.132   4.117 -0.3567  0.2329 -1.3578
 3685SOL    HW211890   5.635   6.995   4.079  0.2444  0.3175 -2.5009
 3686SOL     OW11891   0.334   2.143   0.945  0.4121 -0.8311  0.1252
 3686SOL    HW111892   0.423   2.176   0.955  0.6346 -1.3882 -0.0161
 3686SOL    HW211893   0.284   2.189   1.012  0.6102  0.1760 -0.3883
 3687SOL     OW11894   3.801   0.624   6.356  0.2472 -0.2221 -0.5738
 3687SOL    HW111895   3.773   0.713   6.334  0.8829  0.0157 -0.4646
 3687SOL    HW211896   3.815   0.626   6.451  1.4565 -0.0735 -0.7365
 3688SOL     OW11897   1.757   3.803   1.407  0.9050  0.7006  0.0460
 3688SOL    HW111898   1.715   3.728   1.366  0.5912  0.4511  0.8006
 3688SOL    HW211899   1.743   3.790   1.501 -0.5169  2.4848  0.1505
 3689SOL     OW11900   6.948   3.479   6.059 -0.3251  0.1046  0.0125
 3689SOL    HW111901   6.975   3.563   6.096  1.4822 -0.4726  0.0903
 3689SOL    HW211902   6.909   3.432   6.132 -0.3425  0.4453  0.2258
 3690SOL     OW11903   2.512   2.110   7.833  0.1817 -0.0092  0.6244
 3690SOL    HW111904   2.543   2.097   7.923 -1.0266  0.2240  1.0912
 3690SOL    HW211905   2.417   2.118   7.841  0.1425  1.0938 -0.5444
 3691SOL     OW11906   4.180   6.278   0.253  0.2289 -0.1667 -0.0348
 3691SOL    HW111907   4.087   6.264   0.271  0.3851  0.3404  1.3166
 3691SOL    HW211908   4.186   6.372   0.233  0.4495 -0.2002 -0.1250
 3692SOL     OW11909   6.535   7.651   1.609  0.2904 -0.0359  0.2722
 3692SOL    HW111910   6.599   7.627   1.676  0.3264  1.4832  0.8032
 3692SOL    HW211911   6.455   7.603   1.634  0.4853  0.0327  1.0407
 3693SOL     OW11912   1.032   7.522   4.849  0.1448 -0.5200 -0.0397
 3693SOL    HW111913   1.063   7.526   4.939 -1.4792 -1.7511  0.6300
 3693SOL    HW211914   0.959   7.584   4.845  0.1831 -0.4976 -0.5110
 3694SOL     OW11915   1.522   0.700   4.667 -0.3694 -0.6392 -0.5616
 3694SOL    HW111916   1.470   0.626   4.698 -2.3441  0.4648 -1.0742
 3694SOL    HW211917   1.603   0.661   4.636 -1.2854 -2.5714 -0.6789
 3695SOL     OW11918   3.081   5.704   5.635 -0.5065 -0.0382 -0.0767
 3695SOL    HW111919   3.129   5.724   5.715  0.9404  1.1388 -1.1958
 3695SOL    HW211920   3.030   5.782   5.617 -0.6305 -0.2011 -0.4428
 3696SOL     OW11921   4.662   2.225   4.151  0.0501 -0.0279 -0.2089
 3696SOL    HW111922   4.707   2.144   4.129  1.0565  0.6897 -0.8383
 3696SOL    HW211923   4.676   2.282   4.076 -2.4127  0.0382 -0.7177
 3697SOL     OW11924   5.659   5.680   4.218  0.0043  0.2760 -0.3718
 3697SOL    HW111925   5.749   5.691   4.248  0.9885  1.9586 -3.5230
 3697SOL    HW211926   5.657   5.722   4.132 -3.4323 -1.0497 -1.0927
 3698SOL     OW11927   1.483   7.156   2.219  0.3158 -0.5644  0.1138
 3698SOL    HW111928   1.395   7.120   2.230 -1.1256  1.9472 -1.9067
 3698SOL    HW211929   1.484   7.233   2.277  0.3222  0.6520 -1.4410
 3699SOL     OW11930   7.719   1.960   7.407  0.4375  0.1003  0.0389
 3699SOL    HW111931   7.710   2.038   7.462 -1.7115  0.3320 -0.5591
 3699SOL    HW211932   7.688   1.888   7.462 -0.4887  0.1412 -0.4194
 3700SOL     OW11933   1.098   4.672   1.307 -0.0207  0.2807 -0.2442
 3700SOL    HW111934   1.160   4.734   1.345  1.0604 -1.0712  0.2842
 3700SOL    HW211935   1.021   4.725   1.287  1.1825  1.9654 -0.6730
 3701SOL     OW11936   0.320   0.086   6.897  0.5153 -0.4597 -0.1189
 3701SOL    HW111937   0.324   0.180   6.915  0.9486 -0.8016  1.7540
 3701SOL    HW211938   0.405   0.053   6.925  0.3698 -1.4307 -0.7649
 3702SOL     OW11939   4.889   1.053   6.071  0.6470  0.0662  0.1113
 3702SOL    HW111940   4.911   0.961   6.087  1.0349 -0.0181 -0.8700
 3702SOL    HW211941   4.803   1.064   6.112  1.6503 -0.0790  2.4064
 3703SOL     OW11942   4.836   1.382   1.857  0.0304 -0.0697  0.0215
 3703SOL    HW111943   4.929   1.402   1.871  0.2944 -0.8005 -0.5973
 3703SOL    HW211944   4.815   1.317   1.924  0.0582 -0.1486 -0.0457
 3704SOL     OW11945   0.489   7.523   1.356  0.8315 -0.5249 -0.1370
 3704SOL    HW111946   0.552   7.451   1.348  0.3918 -1.0233  0.8185
 3704SOL    HW211947   0.405   7.485   1.329  0.4605 -0.5851  1.0695
 3705SOL     OW11948   5.697   4.777   7.256 -0.7666  0.1598  0.1088
 3705SOL    HW111949   5.683   4.791   7.350 -0.8005  0.2712  0.0873
 3705SOL    HW211950   5.718   4.864   7.222  0.1892 -0.0257  0.1728
 3706SOL     OW11951   7.686   2.156   5.360 -0.1180  0.3912 -0.3081
 3706SOL    HW111952   7.747   2.166   5.433 -0.8288  0.8574  0.2392
 3706SOL    HW211953   7.628   2.085   5.387 -1.1384  1.3706  0.1385
 3707SOL     OW11954   1.839   4.761   0.751 -0.1649  0.3341 -0.0748
 3707SOL    HW111955   1.801   4.697   0.811 -0.2899  0.5849  0.1150
 3707SOL    HW211956   1.906   4.805   0.803  1.9379 -1.5666 -1.0028
 3708SOL     OW11957   1.338   6.739   1.841  0.1548  0.3582 -0.0711
 3708SOL    HW111958   1.423   6.770   1.872  0.1229 -0.5183  0.9134
 3708SOL    HW211959   1.282   6.742   1.918  0.2011 -2.2900  0.1555
 3709SOL     OW11960   3.201   7.747   3.803  0.2024 -0.6398 -0.2654
 3709SOL    HW111961   3.195   7.780   3.713 -2.7733 -2.9655 -1.0749
 3709SOL    HW211962   3.150   7.809   3.855  0.5992 -0.1552 -0.4422
 3710SOL     OW11963   0.619   6.026   4.189  0.3153 -0.4614  0.3842
 3710SOL    HW111964   0.645   5.951   4.243  1.0554  0.2293  0.9971
 3710SOL    HW211965   0.652   6.004   4.101  2.0087 -0.1103  0.9117
 3711SOL     OW11966   4.932   1.025   0.283  0.2199 -0.0752 -0.0881
 3711SOL    HW111967   4.952   0.941   0.325 -0.6855 -0.2238  0.0720
 3711SOL    HW211968   4.982   1.025   0.202  0.5219 -0.6080  0.0974
 3712SOL     OW11969   6.269   0.151   5.095  0.6591 -0.0281  0.1559
 3712SOL    HW111970   6.232   0.161   5.182 -0.4810  1.2886 -0.4384
 3712SOL    HW211971   6.227   0.073   5.059  2.3110 -1.5267  1.3033
 3713SOL     OW11972   4.132   1.906   7.294 -0.0800  0.1249 -0.4263
 3713SOL    HW111973   4.221   1.906   7.329 -1.0997 -0.6542  2.4451
 3713SOL    HW211974   4.112   1.999   7.281  0.0998  0.6113  2.0950
 3714SOL     OW11975   1.805   7.377   7.213 -0.6250 -0.2671  0.4902
 3714SOL    HW111976   1.709   7.382   7.211 -0.6009  0.0722 -0.0230
 3714SOL    HW211977   1.834   7.449   7.157 -0.0640 -0.1862  0.8718
 3715SOL     OW11978   7.331   3.082   6.850  0.0788  0.1160  0.2813
 3715SOL    HW111979   7.277   3.017   6.805  0.2495 -0.3420  0.7215
 3715SOL    HW211980   7.344   3.045   6.938  2.0245 -0.3530 -0.1356
 3716SOL     OW11981   6.042   4.077   2.632 -0.5080  0.1769  0.3051
 3716SOL    HW111982   5.948   4.060   2.628 -0.2724 -0.9866 -2.1392
 3716SOL    HW211983   6.050   4.158   2.682 -3.1397  2.4598 -2.5579
 3717SOL     OW11984   5.348   4.995   4.260  0.1205  0.1186 -0.0253
 3717SOL    HW111985   5.276   4.982   4.198 -1.4046  1.2896  1.4299
 3717SOL    HW211986   5.363   5.090   4.260  1.2670 -0.0465  0.1594
 3718SOL     OW11987   7.809   1.235   1.296  0.2741  0.3103 -0.2594
 3718SOL    HW111988   7.861   1.300   1.343 -2.0509  1.4269  0.8998
 3718SOL    HW211989   7.763   1.285   1.229 -0.2699 -0.4286 -0.4440
 3719SOL     OW11990   5.296   4.366   0.677  0.8960 -0.4134  0.2974
 3719SOL    HW111991   5.314   4.402   0.590  0.4039  0.0792  0.3937
 3719SOL    HW211992   5.216   4.313   0.665 -0.3087  1.2038  0.8226
 3720SOL     OW11993   6.782   5.352   7.577  0.0666  0.6963 -0.0204
 3720SOL    HW111994   6.801   5.320   7.489 -0.1500 -0.5127  0.3533
 3720SOL    HW211995   6.709   5.413   7.565  0.1135  0.6297 -0.6845
 3721SOL     OW11996   1.747   4.763   4.890  0.6388  0.4293 -0.7736
 3721SOL    HW111997   1.836   4.772   4.854  0.8024  0.5287 -0.3503
 3721SOL    HW211998   1.744   4.826   4.961  0.7084 -0.5692  0.1457
 3722SOL     OW11999   3.587   1.352   5.002 -0.1252  0.3632  0.1665
 3722SOL    HW112000   3.543   1.325   4.921 -0.7950  1.7620  0.0487
 3722SOL    HW212001   3.524   1.332   5.071 -0.0724  0.3823  0.2199
 3723SOL     OW12002   2.649   2.726   5.291 -0.0443 -0.1502 -0.2506
 3723SOL    HW112003   2.669   2.688   5.205 -0.9183  0.8356 -0.9077
 3723SOL    HW212004   2.659   2.820   5.278 -0.0125 -0.0091  0.7840
 3724SOL     OW12005   0.953   0.523   5.359 -0.0848 -0.3410  1.0318
 3724SOL    HW112006   0.873   0.470   5.351  0.2677 -0.9346  1.2845
 3724SOL    HW212007   0.930   0.608   5.323 -1.0463 -0.2838  1.7410
 3725SOL     OW12008   3.987   1.794   3.904 -0.1357 -0.3372 -0.5483
 3725SOL    HW112009   4.001   1.726   3.970 -1.4762  1.1095  1.3434
 3725SOL    HW212010   3.893   1.791   3.886 -0.1594  0.7413 -0.7043
 3726SOL     OW12011   1.599   6.667   1.467  0.1015  0.3294 -0.1060
 3726SOL    HW112012   1.617   6.603   1.536 -0.5909  2.0583  1.7511
 3726SOL    HW212013   1.686   6.695   1.438  0.4024 -0.7952 -0.3428
 3727SOL     OW12014   6.264   2.760   3.381 -0.2090  0.6012  0.6703
 3727SOL    HW112015   6.182   2.748   3.429 -0.2993  1.4694  0.7546
 3727SOL    HW212016   6.284   2.673   3.345 -1.4250  0.4740  0.2305
 3728SOL     OW12017   7.360   4.506   2.311 -0.0602 -0.5672 -0.2020
 3728SOL    HW112018   7.338   4.584   2.261  1.2475  0.0681  0.1499
 3728SOL    HW212019   7.279   4.457   2.317 -0.8990  0.7414 -0.4742
 3729SOL     OW12020   2.492   2.448   7.244  0.3571  0.4851  0.0598
 3729SOL    HW112021   2.551   2.451   7.169  0.2983 -0.0978 -0.0074
 3729SOL    HW212022   2.462   2.358   7.248 -0.2240  0.6889  0.3341
 3730SOL     OW12023   6.103   6.255   3.897  0.5683  0.0161  0.1782
 3730SOL    HW112024   6.130   6.251   3.805 -0.2060  1.4799 -0.1441
 3730SOL    HW212025   6.009   6.243   3.895 -0.1755  4.1998  0.2306
 3731SOL     OW12026   0.815   3.681   1.149  0.8283 -0.1099  0.1849
 3731SOL    HW112027   0.885   3.706   1.210  1.9893 -0.7967 -0.8252
 3731SOL    HW212028   0.841   3.721   1.066 -0.2021 -0.0321 -0.1057
 3732SOL     OW12029   7.593   7.875   0.147  0.0369  0.0043  0.0733
 3732SOL    HW112030   7.517   7.868   0.205 -0.1260 -0.8785 -0.2269
 3732SOL    HW212031   7.661   7.824   0.190 -0.1433 -0.8153 -0.5822
 3733SOL     OW12032   4.003   3.312   3.089  0.0575 -0.0086  0.1793
 3733SOL    HW112033   4.061   3.239   3.071 -0.0739 -0.1899  0.4753
 3733SOL    HW212034   4.059   3.378   3.130  0.5202  0.7180 -1.5589
 3734SOL     OW12035   2.775   0.537   6.097  0.1599  0.1845 -0.5115
 3734SOL    HW112036   2.854   0.506   6.054 -0.6189 -0.0091 -1.8425
 3734SOL    HW212037   2.712   0.551   6.026 -1.0299  0.2546  0.5170
 3735SOL     OW12038   4.764   4.920   4.183  0.4507  0.0337 -0.2567
 3735SOL    HW112039   4.714   4.895   4.105  0.9972 -1.6747 -0.1101
 3735SOL    HW212040   4.823   4.989   4.154 -0.7856  0.8880 -0.8339
 3736SOL     OW12041   4.609   6.597   4.498 -0.3035  0.3076 -0.0116
 3736SOL    HW112042   4.678   6.579   4.434 -0.7204 -1.1456 -0.0838
 3736SOL    HW212043   4.531   6.611   4.445 -0.1405  1.7236  0.0816
 3737SOL     OW12044   7.653   2.251   5.788  0.3931  0.3779  0.7883
 3737SOL    HW112045   7.673   2.157   5.783 -2.5496 -0.3664  1.2092
 3737SOL    HW212046   7.588   2.258   5.858 -2.4132  2.1063 -1.7410
 3738SOL     OW12047   3.220   7.717   2.563 -0.0697 -1.0603 -0.1157
 3738SOL    HW112048   3.292   7.718   2.500 -0.7336 -1.4370 -0.9094
 3738SOL    HW212049   3.256   7.758   2.642  0.1871  1.4109 -1.4017
 3739SOL     OW12050   0.122   5.585   2.726 -0.3466  0.3395  0.3173
 3739SOL    HW112051   0.192   5.651   2.726 -1.1774  1.2373  0.5198
 3739SOL    HW212052   0.157   5.514   2.673 -0.7914  2.4407 -3.1582
 3740SOL     OW12053   1.036   7.090   0.221 -0.0825 -0.2496  0.5441
 3740SOL    HW112054   1.115   7.128   0.182 -1.3019  0.4262 -1.4080
 3740SOL    HW212055   0.993   7.045   0.149 -1.4920 -0.6190  1.5731
 3741SOL     OW12056   0.116   0.428   3.102  0.4604  0.6367  0.0704
 3741SOL    HW112057   0.058   0.416   3.178  3.8634  0.9191  2.9927
 3741SOL    HW212058   0.104   0.519   3.077  2.4140  1.9474  3.3582
 3742SOL     OW12059   1.133   0.163   4.648  0.0431 -0.0971 -0.2171
 3742SOL    HW112060   1.192   0.234   4.624  1.1771 -0.0925  2.3610
 3742SOL    HW212061   1.189   0.098   4.690 -1.7144 -0.1158  2.2859
 3743SOL     OW12062   7.785   7.420   7.194 -0.3368 -0.2010  0.0653
 3743SOL    HW112063   7.754   7.387   7.279 -0.3271  1.1862  0.6349
 3743SOL    HW212064   7.860   7.365   7.173 -0.5040 -0.7356  0.8244
 3744SOL     OW12065   5.382   1.262   5.414  0.1132 -0.1302 -0.3242
 3744SOL    HW112066   5.382   1.354   5.439  0.7398 -0.3872  0.6746
 3744SOL    HW212067   5.289   1.241   5.400 -0.1741  0.2699  0.9026
 3745SOL     OW12068   5.853   2.140   1.994  0.9140  0.5197  0.0508
 3745SOL    HW112069   5.786   2.171   2.055  0.7414 -1.7559  1.1245
 3745SOL    HW212070   5.840   2.192   1.915 -2.8945 -0.5563 -0.2057
 3746SOL     OW12071   6.865   7.451   7.265 -0.1533  0.6176 -0.3550
 3746SOL    HW112072   6.773   7.458   7.292  0.0142 -0.4215  0.5268
 3746SOL    HW212073   6.887   7.359   7.275  0.4314  0.4644 -2.5002
 3747SOL     OW12074   4.385   3.658   0.900 -0.0957 -0.7375 -0.2177
 3747SOL    HW112075   4.447   3.716   0.855 -1.5459 -0.5762 -2.1598
 3747SOL    HW212076   4.369   3.587   0.837  0.0087 -2.1443  1.2597
 3748SOL     OW12077   4.344   5.939   5.203 -0.2593 -0.2376  0.0609
 3748SOL    HW112078   4.266   5.927   5.149  0.6958 -0.4060 -1.3250
 3748SOL    HW212079   4.316   5.999   5.272 -1.5398 -0.0661 -0.5695
 3749SOL     OW12080   4.687   0.780   7.446  0.1946 -0.1818 -0.2447
 3749SOL    HW112081   4.609   0.758   7.396  0.3168  2.1092 -1.5769
 3749SOL    HW212082   4.654   0.813   7.530 -0.1730 -0.9279 -0.0961
 3750SOL     OW12083   4.209   1.577   4.289 -0.4940  0.1740 -0.0048
 3750SOL    HW112084   4.289   1.585   4.341  1.0381 -0.6469 -2.0877
 3750SOL    HW212085   4.189   1.484   4.290 -0.0618  0.0440 -1.3391
 3751SOL     OW12086   3.695   3.171   0.082 -0.5668 -0.2424  0.0562
 3751SOL    HW112087   3.788   3.176   0.060  0.2046 -1.7875  2.5062
 3751SOL    HW212088   3.669   3.082   0.056 -0.6209 -0.7437  1.7359
 3752SOL     OW12089   5.535   7.064   1.173 -0.5543  0.5458 -0.7323
 3752SOL    HW112090   5.549   7.034   1.263  0.1988  1.7889 -0.4127
 3752SOL    HW212091   5.557   6.988   1.119 -0.5818 -0.0799  0.1092
 3753SOL     OW12092   4.706   7.626   5.898  0.0895 -0.1780 -0.0319
 3753SOL    HW112093   4.615   7.628   5.925  0.1990  1.7493  0.3459
 3753SOL    HW212094   4.715   7.699   5.837  1.3411 -0.4226 -0.1701
 3754SOL     OW12095   1.406   4.559   5.577  0.1751 -0.0996 -0.0332
 3754SOL    HW112096   1.474   4.493   5.577  0.5054  0.2342 -0.5580
 3754SOL    HW212097   1.344   4.530   5.510  0.9027  0.6929 -1.0884
 3755SOL     OW12098   4.389   0.577   0.827 -0.3147 -0.5086 -0.3451
 3755SOL    HW112099   4.462   0.567   0.766  1.6440  0.6829  1.6211
 3755SOL    HW212100   4.408   0.658   0.873 -1.8390 -1.1756  1.5900
 3756SOL     OW12101   7.753   7.583   4.267 -0.9205  0.4727  0.4749
 3756SOL    HW112102   7.761   7.576   4.362  1.0674  2.1429  0.5176
 3756SOL    HW212103   7.771   7.676   4.248  0.9116 -0.1966 -1.6419
 3757SOL     OW12104   5.387   5.949   6.471  0.4508  0.3945  0.5574
 3757SOL    HW112105   5.374   6.044   6.483 -0.1635  0.3377  0.4001
 3757SOL    HW212106   5.301   5.911   6.488  0.1447  0.0675 -1.4488
 3758SOL     OW12107   3.970   7.147   5.660 -0.5400 -0.2767  0.2614
 3758SOL    HW112108   3.932   7.065   5.693  0.7416 -3.3201 -4.7889
 3758SOL    HW212109   3.894   7.201   5.639 -1.4596 -0.5181  2.5867
 3759SOL     OW12110   2.185   2.217   6.731 -0.2505  0.2525  0.5368
 3759SOL    HW112111   2.097   2.247   6.753 -1.1088 -1.5948 -0.1264
 3759SOL    HW212112   2.208   2.264   6.651 -1.2404 -0.2620 -0.0739
 3760SOL     OW12113   5.905   7.248   2.407 -0.0161  0.0931  0.6614
 3760SOL    HW112114   5.906   7.158   2.438 -2.2559 -0.5060 -0.7997
 3760SOL    HW212115   5.862   7.297   2.477  0.3350 -0.1251  1.0375
 3761SOL     OW12116   1.551   2.146   6.329  0.8689  0.8451 -0.4819
 3761SOL    HW112117   1.544   2.051   6.316  0.3595  0.6682  0.9273
 3761SOL    HW212118   1.462   2.178   6.321  0.8009  0.9681  0.6441
 3762SOL     OW12119   7.060   6.637   5.478 -0.0745 -0.2566 -0.3858
 3762SOL    HW112120   6.974   6.642   5.438  0.4918  0.0735 -1.6175
 3762SOL    HW212121   7.121   6.628   5.405  0.9392 -0.5308  0.4542
 3763SOL     OW12122   3.997   0.150   0.409 -0.0432 -0.2823 -0.2896
 3763SOL    HW112123   4.040   0.075   0.368 -0.9911 -1.9698  1.6978
 3763SOL    HW212124   4.069   0.206   0.438  0.7825 -1.8801  0.8259
 3764SOL     OW12125   2.744   5.303   1.358  0.4066  0.0599  0.0917
 3764SOL    HW112126   2.700   5.343   1.283 -0.9121 -2.0689 -0.3594
 3764SOL    HW212127   2.765   5.377   1.415 -1.2564  1.4717 -1.0016
 3765SOL     OW12128   3.888   2.949   1.067 -0.5749 -0.2226  0.7138
 3765SOL    HW112129   3.969   2.931   1.018 -1.4210 -2.9629  0.1474
 3765SOL    HW212130   3.906   2.917   1.155 -0.3299  1.2826  1.2477
 3766SOL     OW12131   5.975   1.597   0.894  0.3922 -0.4637  0.1286
 3766SOL    HW112132   6.047   1.592   0.956 -0.7239  2.2050  1.8251
 3766SOL    HW212133   6.015   1.627   0.813  1.3911 -0.5714  0.5713
 3767SOL     OW12134   1.799   5.651   7.700  0.5950 -0.1466 -0.3229
 3767SOL    HW112135   1.891   5.627   7.707  0.5320  0.1261  2.0387
 3767SOL    HW212136   1.788   5.722   7.763 -1.4938 -1.0172  0.3713
 3768SOL     OW12137   0.135   2.255   3.388  0.2450  0.1220 -0.0141
 3768SOL    HW112138   0.154   2.332   3.441 -1.1754  0.7085 -0.3360
 3768SOL    HW212139   0.208   2.250   3.326  0.2067  1.3785 -0.1774
 3769SOL     OW12140   2.378   2.938   5.386  0.1978  0.4659  0.2861
 3769SOL    HW112141   2.355   3.020   5.342 -1.7452 -1.2806 -2.1554
 3769SOL    HW212142   2.462   2.913   5.348  0.6793  1.1253  0.8659
 3770SOL     OW12143   7.661   2.624   3.697  0.6077  0.4618  0.0296
 3770SOL    HW112144   7.709   2.703   3.722  2.1155 -0.4970  0.2545
 3770SOL    HW212145   7.677   2.563   3.769  0.0958 -0.3145 -0.5065
 3771SOL     OW12146   1.001   7.811   7.621  0.5469  0.4455 -0.3042
 3771SOL    HW112147   0.943   7.809   7.544 -0.1244  0.2772  0.1956
 3771SOL    HW212148   1.049   7.894   7.612 -1.8937  2.1176  0.7519
 3772SOL     OW12149   7.118   6.729   5.846  0.1148  0.0737 -0.2911
 3772SOL    HW112150   7.160   6.757   5.764 -1.1097  2.0530 -0.2981
 3772SOL    HW212151   7.145   6.795   5.910 -1.8009  0.5750  0.0408
 3773SOL     OW12152   4.007   1.266   5.888 -0.2953 -0.4105  0.0644
 3773SOL    HW112153   4.062   1.189   5.901  2.2453  1.3419  0.4321
 3773SOL    HW212154   3.960   1.247   5.806  0.4200 -2.2276  0.0156
 3774SOL     OW12155   1.058   2.309   4.742  0.4271 -0.1774  0.4766
 3774SOL    HW112156   1.109   2.257   4.679 -1.3035 -2.0688  0.5350
 3774SOL    HW212157   1.089   2.278   4.827  0.2056 -0.2829  0.5189
 3775SOL     OW12158   2.124   7.542   6.535  0.5003  0.3603 -0.9467
 3775SOL    HW112159   2.074   7.475   6.488 -1.2240  0.4628  0.6361
 3775SOL    HW212160   2.097   7.532   6.626  3.5537  0.3245  0.0663
 3776SOL     OW12161   3.356   1.841   1.020  0.2508 -0.3532  0.3015
 3776SOL    HW112162   3.405   1.905   0.968 -0.4533 -0.3774 -0.4094
 3776SOL    HW212163   3.357   1.877   1.108 -0.8672  1.1201 -0.2332
 3777SOL     OW12164   6.301   0.022   6.919  0.6804 -0.7217 -0.2134
 3777SOL    HW112165   6.271   0.039   7.008 -1.6765 -1.9283 -0.6925
 3777SOL    HW212166   6.313   0.108   6.879 -0.8151 -0.1693  0.4878
 3778SOL     OW12167   6.413   1.496   7.526 -0.3923  0.0376 -0.2811
 3778SOL    HW112168   6.487   1.523   7.580 -0.8966 -0.6884  0.8020
 3778SOL    HW212169   6.452   1.441   7.458  0.2850  1.2020 -0.8781
 3779SOL     OW12170   5.219   3.708   2.870  0.0928 -0.2385 -0.2911
 3779SOL    HW112171   5.254   3.663   2.947  0.5321  0.4441 -0.0772
 3779SOL    HW212172   5.190   3.793   2.904 -0.8680 -0.4162 -0.6539
 3780SOL     OW12173   2.718   4.762   4.536 -0.6684 -0.1764 -0.1632
 3780SOL    HW112174   2.806   4.798   4.548  0.2183 -1.2818 -2.7563
 3780SOL    HW212175   2.731   4.671   4.511 -2.5170 -0.2275 -1.1587
 3781SOL     OW12176   3.193   1.925   7.477  0.2499  0.3833  0.0078
 3781SOL    HW112177   3.245   1.910   7.399 -0.6782  0.7772 -0.7108
 3781SOL    HW212178   3.119   1.864   7.468  1.2951 -1.2522  1.7389
 3782SOL     OW12179   5.697   3.798   4.084  0.2362  0.9832 -0.1965
 3782SOL    HW112180   5.696   3.704   4.066  0.4499  1.0417 -0.5253
 3782SOL    HW212181   5.655   3.807   4.169 -1.7570  0.7903 -1.1124
 3783SOL     OW12182   6.813   7.600   4.388  0.4921 -0.1596  0.0069
 3783SOL    HW112183   6.886   7.554   4.428 -0.1099  0.3923  1.8432
 3783SOL    HW212184   6.782   7.660   4.456 -0.5910  0.8429 -1.3089
 3784SOL     OW12185   5.696   6.053   2.779  0.5846  0.2898  0.3400
 3784SOL    HW112186   5.717   6.146   2.774 -0.8938  0.9320  3.4908
 3784SOL    HW212187   5.781   6.010   2.793  0.9880  1.6016  2.2403
 3785SOL     OW12188   3.540   7.409   3.477 -0.0324  0.0910 -0.1801
 3785SOL    HW112189   3.538   7.504   3.466 -0.1252  0.3668  1.9134
 3785SOL    HW212190   3.452   7.380   3.451 -0.1083  0.6074 -0.4985
 3786SOL     OW12191   4.443   6.011   5.610  0.3900 -0.3784  0.3226
 3786SOL    HW112192   4.411   6.070   5.679 -0.1841 -0.7565  0.3874
 3786SOL    HW212193   4.373   6.011   5.544  1.1269  0.3186 -0.4779
 3787SOL     OW12194   1.580   2.015   2.322  0.0374  0.6325 -0.1275
 3787SOL    HW112195   1.602   1.926   2.351 -0.0675 -0.1483 -2.2511
 3787SOL    HW212196   1.497   2.034   2.364  0.3595 -0.0257  0.8381
 3788SOL     OW12197   7.689   0.364   4.719 -0.3767 -0.7466  0.3797
 3788SOL    HW112198   7.652   0.346   4.805  1.2204 -1.2843  0.9797
 3788SOL    HW212199   7.780   0.334   4.725  0.9275  2.6342 -0.2349
 3789SOL     OW12200   6.131   1.009   5.178  0.0855  0.6697  1.1708
 3789SOL    HW112201   6.038   1.021   5.192 -0.2188 -1.5681  1.5222
 3789SOL    HW212202   6.165   0.977   5.262  0.4256 -1.9026  0.1748
 3790SOL     OW12203   5.307   2.527   5.071 -0.4033 -0.3247  0.5152
 3790SOL    HW112204   5.237   2.486   5.021  0.1099 -1.1142  0.4278
 3790SOL    HW212205   5.341   2.458   5.128  0.1469  0.1037  0.7241
 3791SOL     OW12206   6.803   7.863   0.951 -0.1875 -0.0723  0.1356
 3791SOL    HW112207   6.779   7.955   0.943 -2.9487 -0.6838  0.3335
 3791SOL    HW212208   6.847   7.857   1.037 -3.8872  0.4681  2.2668
 3792SOL     OW12209   2.915   7.721   5.151 -0.2562  0.0831  0.9302
 3792SOL    HW112210   2.835   7.696   5.198  0.9647 -2.7094  1.7054
 3792SOL    HW212211   2.980   7.735   5.219  0.1759  1.5004  0.2651
 3793SOL     OW12212   5.584   0.803   1.600  0.2902 -0.5668 -0.0763
 3793SOL    HW112213   5.583   0.785   1.506  0.6669 -0.9402 -0.0162
 3793SOL    HW212214   5.523   0.876   1.612  1.7307  0.8278 -0.8834
 3794SOL     OW12215   7.399   3.245   4.897  0.1957 -0.0170 -0.1275
 3794SOL    HW112216   7.360   3.163   4.869 -1.2577  0.5026  0.2615
 3794SOL    HW212217   7.341   3.276   4.967  0.8130  1.2374 -0.1456
 3795SOL     OW12218   0.372   3.378   6.787 -0.3952 -0.4767 -0.6744
 3795SOL    HW112219   0.443   3.333   6.832 -0.4828  0.1889  0.1550
 3795SOL    HW212220   0.295   3.362   6.842 -0.4179  0.7063 -0.3461
 3796SOL     OW12221   2.072   4.965   4.544 -0.0241 -0.4671 -0.0246
 3796SOL    HW112222   2.085   5.049   4.588 -1.9419 -0.6439  0.9692
 3796SOL    HW212223   2.072   4.987   4.451  2.5800  0.1289  0.0146
 3797SOL     OW12224   2.104   1.491   4.831  0.0681  0.2277 -0.3762
 3797SOL    HW112225   2.049   1.413   4.827  2.0081 -1.2412  0.0604
 3797SOL    HW212226   2.157   1.479   4.910 -0.5228  2.6827  0.4702
 3798SOL     OW12227   3.161   6.705   3.336  0.4406 -0.2796  0.2612
 3798SOL    HW112228   3.142   6.699   3.243 -1.0925 -0.1213  0.5489
 3798SOL    HW212229   3.177   6.615   3.364  0.9558 -0.3212 -0.1509
 3799SOL     OW12230   4.781   4.832   0.450  0.2472  0.0914  0.4574
 3799SOL    HW112231   4.809   4.767   0.515  0.4894  0.9809  1.2679
 3799SOL    HW212232   4.755   4.780   0.374 -2.7379 -1.1866  2.2019
 3800SOL     OW12233   1.412   2.275   5.884  0.4149 -0.4661 -0.1793
 3800SOL    HW112234   1.402   2.366   5.913  0.9999 -0.2326 -0.6948
 3800SOL    HW212235   1.323   2.240   5.884  0.2980 -0.2208  1.0543
 3801SOL     OW12236   4.980   5.439   4.929 -0.0769 -0.4279 -0.1975
 3801SOL    HW112237   4.984   5.354   4.885 -0.5403  0.1051 -1.3371
 3801SOL    HW212238   4.886   5.459   4.933 -0.0086 -0.2328  0.6049
 3802SOL     OW12239   0.761   1.928   4.384  0.0166 -0.4027 -0.3600
 3802SOL    HW112240   0.805   1.843   4.394 -1.7907 -1.6159 -1.8867
 3802SOL    HW212241   0.682   1.920   4.439 -1.0179 -0.4256 -1.7767
 3803SOL     OW12242   7.684   0.570   1.171  0.2879 -0.3951 -0.2775
 3803SOL    HW112243   7.693   0.498   1.109 -0.0682 -0.2351 -0.5149
 3803SOL    HW212244   7.724   0.645   1.127  0.5125 -0.4080 -0.0965
 3804SOL     OW12245   7.353   1.988   5.995  0.3622 -0.0906  0.3104
 3804SOL    HW112246   7.282   1.937   5.955  0.3689 -0.5617  0.8763
 3804SOL    HW212247   7.309   2.045   6.058  0.5460 -1.0886  1.3881
 3805SOL     OW12248   0.480   7.419   5.443  0.3377 -0.2978  0.1093
 3805SOL    HW112249   0.452   7.340   5.489 -0.4747 -0.1594 -0.1395
 3805SOL    HW212250   0.574   7.425   5.460  0.5009 -1.5928 -0.2735
 3806SOL     OW12251   6.537   6.609   3.715 -0.0472 -0.5748  0.2786
 3806SOL    HW112252   6.564   6.700   3.726 -0.3671 -0.2097 -1.6126
 3806SOL    HW212253   6.560   6.567   3.799  1.9568  0.7646  0.4802
 3807SOL     OW12254   0.177   1.512   4.233 -0.4338 -0.3340  0.5666
 3807SOL    HW112255   0.117   1.472   4.169 -2.0190  2.1635  0.3772
 3807SOL    HW212256   0.149   1.475   4.317 -1.6027  0.0370  0.3599
 3808SOL     OW12257   3.384   1.713   3.988 -0.4526  0.0892 -0.4171
 3808SOL    HW112258   3.445   1.728   3.916 -1.9444 -1.1639 -2.0179
 3808SOL    HW212259   3.439   1.677   4.058  1.0306  1.3252 -0.8935
 3809SOL     OW12260   6.823   5.241   4.014  0.1680  0.0444 -0.2912
 3809SOL    HW112261   6.734   5.246   4.050  0.3401 -2.0757  0.5315
 3809SOL    HW212262   6.881   5.246   4.090  0.7502  0.7070 -0.7624
 3810SOL     OW12263   4.465   5.002   3.301  0.2346 -0.0973  0.1457
 3810SOL    HW112264   4.537   5.065   3.294  1.3013 -1.4869 -2.3441
 3810SOL    HW212265   4.388   5.052   3.275  0.9315  0.4530 -0.9590
 3811SOL     OW12266   7.728   3.501   3.115  0.0286 -0.7445  0.1571
 3811SOL    HW112267   7.773   3.424   3.147  1.2188 -0.0654  0.1622
 3811SOL    HW212268   7.648   3.506   3.168 -0.9918 -2.9513 -1.0643
 3812SOL     OW12269   4.353   5.720   5.649 -0.0038  0.0790 -0.1349
 3812SOL    HW112270   4.413   5.711   5.723  1.3896 -2.2790 -1.4363
 3812SOL    HW212271   4.397   5.781   5.590  0.6338 -0.7952 -0.5865
 3813SOL     OW12272   3.528   1.950   1.604 -0.1946 -0.0884  0.2343
 3813SOL    HW112273   3.511   2.043   1.586 -0.8746 -0.2805 -0.1754
 3813SOL    HW212274   3.602   1.928   1.548  0.1569  0.2813  0.5531
 3814SOL     OW12275   3.531   4.507   6.811 -0.5277  0.0017 -0.2014
 3814SOL    HW112276   3.559   4.599   6.813 -2.6091  0.7422 -1.7143
 3814SOL    HW212277   3.584   4.468   6.742  0.1243  0.1316  0.2145
 3815SOL     OW12278   2.753   6.766   0.035  0.0909  0.0988 -0.5276
 3815SOL    HW112279   2.713   6.727  -0.043 -2.7335  2.5757 -0.4900
 3815SOL    HW212280   2.824   6.819   0.001 -0.1480 -0.0262 -1.2530
 3816SOL     OW12281   7.817   1.468   1.797  0.4062  0.0036 -0.0127
 3816SOL    HW112282   7.911   1.456   1.783  0.1386 -2.5410 -0.0369
 3816SOL    HW212283   7.798   1.415   1.875 -1.1764 -0.4344 -0.6660
 3817SOL     OW12284   4.251   2.317   1.654 -0.0973  0.1623 -0.2248
 3817SOL    HW112285   4.244   2.228   1.689 -1.0108 -0.2180 -1.3342
 3817SOL    HW212286   4.337   2.320   1.612 -0.1612 -0.2762 -0.3866
 3818SOL     OW12287   3.567   2.957   6.541  0.3450 -0.2868  0.3903
 3818SOL    HW112288   3.501   2.995   6.483  0.5740 -0.7613 -0.1988
 3818SOL    HW212289   3.609   3.032   6.581 -1.4991  0.0179  1.8992
 3819SOL     OW12290   0.565   6.149   2.002  0.0019 -0.6328  0.1292
 3819SOL    HW112291   0.545   6.187   1.916 -0.8853  2.1495  1.4496
 3819SOL    HW212292   0.643   6.097   1.987 -1.1587 -1.7790 -2.7198
 3820SOL     OW12293   7.628   2.893   6.757 -0.4215 -0.0464  0.0940
 3820SOL    HW112294   7.538   2.909   6.729 -0.3879  1.5251  0.7729
 3820SOL    HW212295   7.681   2.946   6.697 -0.0811  0.4064  0.7832
 3821SOL     OW12296   2.206   5.771   4.193  0.0093 -0.2628 -0.0877
 3821SOL    HW112297   2.301   5.770   4.208  0.0169  0.3365 -0.0869
 3821SOL    HW212298   2.196   5.813   4.107 -0.2718 -0.0692  0.0382
 3822SOL     OW12299   6.119   6.847   2.041 -0.3177  0.2705 -0.1469
 3822SOL    HW112300   6.107   6.762   1.999  0.2489  0.2253 -0.2279
 3822SOL    HW212301   6.150   6.904   1.970 -1.9074  0.8882 -0.4041
 3823SOL     OW12302   0.600   2.165   7.576  0.1636  0.4151 -0.5575
 3823SOL    HW112303   0.558   2.249   7.596  1.0435  0.6890  0.2315
 3823SOL    HW212304   0.594   2.115   7.658  0.5638  0.1141 -0.7072
 3824SOL     OW12305   7.822   0.890   4.361 -0.0123 -0.4214  0.5321
 3824SOL    HW112306   7.841   0.890   4.454  1.9443  0.0236  0.1632
 3824SOL    HW212307   7.907   0.888   4.318 -0.7645  1.7028 -1.2682
 3825SOL     OW12308   0.321   0.422   2.881 -0.3712 -0.2492 -0.6244
 3825SOL    HW112309   0.260   0.431   2.954 -0.9184  0.2662 -1.1365
 3825SOL    HW212310   0.407   0.419   2.922 -0.8051 -2.7658  0.2462
 3826SOL     OW12311   1.940   7.725   1.923 -0.9060 -0.2429 -0.4967
 3826SOL    HW112312   1.876   7.779   1.877  0.2577  0.8004 -0.9570
 3826SOL    HW212313   2.018   7.780   1.928 -0.2669 -1.2173  0.6782
 3827SOL     OW12314   4.386   2.603   6.421 -0.4268 -0.0167 -0.0465
 3827SOL    HW112315   4.458   2.585   6.482 -1.1613  0.5053  1.0026
 3827SOL    HW212316   4.430   2.629   6.340  0.6752 -3.6997 -0.8300
 3828SOL     OW12317   0.082   6.510   0.614  0.0305 -0.5759  0.5583
 3828SOL    HW112318   0.108   6.488   0.703 -1.2773 -0.9377  0.8769
 3828SOL    HW212319  -0.012   6.493   0.612 -0.3225  1.2513 -0.3300
 3829SOL     OW12320   2.326   4.051   3.064 -0.1475  0.2868  0.3878
 3829SOL    HW112321   2.408   4.048   3.113 -0.1994  0.7039  0.5049
 3829SOL    HW212322   2.278   3.973   3.091  0.1413  0.1283  0.4406
 3830SOL     OW12323   3.028   2.527   2.160  0.6283 -0.0239 -0.0942
 3830SOL    HW112324   3.091   2.597   2.179 -1.5448  1.6208  1.6122
 3830SOL    HW212325   2.965   2.532   2.231 -1.5577 -1.4518 -1.7945
 3831SOL     OW12326   0.314   3.116   1.012 -0.5950 -0.1645  0.1601
 3831SOL    HW112327   0.233   3.122   1.064 -1.1962  0.9414 -0.8510
 3831SOL    HW212328   0.360   3.197   1.031 -0.2613 -0.2868 -0.1282
 3832SOL     OW12329   4.503   7.665   2.833  0.1613  0.0979 -0.2673
 3832SOL    HW112330   4.420   7.637   2.871  0.3378 -0.8805 -0.5825
 3832SOL    HW212331   4.511   7.615   2.752  1.1148  0.0848 -0.1830
 3833SOL     OW12332   1.758   4.620   3.026 -0.2944  0.2136  0.2751
 3833SOL    HW112333   1.829   4.653   2.971  0.1905  0.6207  1.1424
 3833SOL    HW212334   1.771   4.525   3.028 -1.0113  0.0469 -1.2615
 3834SOL     OW12335   5.908   1.927   5.769 -0.3184  0.0512 -0.2639
 3834SOL    HW112336   5.965   1.864   5.811  0.9237 -0.0799 -2.0188
 3834SOL    HW212337   5.944   1.936   5.680 -0.9394  2.6111 -0.3213
 3835SOL     OW12338   7.895   6.898   3.453 -0.5327 -0.3438  0.5942
 3835SOL    HW112339   7.968   6.910   3.393  0.0826 -1.0631  1.1907
 3835SOL    HW212340   7.922   6.942   3.533 -0.9333 -0.2596  0.6895
 3836SOL     OW12341   6.271   3.009   4.124 -0.0107  0.1994 -0.3146
 3836SOL    HW112342   6.283   3.080   4.060 -2.0541  1.4350  0.5802
 3836SOL    HW212343   6.180   2.980   4.110  0.8352 -2.4940 -0.8328
 3837SOL     OW12344   3.894   1.262   2.042  0.5902  0.0761 -0.3776
 3837SOL    HW112345   3.899   1.256   1.947  1.9686  1.1284 -0.4047
 3837SOL    HW212346   3.966   1.208   2.074 -1.1203 -1.9730  0.1855
 3838SOL     OW12347   4.069   7.121   4.391  0.2060  0.4025 -0.2024
 3838SOL    HW112348   3.998   7.101   4.331  0.7795  1.5855 -1.3110
 3838SOL    HW212349   4.070   7.047   4.453 -1.6360  0.1203 -0.4574
 3839SOL     OW12350   4.710   5.712   6.837 -0.5495 -0.4240  0.0523
 3839SOL    HW112351   4.617   5.692   6.845 -0.4525 -1.3187 -0.9492
 3839SOL    HW212352   4.715   5.774   6.764 -0.4154  0.1311  0.5233
 3840SOL     OW12353   1.870   0.363   3.817  0.5220  0.1839  0.7742
 3840SOL    HW112354   1.878   0.374   3.912  2.2708  1.0633  0.5809
 3840SOL    HW212355   1.880   0.452   3.782 -1.9407  0.1513 -0.1841
 3841SOL     OW12356   1.700   1.068   0.860 -0.0016  0.1488 -0.4547
 3841SOL    HW112357   1.708   0.984   0.814 -0.8335 -0.4396  0.4484
 3841SOL    HW212358   1.774   1.069   0.921  1.2355  1.0284 -1.8896
 3842SOL     OW12359   4.720   0.572   2.118 -0.6741  0.4277 -0.1252
 3842SOL    HW112360   4.715   0.506   2.049  0.2334 -1.5336  1.5686
 3842SOL    HW212361   4.630   0.582   2.148 -0.7136 -0.7727  0.2094
 3843SOL     OW12362   7.832   5.161   6.281  0.0467  0.5089 -0.3164
 3843SOL    HW112363   7.856   5.068   6.280  1.2946  0.8061  0.1075
 3843SOL    HW212364   7.772   5.171   6.206  0.8738 -0.3893 -1.1362
 3844SOL     OW12365   3.411   2.851   0.198 -0.1012  0.1596  0.1978
 3844SOL    HW112366   3.473   2.889   0.262 -0.0710  0.8530 -0.2264
 3844SOL    HW212367   3.361   2.927   0.167  0.6356  0.0187 -1.4198
 3845SOL     OW12368   0.886   3.151   5.555  0.0591  0.0702 -0.0089
 3845SOL    HW112369   0.958   3.165   5.494  1.4205 -0.0081  1.5127
 3845SOL    HW212370   0.925   3.104   5.628 -1.2438  1.1258  1.4321
 3846SOL     OW12371   5.775   1.915   4.318  0.1956  0.0231  0.4040
 3846SOL    HW112372   5.797   1.996   4.364 -1.1475  0.8966 -0.4110
 3846SOL    HW212373   5.795   1.845   4.381  0.1106  1.0600  1.6249
 3847SOL     OW12374   0.057   6.144   5.745  0.5645  0.4731  0.0459
 3847SOL    HW112375  -0.022   6.104   5.779  1.8704 -2.0043  0.3471
 3847SOL    HW212376   0.027   6.196   5.670 -1.4037  0.2884  0.6499
 3848SOL     OW12377   3.412   0.712   7.562  0.0108  0.4057  0.2455
 3848SOL    HW112378   3.323   0.742   7.581  0.0593  1.0431 -0.4765
 3848SOL    HW212379   3.426   0.735   7.471  0.1980 -1.5406 -0.2485
 3849SOL     OW12380   6.904   6.036   5.914 -0.0817  0.3749  0.0407
 3849SOL    HW112381   6.932   5.945   5.917  0.5084  0.2608 -3.8708
 3849SOL    HW212382   6.969   6.083   5.965  1.5169 -1.0414 -0.6185
 3850SOL     OW12383   1.518   5.481   2.535  0.3450 -0.3874  0.5268
 3850SOL    HW112384   1.573   5.411   2.500  1.3280  0.9108 -0.6291
 3850SOL    HW212385   1.561   5.562   2.506 -1.4904  0.6900  0.6741
 3851SOL     OW12386   3.860   3.164   3.294  0.8802  0.4569 -0.5073
 3851SOL    HW112387   3.947   3.183   3.258  1.8880  0.6126  1.8210
 3851SOL    HW212388   3.820   3.249   3.307  0.5271  0.4023 -1.1894
 3852SOL     OW12389   6.086   0.768   4.808  0.3775 -0.1671 -0.1036
 3852SOL    HW112390   6.001   0.762   4.764  0.2785 -1.4650  0.2456
 3852SOL    HW212391   6.140   0.701   4.766  0.5165 -0.9071  1.2298
 3853SOL     OW12392   7.507   7.292   6.831 -0.1687 -0.0313 -0.3528
 3853SOL    HW112393   7.474   7.289   6.741 -0.0759 -1.7926 -0.3617
 3853SOL    HW212394   7.462   7.220   6.875  0.8201 -0.0596  0.6465
 3854SOL     OW12395   6.102   5.875   6.406  0.3401  0.6808 -0.3346
 3854SOL    HW112396   6.072   5.891   6.316  1.4417  3.5574 -0.2889
 3854SOL    HW212397   6.154   5.952   6.428  0.5892 -0.2112  2.5966
 3855SOL     OW12398   3.714   3.714   7.386  0.4897  0.1458  0.1779
 3855SOL    HW112399   3.635   3.672   7.422  0.9540  0.2358  1.3453
 3855SOL    HW212400   3.783   3.693   7.449  1.1459  1.0736 -0.2128
 3856SOL     OW12401   7.357   7.248   4.004 -0.0144  0.5211  0.2286
 3856SOL    HW112402   7.383   7.264   4.095  1.4953  2.8971 -0.5173
 3856SOL    HW212403   7.439   7.236   3.957 -0.6945  0.5644 -1.0292
 3857SOL     OW12404   4.381   6.149   0.909 -0.5633 -0.5174  0.4277
 3857SOL    HW112405   4.311   6.141   0.843  1.2299  0.7400 -1.7937
 3857SOL    HW212406   4.434   6.071   0.898  0.4905  0.3113 -0.6353
 3858SOL     OW12407   1.574   4.119   5.605  0.0904 -0.1310 -0.0280
 3858SOL    HW112408   1.635   4.054   5.570 -0.3665 -0.3224 -0.4882
 3858SOL    HW212409   1.587   4.116   5.699  1.6242  0.6711 -0.1903
 3859SOL     OW12410   5.968   0.269   3.844 -0.6229 -0.1580 -0.2551
 3859SOL    HW112411   6.045   0.278   3.789 -1.0991 -0.6252 -1.0247
 3859SOL    HW212412   5.947   0.176   3.842 -1.0306 -0.0857  0.1929
 3860SOL     OW12413   4.252   3.417   1.165  0.0565  0.1991 -0.7648
 3860SOL    HW112414   4.170   3.436   1.210 -0.3057 -0.6793 -1.0314
 3860SOL    HW212415   4.233   3.340   1.110  1.3662 -0.7956  0.0849
 3861SOL     OW12416   0.262   3.328   4.058 -0.2634 -0.3578  0.2732
 3861SOL    HW112417   0.350   3.319   4.022 -0.5169  0.8256 -0.7612
 3861SOL    HW212418   0.247   3.248   4.108  0.7886 -1.3058 -0.8630
 3862SOL     OW12419   0.245   0.580   1.490  0.0001  0.3040 -0.0075
 3862SOL    HW112420   0.242   0.544   1.402 -0.1865  0.4847 -0.0765
 3862SOL    HW212421   0.305   0.655   1.484 -1.4557  1.4915 -0.4303
 3863SOL     OW12422   4.563   0.946   6.000  0.5694  0.2156 -0.4577
 3863SOL    HW112423   4.497   0.911   6.060  0.1159  0.4575 -0.8067
 3863SOL    HW212424   4.646   0.933   6.045  0.2776 -0.0409  0.0136
 3864SOL     OW12425   1.625   6.053   1.598  0.1293 -0.3252  0.1380
 3864SOL    HW112426   1.655   6.126   1.544  0.3235 -0.1560  0.4694
 3864SOL    HW212427   1.562   6.092   1.659  4.3001  0.8648  4.2161
 3865SOL     OW12428   4.115   2.846   3.183 -0.1982 -0.5778  0.2992
 3865SOL    HW112429   4.117   2.753   3.202 -3.0382 -0.4644  1.5088
 3865SOL    HW212430   4.161   2.887   3.256 -0.0856 -0.9114  0.4168
 3866SOL     OW12431   0.728   0.102   0.448  0.1020 -0.9954 -0.0394
 3866SOL    HW112432   0.708   0.191   0.418 -0.5585 -1.1216  0.0148
 3866SOL    HW212433   0.822   0.095   0.437  0.4145  0.2718  1.4909
 3867SOL     OW12434   5.824   0.280   4.978 -0.3821  0.2034  0.2299
 3867SOL    HW112435   5.906   0.297   5.023 -0.0186 -0.3737 -0.2127
 3867SOL    HW212436   5.836   0.319   4.891 -1.0374  1.2100  0.5674
 3868SOL     OW12437   4.079   3.108   2.082  0.1029 -0.3009  0.3803
 3868SOL    HW112438   4.052   3.145   1.998 -0.5941  1.4645  1.3387
 3868SOL    HW212439   4.023   3.032   2.094 -0.1559 -0.2631 -0.5073
 3869SOL     OW12440   2.838   1.261   6.629  0.4051  0.0540  0.8632
 3869SOL    HW112441   2.912   1.309   6.593 -0.1282  1.0324  1.0143
 3869SOL    HW212442   2.784   1.240   6.553 -0.2734  1.3378  0.9502
 3870SOL     OW12443   4.549   0.588   2.729  0.4494  0.1285 -0.1115
 3870SOL    HW112444   4.623   0.529   2.747  0.2627 -0.0752 -0.0131
 3870SOL    HW212445   4.591   0.671   2.705  0.7600  0.6469  1.9444
 3871SOL     OW12446   6.973   1.942   6.506  0.0602  0.2810 -0.4940
 3871SOL    HW112447   7.054   1.916   6.462  0.8904  1.5317  0.2012
 3871SOL    HW212448   7.003   1.984   6.587 -1.3317 -0.0191  0.2078
 3872SOL     OW12449   2.018   1.279   5.981  0.3755  0.1070 -0.0500
 3872SOL    HW112450   2.112   1.297   5.988  0.3081  0.4719 -0.0628
 3872SOL    HW212451   1.981   1.358   5.942  0.0328  0.0455  0.1432
 3873SOL     OW12452   3.103   7.317   4.990 -0.0516  0.0434  0.3062
 3873SOL    HW112453   3.024   7.370   4.977 -0.0163  0.1382  0.4687
 3873SOL    HW212454   3.150   7.362   5.060 -0.0405 -0.2291  0.4744
 3874SOL     OW12455   0.921   0.938   2.704 -1.0876 -0.2148  0.4592
 3874SOL    HW112456   0.942   0.947   2.797  2.4914  1.5366 -0.3313
 3874SOL    HW212457   0.999   0.898   2.665 -2.7680 -1.6241 -1.7466
 3875SOL     OW12458   7.686   4.149   0.800  0.6280 -0.8986  0.0539
 3875SOL    HW112459   7.729   4.218   0.850  0.0079  0.9564 -1.8528
 3875SOL    HW212460   7.600   4.139   0.842  0.8024 -0.6898  0.4664
 3876SOL     OW12461   0.596   6.542   3.035 -0.3162 -0.1096  0.1244
 3876SOL    HW112462   0.538   6.470   3.009 -0.7853 -0.7177  2.5457
 3876SOL    HW212463   0.543   6.594   3.096  0.1652  2.0860 -1.2509
 3877SOL     OW12464   7.316   3.971   3.474  0.3319  0.1941  0.2212
 3877SOL    HW112465   7.371   4.022   3.533  0.3123  0.4963 -0.0171
 3877SOL    HW212466   7.375   3.943   3.404 -0.1119  1.8094 -0.8458
 3878SOL     OW12467   1.122   0.399   2.874 -0.0549  0.3549 -0.2804
 3878SOL    HW112468   1.203   0.402   2.823  0.5841  0.1997  0.7105
 3878SOL    HW212469   1.115   0.486   2.913 -0.4830  0.4370 -0.5360
 3879SOL     OW12470   4.924   7.624   1.869  0.2589 -0.6180 -0.5312
 3879SOL    HW112471   4.909   7.670   1.787 -0.9954  0.2051  0.1142
 3879SOL    HW212472   4.998   7.670   1.910 -1.2917  1.2476  0.3345
 3880SOL     OW12473   2.692   0.384   5.580  0.2269  0.4095 -0.4206
 3880SOL    HW112474   2.777   0.382   5.535  0.0596  0.4495 -0.7426
 3880SOL    HW212475   2.648   0.461   5.544 -0.8070 -0.7834 -1.8394
 3881SOL     OW12476   7.462   3.399   3.590 -0.3348  0.2743 -0.4733
 3881SOL    HW112477   7.454   3.304   3.579 -0.4500  0.2998 -0.6168
 3881SOL    HW212478   7.381   3.424   3.636 -0.4428  0.3426 -0.6977
 3882SOL     OW12479   2.997   1.934   2.570 -0.1119  0.2341 -0.2142
 3882SOL    HW112480   3.052   1.922   2.492 -0.3218  0.8958 -0.4698
 3882SOL    HW212481   3.060   1.944   2.642  0.0824 -1.1762 -0.1530
 3883SOL     OW12482   1.922   7.467   4.092 -0.2159 -0.1839 -0.3922
 3883SOL    HW112483   1.921   7.375   4.120  2.7670 -0.0769  0.3631
 3883SOL    HW212484   1.892   7.464   4.001  0.6567 -2.0707 -0.6738
 3884SOL     OW12485   5.847   7.816   3.654  0.3588  0.2163  0.0983
 3884SOL    HW112486   5.909   7.745   3.638 -1.5754 -1.4128 -0.6400
 3884SOL    HW212487   5.873   7.884   3.592  2.7511  0.5656  1.3816
 3885SOL     OW12488   1.747   0.055   7.353  0.2920  0.0195  0.4503
 3885SOL    HW112489   1.687   0.003   7.405 -0.2610  0.4633  0.2680
 3885SOL    HW212490   1.765   0.132   7.406  0.4582  0.0332  0.3747
 3886SOL     OW12491   0.634   1.926   7.448 -0.3372 -0.5972 -0.0362
 3886SOL    HW112492   0.633   2.013   7.487 -2.2346  0.5129 -2.3438
 3886SOL    HW212493   0.704   1.929   7.383  1.5521 -1.8390  1.7927
 3887SOL     OW12494   7.339   2.348   4.654 -0.8026  0.0623  0.1622
 3887SOL    HW112495   7.253   2.319   4.686 -0.7621  1.1609  1.3676
 3887SOL    HW212496   7.366   2.414   4.718  0.5595  0.3465 -0.6886
 3888SOL     OW12497   3.025   3.108   6.857 -0.6250 -0.0760  0.0278
 3888SOL    HW112498   3.058   3.018   6.861 -1.0849 -0.2310  0.3148
 3888SOL    HW212499   2.932   3.099   6.838 -0.3123  0.3881 -1.9034
 3889SOL     OW12500   1.551   7.881   3.181  0.1455 -0.6009  0.5880
 3889SOL    HW112501   1.529   7.816   3.115  0.4076 -0.2493  0.1433
 3889SOL    HW212502   1.520   7.844   3.263 -0.2041 -1.0357  0.2638
 3890SOL     OW12503   2.970   6.767   7.282  0.0913 -0.2119 -0.0268
 3890SOL    HW112504   2.979   6.856   7.249  0.6669 -0.0804  0.4526
 3890SOL    HW212505   3.060   6.736   7.290 -0.0703 -0.5200  0.6447
 3891SOL     OW12506   6.332   7.221   3.396 -0.1021  0.4219 -0.0525
 3891SOL    HW112507   6.282   7.162   3.453 -0.6030  0.3408 -0.5662
 3891SOL    HW212508   6.422   7.189   3.402 -0.8540 -3.1682 -3.5211
 3892SOL     OW12509   5.160   5.409   3.215 -0.3606 -0.1486 -0.4557
 3892SOL    HW112510   5.153   5.331   3.159  0.2967  0.2098 -1.0443
 3892SOL    HW212511   5.129   5.481   3.161 -0.5463  0.0755 -0.0581
 3893SOL     OW12512   7.046   3.160   0.805  0.3145  0.2280 -0.0588
 3893SOL    HW112513   7.083   3.247   0.820 -1.0222  0.3624  3.3709
 3893SOL    HW212514   7.010   3.164   0.717 -0.2755  3.3826  0.2254
 3894SOL     OW12515   6.171   1.025   0.552 -0.5141 -0.3505 -0.0201
 3894SOL    HW112516   6.109   1.033   0.624  0.6747 -0.5134  1.0770
 3894SOL    HW212517   6.177   1.113   0.514 -0.0811  0.0956  1.0391
 3895SOL     OW12518   2.571   0.143   5.655 -0.1619 -0.3916 -0.4348
 3895SOL    HW112519   2.594   0.232   5.627 -1.7176 -0.0799 -0.7840
 3895SOL    HW212520   2.576   0.091   5.574  0.5021 -0.5865 -0.2763
 3896SOL     OW12521   3.090   5.163   4.515  0.0566  0.1207 -0.2270
 3896SOL    HW112522   2.995   5.165   4.506 -0.0630 -1.9961 -0.0339
 3896SOL    HW212523   3.106   5.158   4.609  0.3078 -0.3400 -0.2890
 3897SOL     OW12524   2.291   4.902   3.784  0.4860 -0.3311  0.0412
 3897SOL    HW112525   2.244   4.963   3.840 -0.3223  1.1803 -2.1749
 3897SOL    HW212526   2.381   4.935   3.781  0.9456 -1.3327  1.6386
 3898SOL     OW12527   3.803   7.651   2.380 -0.2710 -0.6475 -0.0132
 3898SOL    HW112528   3.740   7.579   2.376 -0.4786 -0.5518  1.1612
 3898SOL    HW212529   3.753   7.726   2.412 -0.2083  0.2257 -1.8144
 3899SOL     OW12530   5.550   7.798   7.073 -0.3541 -0.2150  0.3574
 3899SOL    HW112531   5.469   7.796   7.125 -0.2412  1.8997  0.7126
 3899SOL    HW212532   5.520   7.814   6.984 -0.3334  1.6399  0.6451
 3900SOL     OW12533   6.384   0.523   3.851 -0.1910 -0.0716 -0.0586
 3900SOL    HW112534   6.312   0.579   3.823  0.6618 -0.8457 -4.5900
 3900SOL    HW212535   6.446   0.582   3.894 -1.2772  1.6152 -0.7272
 3901SOL     OW12536   7.583   7.259   1.272  0.1274  0.1542 -0.2188
 3901SOL    HW112537   7.653   7.309   1.230  0.1871  1.1111  0.9830
 3901SOL    HW212538   7.603   7.168   1.252  1.9702  0.3803  0.4712
 3902SOL     OW12539   6.942   1.059   0.147 -0.2529  0.0865 -0.0621
 3902SOL    HW112540   6.897   1.129   0.099 -1.1083 -0.2108  0.2769
 3902SOL    HW212541   6.908   0.978   0.108  1.0586 -0.1590 -0.7541
 3903SOL     OW12542   4.136   1.217   2.447 -0.2327 -0.2841  0.3945
 3903SOL    HW112543   4.119   1.213   2.541  1.1165  1.3822  0.7499
 3903SOL    HW212544   4.231   1.230   2.440 -0.6095  2.2827 -1.0936
 3904SOL     OW12545   1.332   3.373   6.420  0.0735  0.3987  0.6939
 3904SOL    HW112546   1.262   3.385   6.356  0.1793 -0.8255  0.3334
 3904SOL    HW212547   1.288   3.341   6.499 -0.1023  2.2111  1.3984
 3905SOL     OW12548   6.994   5.832   1.764  0.6361  0.5123 -0.1941
 3905SOL    HW112549   7.067   5.771   1.751 -1.1172 -2.2328  1.6010
 3905SOL    HW212550   6.967   5.816   1.855 -3.0193  0.3471 -1.1722
 3906SOL     OW12551   6.124   1.528   2.566 -0.2081 -0.3877  0.2579
 3906SOL    HW112552   6.052   1.467   2.550 -0.1689 -0.0929 -1.1547
 3906SOL    HW212553   6.198   1.472   2.587 -0.5191 -0.7554  0.3928
 3907SOL     OW12554   6.065   3.195   2.868 -0.0354  0.0917  0.2175
 3907SOL    HW112555   6.150   3.200   2.912 -0.4352  1.2066  0.8995
 3907SOL    HW212556   6.082   3.230   2.780  0.1783  0.4412  0.3962
 3908SOL     OW12557   3.061   6.634   3.071  0.3233 -0.1317  0.3188
 3908SOL    HW112558   3.009   6.565   3.031  0.0978  0.6689 -0.8187
 3908SOL    HW212559   3.001   6.708   3.081  0.3295 -0.3416  2.3146
 3909SOL     OW12560   0.103   2.147   4.827 -0.2870  0.3763 -0.2405
 3909SOL    HW112561   0.169   2.165   4.895  0.2213 -1.4037 -0.2200
 3909SOL    HW212562   0.026   2.196   4.856 -0.1071 -0.3644  1.6890
 3910SOL     OW12563   3.737   6.164   3.435  0.2096 -0.1570 -0.0328
 3910SOL    HW112564   3.720   6.252   3.468  2.1645  0.7635 -1.3026
 3910SOL    HW212565   3.832   6.159   3.427  0.1886 -2.5677  0.3927
 3911SOL     OW12566   3.825   0.386   7.929 -0.5057  0.0594 -0.2105
 3911SOL    HW112567   3.822   0.346   8.016 -1.0700 -0.5186 -0.4924
 3911SOL    HW212568   3.906   0.354   7.891  0.7883  1.8926  0.8356
 3912SOL     OW12569   0.911   2.555   1.897  0.8220 -0.0024  0.0840
 3912SOL    HW112570   0.904   2.650   1.894 -0.3316 -0.0815 -0.0805
 3912SOL    HW212571   0.952   2.531   1.814  2.8021  0.4583  0.8719
 3913SOL     OW12572   0.012   4.358   2.648  0.3467 -0.2958  0.1094
 3913SOL    HW112573  -0.066   4.395   2.608 -1.1066 -0.4275  2.6418
 3913SOL    HW212574   0.049   4.430   2.699  1.5267 -0.4370 -0.5071
 3914SOL     OW12575   3.780   0.882   5.114 -0.8925  0.3910  0.7772
 3914SOL    HW112576   3.686   0.867   5.127 -0.7314 -0.5959  0.8725
 3914SOL    HW212577   3.793   0.975   5.136 -1.4497 -0.0196  3.0962
 3915SOL     OW12578   3.660   4.842   4.123 -0.3572  0.0084 -0.0171
 3915SOL    HW112579   3.574   4.879   4.137 -0.5717 -0.5210  0.0998
 3915SOL    HW212580   3.669   4.774   4.190  0.0520 -0.1037 -0.1757
 3916SOL     OW12581   0.102   0.197   6.057  0.2313  0.0643  0.0151
 3916SOL    HW112582   0.188   0.167   6.087  0.1452  0.5298  0.7421
 3916SOL    HW212583   0.091   0.283   6.096 -0.6083 -0.0281  0.0085
 3917SOL     OW12584   4.171   4.334   2.123 -0.2398 -0.3521  0.4207
 3917SOL    HW112585   4.188   4.334   2.028 -0.1044 -0.5788  0.4445
 3917SOL    HW212586   4.214   4.414   2.154  1.1410 -1.1033  0.5318
 3918SOL     OW12587   6.277   2.515   6.774 -0.1285  0.7294 -0.1815
 3918SOL    HW112588   6.206   2.468   6.730 -1.4114  2.8845 -0.5838
 3918SOL    HW212589   6.341   2.531   6.706  0.0454  0.1070 -0.1729
 3919SOL     OW12590   3.389   5.151   0.849  0.3563 -0.2106  0.2304
 3919SOL    HW112591   3.323   5.193   0.794 -0.9357 -1.1227  1.0348
 3919SOL    HW212592   3.384   5.199   0.932  0.1819 -0.7397  0.5323
 3920SOL     OW12593   2.634   1.849   5.904  0.4921  0.0828 -0.6189
 3920SOL    HW112594   2.693   1.892   5.841 -1.2588  0.9689 -1.7401
 3920SOL    HW212595   2.554   1.832   5.853 -0.5403 -0.2886  1.0624
 3921SOL     OW12596   1.663   5.955   7.262 -0.4075  0.1922 -0.1892
 3921SOL    HW112597   1.657   6.048   7.242  0.7980  0.2235 -0.4923
 3921SOL    HW212598   1.631   5.911   7.184 -1.3954  0.3448  0.1180
 3922SOL     OW12599   1.912   5.348   3.265  0.0667 -0.3853  0.1814
 3922SOL    HW112600   1.842   5.305   3.215  0.5657 -1.6229  0.5178
 3922SOL    HW212601   1.993   5.315   3.227  0.4600 -0.4741  1.0762
 3923SOL     OW12602   5.048   3.654   7.812  0.1940  0.6995  0.1906
 3923SOL    HW112603   5.052   3.586   7.744  2.3149 -0.4176  1.3360
 3923SOL    HW212604   4.977   3.626   7.870 -1.6242  1.6548 -1.4671
 3924SOL     OW12605   4.141   2.570   0.718 -0.2224 -0.4197 -0.2109
 3924SOL    HW112606   4.235   2.586   0.711  0.3414 -2.9116  0.7984
 3924SOL    HW212607   4.124   2.502   0.652 -1.2508 -0.2299 -0.1478
 3925SOL     OW12608   5.337   6.026   3.711  0.1648  0.2798  0.1482
 3925SOL    HW112609   5.393   5.956   3.677 -0.9212 -1.0372  0.9580
 3925SOL    HW212610   5.257   5.981   3.739  0.2545  1.5171  2.6595
 3926SOL     OW12611   0.537   0.036   4.560  0.3279 -0.3227 -0.6220
 3926SOL    HW112612   0.489   0.110   4.598  1.5984 -0.2862  1.0474
 3926SOL    HW212613   0.620   0.074   4.531  0.2902 -0.7908 -1.3606
 3927SOL     OW12614   1.422   3.694   4.409  0.2585  0.0328 -0.4238
 3927SOL    HW112615   1.417   3.771   4.353 -0.9981 -0.6983 -1.3705
 3927SOL    HW212616   1.506   3.654   4.387  0.7855  0.9525 -0.1350
 3928SOL     OW12617   1.411   4.969   4.173 -0.0507  0.0724 -0.1432
 3928SOL    HW112618   1.494   4.923   4.162  1.1796  1.7162  1.5080
 3928SOL    HW212619   1.352   4.903   4.209  1.7379 -0.2766  2.4487
 3929SOL     OW12620   2.639   7.197   2.657  0.1294  0.2029  0.0651
 3929SOL    HW112621   2.604   7.108   2.650 -0.3780  0.3452  0.6375
 3929SOL    HW212622   2.715   7.198   2.599  1.6141 -1.3437  1.8339
 3930SOL     OW12623   6.434   1.747   3.245  0.3672 -0.6130  0.5663
 3930SOL    HW112624   6.501   1.681   3.226  0.0934 -1.0455  1.0649
 3930SOL    HW212625   6.448   1.816   3.180  0.6009 -1.2077 -0.0196
 3931SOL     OW12626   3.951   2.106   4.909  0.2359 -0.7715 -0.2467
 3931SOL    HW112627   4.019   2.072   4.850 -0.9918 -1.6521 -1.1995
 3931SOL    HW212628   3.937   2.036   4.972 -0.6674 -1.1358 -0.8269
 3932SOL     OW12629   4.251   5.502   2.796 -0.0899 -0.8308 -0.2791
 3932SOL    HW112630   4.318   5.434   2.789 -0.0197 -1.2413  2.6933
 3932SOL    HW212631   4.300   5.582   2.814 -0.2921 -0.5589 -0.9210
 3933SOL     OW12632   1.716   1.048   2.822  0.5189  0.4439 -0.1480
 3933SOL    HW112633   1.746   1.092   2.743  0.7803  1.7861  0.6692
 3933SOL    HW212634   1.783   1.068   2.887 -2.1377  3.9264  1.8992
 3934SOL     OW12635   3.411   3.052   4.340  0.1912 -0.0088  0.5819
 3934SOL    HW112636   3.500   3.030   4.368  0.2066 -2.1487 -0.8591
 3934SOL    HW212637   3.379   2.971   4.298 -0.9026  1.9301 -2.6909
 3935SOL     OW12638   0.358   2.363   7.025  0.4657  0.2591  0.5400
 3935SOL    HW112639   0.292   2.415   6.977 -0.1306 -0.0875  0.9688
 3935SOL    HW212640   0.314   2.339   7.106  0.4193 -1.6535 -0.0113
 3936SOL     OW12641   7.791   4.355   0.302 -0.0356  0.5627 -0.1143
 3936SOL    HW112642   7.773   4.443   0.268 -2.3515 -0.1165 -0.7849
 3936SOL    HW212643   7.767   4.359   0.395  2.0690  1.2057  0.4601
 3937SOL     OW12644   7.707   1.670   5.370 -0.3468  1.0605 -0.1443
 3937SOL    HW112645   7.635   1.657   5.431  1.8657 -3.4502  2.0264
 3937SOL    HW212646   7.766   1.731   5.414 -0.2686  0.3277  0.7931
 3938SOL     OW12647   0.100   0.486   0.393  0.1181 -0.1305 -0.3072
 3938SOL    HW112648   0.081   0.452   0.306  1.1578 -0.6974 -0.3329
 3938SOL    HW212649   0.189   0.455   0.411  0.3566  0.9533  0.4726
 3939SOL     OW12650   1.731   6.102   5.725  0.8915 -0.0536  0.0850
 3939SOL    HW112651   1.710   6.180   5.777 -1.1557 -0.7991  0.4583
 3939SOL    HW212652   1.658   6.042   5.740  2.4213 -2.1041 -0.1517
 3940SOL     OW12653   0.731   5.519   7.205 -0.3119  0.1473  0.1539
 3940SOL    HW112654   0.751   5.604   7.166 -0.7638  0.5572  0.7917
 3940SOL    HW212655   0.655   5.535   7.260  0.6709 -0.2737  1.6899
 3941SOL     OW12656   7.548   1.292   0.651 -0.1961 -0.0304  0.4141
 3941SOL    HW112657   7.513   1.377   0.622 -2.2318 -1.6256 -2.2508
 3941SOL    HW212658   7.618   1.272   0.590  2.7500  1.1548  3.1453
 3942SOL     OW12659   0.105   7.810   0.100  0.1977  0.3579  0.4450
 3942SOL    HW112660   0.190   7.767   0.093 -0.6285 -1.3399  0.2878
 3942SOL    HW212661   0.122   7.890   0.150  2.0392  0.5586 -0.4332
 3943SOL     OW12662   7.737   0.686   4.738  0.2425  0.7007 -0.0181
 3943SOL    HW112663   7.679   0.633   4.683  1.1094  0.1867 -0.4488
 3943SOL    HW212664   7.741   0.639   4.821  0.8414  0.2013 -0.3287
 3944SOL     OW12665   2.420   6.542   4.152  0.2561  0.1313  0.2135
 3944SOL    HW112666   2.349   6.504   4.101  1.5857 -1.4200 -0.5849
 3944SOL    HW212667   2.482   6.574   4.087  0.3008  1.5064  0.8900
 3945SOL     OW12668   1.830   2.000   6.311 -0.2414 -0.3993  0.1074
 3945SOL    HW112669   1.892   2.051   6.364  1.4074 -0.6730 -1.4577
 3945SOL    HW212670   1.793   2.063   6.250 -0.0438 -0.6121 -0.2321
 3946SOL     OW12671   4.159   1.874   0.602  0.6469  0.1004 -0.6023
 3946SOL    HW112672   4.183   1.831   0.520 -2.3499 -1.0817 -1.0086
 3946SOL    HW212673   4.101   1.945   0.575  2.3143  1.8970  0.3434
 3947SOL     OW12674   7.024   4.253   6.758 -0.5778  0.2827 -0.3217
 3947SOL    HW112675   7.046   4.302   6.679  0.5715 -1.0330 -0.8630
 3947SOL    HW212676   7.034   4.317   6.829 -2.2171  1.6424 -1.2541
 3948SOL     OW12677   3.124   6.412   0.983 -0.0135  0.4300  0.1780
 3948SOL    HW112678   3.220   6.417   0.979  0.0910 -0.1920  1.2943
 3948SOL    HW212679   3.106   6.322   1.010 -1.0048  0.0503 -1.5956
 3949SOL     OW12680   6.149   3.973   3.798 -0.4143 -0.2144 -0.1831
 3949SOL    HW112681   6.170   3.925   3.878 -0.3870  0.1930  0.0568
 3949SOL    HW212682   6.232   4.011   3.771 -0.7186  0.9973  0.4987
 3950SOL     OW12683   4.936   4.814   3.285 -0.2081 -0.1162  0.1072
 3950SOL    HW112684   4.851   4.787   3.251 -1.0981  1.1990  1.2094
 3950SOL    HW212685   4.930   4.910   3.293  1.8253  0.1800 -0.9796
 3951SOL     OW12686   7.477   3.258   0.753 -0.3287 -0.3175  0.2769
 3951SOL    HW112687   7.520   3.178   0.783 -1.1053 -1.3980 -1.3283
 3951SOL    HW212688   7.519   3.278   0.670 -2.5722 -1.2258 -1.1854
 3952SOL     OW12689   4.202   2.774   5.394  0.0003  0.0384 -0.7436
 3952SOL    HW112690   4.107   2.771   5.388  0.0276 -1.4578 -0.7476
 3952SOL    HW212691   4.223   2.867   5.395 -1.4933  0.3904 -0.1586
 3953SOL     OW12692   4.216   1.318   2.081 -0.5045  0.5872  0.0204
 3953SOL    HW112693   4.183   1.408   2.079  1.9668  1.5911  0.1395
 3953SOL    HW212694   4.231   1.296   1.989 -0.8709  0.4085  0.0058
 3954SOL     OW12695   0.341   2.209   3.738 -0.5264  0.7189 -0.4034
 3954SOL    HW112696   0.301   2.170   3.816  0.3563 -0.6581 -0.5944
 3954SOL    HW212697   0.364   2.133   3.683 -0.8034  1.6360 -1.8462
 3955SOL     OW12698   2.136   4.398   4.360 -0.0170  0.0494 -0.3060
 3955SOL    HW112699   2.220   4.354   4.375 -0.7749 -0.8968  1.4234
 3955SOL    HW212700   2.140   4.477   4.414  0.1003  0.4878 -0.9420
 3956SOL     OW12701   4.416   2.164   4.233 -0.0158 -0.5716  0.3131
 3956SOL    HW112702   4.504   2.186   4.202 -0.4579 -0.0914 -0.6622
 3956SOL    HW212703   4.418   2.183   4.327  1.2476 -1.6574  0.5398
 3957SOL     OW12704   1.827   2.148   7.493  0.2997 -0.0281  0.2981
 3957SOL    HW112705   1.836   2.186   7.580 -1.5117  0.3089  0.3719
 3957SOL    HW212706   1.744   2.182   7.460  0.7433 -0.4861 -1.3978
 3958SOL     OW12707   3.659   7.536   5.203  0.5404  0.1125  0.5433
 3958SOL    HW112708   3.707   7.599   5.149  2.3949 -1.2722  0.4990
 3958SOL    HW212709   3.631   7.468   5.142  0.2312 -0.0958  0.9120
 3959SOL     OW12710   7.394   1.201   3.790 -0.7576 -0.6152 -0.3709
 3959SOL    HW112711   7.317   1.222   3.843 -0.1420 -1.0891  0.7557
 3959SOL    HW212712   7.463   1.259   3.823 -0.2784 -1.1318 -0.4437
 3960SOL     OW12713   6.219   3.663   6.398 -0.2657 -0.2606  0.0372
 3960SOL    HW112714   6.184   3.724   6.334 -0.9338  0.0595  0.6834
 3960SOL    HW212715   6.254   3.719   6.468  1.8018 -0.5686 -0.6977
 3961SOL     OW12716   7.238   4.110   2.419 -0.0282 -0.0211 -0.1130
 3961SOL    HW112717   7.235   4.020   2.449  0.1895  0.0713  0.1837
 3961SOL    HW212718   7.323   4.143   2.448 -1.1705  1.1141  2.1949
 3962SOL     OW12719   5.333   2.992   3.678  0.1388  0.3901  0.5093
 3962SOL    HW112720   5.317   3.078   3.716 -0.0204 -0.7377  3.2463
 3962SOL    HW212721   5.257   2.974   3.623 -0.9738  1.0799  1.7653
 3963SOL     OW12722   4.292   0.440   3.579  0.2104 -0.4645  0.0382
 3963SOL    HW112723   4.252   0.487   3.653 -0.3058  0.6237 -0.8929
 3963SOL    HW212724   4.219   0.426   3.518  0.9251  0.1210 -0.9815
 3964SOL     OW12725   0.080   0.737   2.448  0.3829  0.7007  0.3916
 3964SOL    HW112726   0.128   0.804   2.400 -3.2803  2.6166 -1.0537
 3964SOL    HW212727   0.034   0.785   2.517 -1.7802 -0.3259 -0.2253
 3965SOL     OW12728   3.937   4.207   3.374 -0.8390 -0.1803 -0.1898
 3965SOL    HW112729   3.904   4.281   3.424  1.2064  1.5289 -1.2124
 3965SOL    HW212730   3.958   4.243   3.288  1.2468 -1.6745 -0.3917
 3966SOL     OW12731   1.886   1.156   2.980 -0.3391 -0.2502  0.4093
 3966SOL    HW112732   1.937   1.233   2.956  1.2618 -1.4336 -0.1586
 3966SOL    HW212733   1.908   1.141   3.072  1.7232 -1.7134 -0.2649
 3967SOL     OW12734   1.230   6.924   5.350  0.5360  0.4779  0.1228
 3967SOL    HW112735   1.319   6.934   5.383  0.5560  0.2557  0.1330
 3967SOL    HW212736   1.175   6.925   5.428  0.5950 -0.1954  0.1770
 3968SOL     OW12737   0.471   1.220   1.733 -0.3735  0.1178 -0.0017
 3968SOL    HW112738   0.502   1.187   1.817  0.4387 -0.5013 -0.5295
 3968SOL    HW212739   0.383   1.184   1.724 -1.1063  1.4818  1.2853
 3969SOL     OW12740   5.155   6.710   4.645  0.5629 -0.0452 -0.1250
 3969SOL    HW112741   5.229   6.771   4.649  0.9296 -0.4138 -0.9566
 3969SOL    HW212742   5.191   6.628   4.678  0.6770 -0.3609 -1.0169
 3970SOL     OW12743   3.359   6.994   4.209 -0.1058 -0.5239 -1.1261
 3970SOL    HW112744   3.448   7.028   4.220 -0.0514 -1.0468  0.2785
 3970SOL    HW212745   3.359   6.952   4.123  1.8011 -2.7747 -0.1233
 3971SOL     OW12746   1.399   1.584   0.212 -0.2582  0.2152 -0.2171
 3971SOL    HW112747   1.384   1.491   0.193 -0.9429  0.1285  0.6811
 3971SOL    HW212748   1.477   1.584   0.267 -0.8199  0.0830  0.5855
 3972SOL     OW12749   1.493   1.879   1.529 -0.2536  0.3818 -0.4841
 3972SOL    HW112750   1.458   1.901   1.443 -1.3379  1.8919  0.2938
 3972SOL    HW212751   1.427   1.911   1.590  1.0166  0.3573  0.9572
 3973SOL     OW12752   6.223   6.889   4.326  0.1460  0.3303  0.1887
 3973SOL    HW112753   6.133   6.899   4.294  0.6783 -0.3248 -1.6847
 3973SOL    HW212754   6.278   6.912   4.250  1.5730  1.0111  1.3760
 3974SOL     OW12755   1.806   0.432   5.054 -0.2603  0.6630 -0.0941
 3974SOL    HW112756   1.885   0.477   5.084  0.3990 -0.7983  0.4509
 3974SOL    HW212757   1.761   0.406   5.135 -1.0551  1.0484 -0.3997
 3975SOL     OW12758   4.993   2.412   6.212  0.1817  0.4678  0.1425
 3975SOL    HW112759   4.986   2.317   6.224  1.2029  0.6155  2.4572
 3975SOL    HW212760   4.908   2.446   6.241 -0.2676  0.2704 -0.9058
 3976SOL     OW12761   4.752   7.009   1.063 -0.2313 -0.7292 -0.1271
 3976SOL    HW112762   4.798   7.039   0.984  0.3951 -0.8873  0.1743
 3976SOL    HW212763   4.790   6.923   1.082 -0.8743 -1.0081 -0.0500
 3977SOL     OW12764   3.012   2.747   0.549  0.1676 -0.1463  0.1085
 3977SOL    HW112765   2.941   2.808   0.528  1.1818  1.1557  0.3130
 3977SOL    HW212766   3.061   2.738   0.467 -1.2907 -2.5900 -0.5866
 3978SOL     OW12767   6.310   1.534   3.017  0.1751  0.1567  0.0719
 3978SOL    HW112768   6.347   1.622   3.012  0.2647  0.1931  1.1093
 3978SOL    HW212769   6.216   1.546   3.012  0.1636  0.3647  0.7106
 3979SOL     OW12770   7.161   2.956   2.623 -0.0873 -0.2589 -0.1111
 3979SOL    HW112771   7.212   2.880   2.594  1.1854  1.4728 -2.9196
 3979SOL    HW212772   7.109   2.924   2.697  0.6370 -3.7278 -0.9156
 3980SOL     OW12773   7.705   7.077   6.497  0.0716  0.0471  0.3368
 3980SOL    HW112774   7.787   7.064   6.450 -0.2247 -0.4935 -0.0439
 3980SOL    HW212775   7.714   7.163   6.539 -0.0889  1.0504 -1.5873
 3981SOL     OW12776   5.314   7.224   2.558 -0.0532  0.2838 -0.2857
 3981SOL    HW112777   5.389   7.252   2.505 -0.6106  1.3673 -0.5123
 3981SOL    HW212778   5.337   7.250   2.647  0.1041  0.0495 -0.2547
 3982SOL     OW12779   7.112   3.787   6.397 -0.9167  0.4434  0.0263
 3982SOL    HW112780   7.083   3.872   6.364  1.0630  1.1870  0.0745
 3982SOL    HW212781   7.073   3.780   6.484 -0.4804  1.6678  0.3317
 3983SOL     OW12782   2.669   3.303   4.077 -0.3482  0.0150  0.1242
 3983SOL    HW112783   2.705   3.265   4.157 -0.8590  1.1383  0.9076
 3983SOL    HW212784   2.719   3.384   4.064  0.2516 -0.5251 -1.1305
 3984SOL     OW12785   6.237   0.754   5.065  0.1414 -0.4492 -0.1070
 3984SOL    HW112786   6.220   0.834   5.114  2.5795 -0.1072  0.3021
 3984SOL    HW212787   6.183   0.762   4.987 -0.2226  1.2603  0.2850
 3985SOL     OW12788   4.647   0.110   2.861  0.7518  0.5963  0.6704
 3985SOL    HW112789   4.718   0.171   2.841  0.8053  0.2660 -0.2000
 3985SOL    HW212790   4.574   0.139   2.806  1.3718 -1.2398 -1.2979
 3986SOL     OW12791   3.514   1.030   4.461 -0.4878  0.0069 -0.9297
 3986SOL    HW112792   3.524   0.955   4.520  0.1813  0.0321 -1.0087
 3986SOL    HW212793   3.419   1.035   4.446 -0.9943  1.4935  2.0489
 3987SOL     OW12794   4.451   4.125   3.788 -0.0632  0.0345 -0.7300
 3987SOL    HW112795   4.504   4.064   3.737  0.2558  0.3685 -0.8004
 3987SOL    HW212796   4.411   4.182   3.722 -0.5282 -0.2247 -0.6792
 3988SOL     OW12797   1.827   6.646   2.917 -0.2881 -0.0675  0.2774
 3988SOL    HW112798   1.821   6.555   2.947  0.3874 -0.2200 -0.0336
 3988SOL    HW212799   1.867   6.693   2.990 -1.2612  0.1275  0.7074
 3989SOL     OW12800   7.928   7.151   4.876  0.3137 -0.3159 -0.1770
 3989SOL    HW112801   7.900   7.241   4.894  1.0220  0.0791 -0.9564
 3989SOL    HW212802   7.990   7.131   4.946  1.0296  0.2397 -0.6317
 3990SOL     OW12803   6.762   1.643   7.286 -0.8940 -0.0653  1.0329
 3990SOL    HW112804   6.803   1.673   7.368 -0.8992  0.7601  0.7414
 3990SOL    HW212805   6.732   1.554   7.306 -0.7584  0.0673  1.8822
 3991SOL     OW12806   5.852   6.462   4.157  0.4219 -0.8906  0.0091
 3991SOL    HW112807   5.800   6.382   4.151 -0.1329 -0.4583 -1.6169
 3991SOL    HW212808   5.911   6.447   4.231 -1.5237 -1.6804  1.5032
 3992SOL     OW12809   7.928   6.974   5.283  0.4610  0.4522  0.2175
 3992SOL    HW112810   7.853   6.930   5.244  0.9106  0.3756 -0.5738
 3992SOL    HW212811   7.899   7.065   5.295  0.5290  0.6308 -0.8945
 3993SOL     OW12812   4.829   4.507   3.736 -0.2172 -0.4151  0.1773
 3993SOL    HW112813   4.800   4.594   3.765 -1.1421 -0.8993  0.7692
 3993SOL    HW212814   4.841   4.458   3.817  1.6881 -0.4396 -0.0926
 3994SOL     OW12815   2.151   3.709   6.056  0.5717  0.6517 -0.2100
 3994SOL    HW112816   2.217   3.641   6.043  1.0218  0.9685  0.3717
 3994SOL    HW212817   2.200   3.791   6.054  0.2655  0.8636  0.6641
 3995SOL     OW12818   0.264   7.078   6.159 -0.3003  0.1539  0.0727
 3995SOL    HW112819   0.248   7.110   6.247  0.2224  0.2785  0.1301
 3995SOL    HW212820   0.253   7.155   6.103 -2.7039 -0.3417 -0.2412
 3996SOL     OW12821   5.241   4.265   3.721  0.0876  0.0716 -0.4580
 3996SOL    HW112822   5.310   4.329   3.738  0.4032  0.2695 -2.3060
 3996SOL    HW212823   5.162   4.317   3.709 -0.3870 -0.1394  1.3829
 3997SOL     OW12824   7.495   1.888   0.536 -0.0796  0.1270 -0.4249
 3997SOL    HW112825   7.513   1.838   0.616  1.1822 -0.0459 -0.7952
 3997SOL    HW212826   7.581   1.907   0.500 -0.4912  3.0795 -0.0266
 3998SOL     OW12827   1.738   2.751   6.673  0.3098  0.3352  0.0835
 3998SOL    HW112828   1.650   2.721   6.694  0.5466  0.2404  1.0128
 3998SOL    HW212829   1.744   2.837   6.715  0.6458  0.3599 -0.0108
 3999SOL     OW12830   2.262   4.757   4.421 -0.3245 -0.0599  0.1567
 3999SOL    HW112831   2.239   4.842   4.459  0.0212  0.7804 -1.4166
 3999SOL    HW212832   2.218   4.756   4.336  2.3979  0.0541 -1.3724
 4000SOL     OW12833   2.767   5.628   2.620 -0.2142  0.2297  0.5672
 4000SOL    HW112834   2.747   5.632   2.526  0.6392  0.5648  0.3948
 4000SOL    HW212835   2.801   5.714   2.641  1.6201 -0.4893  0.7093
 4001SOL     OW12836   3.453   0.988   7.630 -0.1147 -0.6804  0.4894
 4001SOL    HW112837   3.423   1.043   7.558  0.9595 -0.4423  0.2110
 4001SOL    HW212838   3.442   0.898   7.597  1.2218 -0.5615 -0.3448
 4002SOL     OW12839   0.476   5.501   7.287  0.4484  0.8883 -0.4947
 4002SOL    HW112840   0.401   5.540   7.332  1.0490  2.9374 -1.1254
 4002SOL    HW212841   0.439   5.434   7.231 -0.6897  0.6302  0.5342
 4003SOL     OW12842   0.796   0.457   0.736  0.2228 -0.0309  0.0163
 4003SOL    HW112843   0.839   0.378   0.704  3.5331  1.2895  0.7355
 4003SOL    HW212844   0.732   0.426   0.799  0.1905 -2.1890 -0.9940
 4004SOL     OW12845   2.661   7.363   0.931 -0.0299 -0.3586 -0.6482
 4004SOL    HW112846   2.704   7.435   0.977 -1.3551  1.2860 -1.8752
 4004SOL    HW212847   2.568   7.382   0.939 -0.3736 -1.5509 -1.6386
 4005SOL     OW12848   6.492   5.423   0.595 -0.4082  0.3066  0.4626
 4005SOL    HW112849   6.404   5.459   0.583 -0.7710  0.2834  2.6287
 4005SOL    HW212850   6.539   5.491   0.643  0.7930  0.3094 -0.6567
 4006SOL     OW12851   5.809   2.125   5.029 -0.7285  0.1776  0.3848
 4006SOL    HW112852   5.795   2.218   5.048 -0.4941  0.7841 -1.9963
 4006SOL    HW212853   5.727   2.098   4.986 -0.1036 -0.1694 -0.6181
 4007SOL     OW12854   1.707   5.278   6.649 -0.4053 -0.0386  0.0067
 4007SOL    HW112855   1.656   5.307   6.573 -2.8300  0.0664  1.5307
 4007SOL    HW212856   1.791   5.323   6.641 -2.1153  3.4259 -0.4576
 4008SOL     OW12857   2.289   1.733   1.829 -0.1958  0.3387 -0.3817
 4008SOL    HW112858   2.242   1.760   1.908  0.0671  1.3442 -0.5578
 4008SOL    HW212859   2.319   1.814   1.789  2.6660 -0.2839  0.2804
 4009SOL     OW12860   0.432   0.921   7.321 -0.1477  0.1527  0.3806
 4009SOL    HW112861   0.466   0.998   7.366  0.0242  0.7318 -0.7065
 4009SOL    HW212862   0.338   0.935   7.315 -0.2718 -0.2837  1.2137
 4010SOL     OW12863   1.359   4.772   0.006  0.1577 -0.3111 -0.0724
 4010SOL    HW112864   1.399   4.847  -0.038 -0.0550 -0.0109  0.2345
 4010SOL    HW212865   1.427   4.737   0.063  0.5849 -0.9970 -0.9931
 4011SOL     OW12866   5.229   6.447   7.105  0.2535 -0.4582 -0.2527
 4011SOL    HW112867   5.196   6.484   7.187  0.8386  0.4363 -0.4018
 4011SOL    HW212868   5.213   6.353   7.112 -1.2972 -0.1919  0.1430
 4012SOL     OW12869   2.462   7.196   2.292  0.3234 -0.2244  0.2876
 4012SOL    HW112870   2.543   7.234   2.257  1.3645  0.2126  2.9189
 4012SOL    HW212871   2.417   7.269   2.334 -2.5805 -0.0144 -2.7939
 4013SOL     OW12872   1.750   7.003   0.906 -0.1077 -0.3290 -0.3493
 4013SOL    HW112873   1.790   7.010   0.993  0.0059  1.4924 -0.4985
 4013SOL    HW212874   1.824   6.996   0.846 -0.1547 -0.7231 -0.3618
 4014SOL     OW12875   6.252   7.609   6.412  0.4029 -0.6255 -0.3450
 4014SOL    HW112876   6.338   7.621   6.372  0.3045 -0.9869 -0.6717
 4014SOL    HW212877   6.229   7.694   6.448  0.0122  0.0029 -1.9909
 4015SOL     OW12878   1.947   1.188   3.259 -0.0724  0.3086 -0.1262
 4015SOL    HW112879   1.987   1.113   3.303 -0.1354  0.7002  0.5993
 4015SOL    HW212880   2.010   1.260   3.272 -0.6971  0.7604  0.4631
 4016SOL     OW12881   6.371   6.219   1.472 -0.0723 -0.6443  0.0515
 4016SOL    HW112882   6.379   6.193   1.380 -1.8212 -0.3540 -0.2110
 4016SOL    HW212883   6.385   6.314   1.471 -0.5557 -0.5696  0.0025
 4017SOL     OW12884   6.587   5.548   2.873 -0.1384 -0.3453  0.4541
 4017SOL    HW112885   6.656   5.612   2.853 -1.2082  0.7314  0.1261
 4017SOL    HW212886   6.594   5.483   2.803  0.2639 -0.0265  0.1935
 4018SOL     OW12887   0.652   4.613   3.954  0.1079  0.1148  0.3859
 4018SOL    HW112888   0.571   4.572   3.925  1.0833 -1.0943 -0.7432
 4018SOL    HW212889   0.633   4.644   4.043 -1.1182 -1.5410  0.7496
 4019SOL     OW12890   7.730   5.738   1.446  0.0974 -0.1272  0.4904
 4019SOL    HW112891   7.781   5.701   1.518  1.6505 -1.5136 -1.2098
 4019SOL    HW212892   7.790   5.738   1.371 -0.8659  2.9401 -0.4408
 4020SOL     OW12893   7.397   7.751   4.284  0.0422 -0.0260  0.5352
 4020SOL    HW112894   7.417   7.819   4.219  1.4343  0.1016  1.0683
 4020SOL    HW212895   7.405   7.669   4.236  1.6331  0.0375  0.6525
 4021SOL     OW12896   6.837   0.127   7.079  0.0285  0.0137  0.0859
 4021SOL    HW112897   6.773   0.099   7.014  0.0173 -0.9241  0.4863
 4021SOL    HW212898   6.921   0.094   7.047  0.1214  0.1267  0.2074
 4022SOL     OW12899   3.783   5.275   7.515 -0.4134 -0.7629 -0.3136
 4022SOL    HW112900   3.846   5.229   7.571 -0.4797 -2.0342 -1.2321
 4022SOL    HW212901   3.834   5.341   7.469 -0.5151  0.9682  1.8722
 4023SOL     OW12902   1.849   5.014   6.109  0.2356  0.2815  0.6251
 4023SOL    HW112903   1.942   4.992   6.103 -0.0095 -0.9841  1.1633
 4023SOL    HW212904   1.842   5.065   6.190  0.7815  2.3426 -0.5484
 4024SOL     OW12905   7.887   3.832   7.647  0.0988 -0.4950  0.1624
 4024SOL    HW112906   7.839   3.764   7.600 -1.2268  0.3412  0.2713
 4024SOL    HW212907   7.822   3.875   7.702  0.7882  1.2012 -0.2751
 4025SOL     OW12908   7.902   3.753   1.130 -0.5582 -0.1656 -0.2265
 4025SOL    HW112909   7.940   3.677   1.087  0.6778 -0.0793  0.6709
 4025SOL    HW212910   7.821   3.770   1.081 -1.8458 -3.1223  0.6501
 4026SOL     OW12911   3.778   1.724   2.297  0.0535  0.2479  0.0682
 4026SOL    HW112912   3.829   1.680   2.366  0.9142  0.7833 -0.2018
 4026SOL    HW212913   3.687   1.708   2.320  0.2424 -3.4662 -1.1402
 4027SOL     OW12914   1.803   3.892   1.955  0.7275  0.1282 -0.2980
 4027SOL    HW112915   1.875   3.839   1.987  1.1802  0.6982 -0.3527
 4027SOL    HW212916   1.838   3.982   1.953 -0.2659  0.5592  0.5937
 4028SOL     OW12917   6.565   7.042   5.812  0.4305 -0.1247  0.0415
 4028SOL    HW112918   6.555   7.106   5.741  0.6498  1.0100  1.0036
 4028SOL    HW212919   6.485   6.989   5.808  0.2695  0.1639 -0.8070
 4029SOL     OW12920   7.836   4.276   2.306  0.0512 -0.1846  0.1152
 4029SOL    HW112921   7.793   4.296   2.389 -2.1633  1.9286 -1.4095
 4029SOL    HW212922   7.925   4.311   2.316  0.1453 -0.7967  1.8435
 4030SOL     OW12923   0.667   0.923   4.464 -0.2003  0.0772 -0.5221
 4030SOL    HW112924   0.638   1.004   4.506 -1.2862 -0.0735 -0.9466
 4030SOL    HW212925   0.738   0.950   4.406  0.7673  0.4095  0.7602
 4031SOL     OW12926   3.418   0.973   5.664 -0.3495  0.4442 -0.0555
 4031SOL    HW112927   3.397   0.903   5.602  0.6650  1.2990 -1.4391
 4031SOL    HW212928   3.499   0.944   5.707 -0.7375  0.1105  0.4547
 4032SOL     OW12929   6.745   0.436   2.851 -0.2469  0.2125 -0.0215
 4032SOL    HW112930   6.741   0.505   2.785  0.1260  0.7992  0.5528
 4032SOL    HW212931   6.837   0.432   2.875 -0.1446 -0.9774 -0.5425
 4033SOL     OW12932   5.734   7.495   3.026  0.1740 -1.0693  0.1830
 4033SOL    HW112933   5.753   7.523   2.937  0.6202 -0.7472  0.3750
 4033SOL    HW212934   5.640   7.476   3.026 -0.0253 -0.1217 -0.0937
 4034SOL     OW12935   6.331   1.294   1.003  0.4054 -0.2291 -0.4550
 4034SOL    HW112936   6.375   1.217   0.969 -0.5629 -1.4242  0.9061
 4034SOL    HW212937   6.244   1.293   0.962 -0.2742 -0.9231  0.9445
 4035SOL     OW12938   1.753   2.647   5.739 -0.2782 -0.1472  0.4984
 4035SOL    HW112939   1.724   2.602   5.819 -0.4722  0.5889  0.8568
 4035SOL    HW212940   1.848   2.654   5.749  0.0088 -2.1165 -0.4428
 4036SOL     OW12941   5.925   1.117   4.551  0.0062 -0.0351  0.3526
 4036SOL    HW112942   5.844   1.124   4.500 -0.7250  2.8008  1.7360
 4036SOL    HW212943   5.980   1.188   4.518  1.9341 -1.7601 -0.3921
 4037SOL     OW12944   3.301   3.004   6.169 -0.1345 -0.0591  0.7939
 4037SOL    HW112945   3.376   3.016   6.227 -0.1481  1.8929  0.4690
 4037SOL    HW212946   3.227   2.988   6.227  0.2318 -0.3642  1.1863
 4038SOL     OW12947   2.945   6.138   2.377 -0.0408 -0.3402 -0.4012
 4038SOL    HW112948   2.972   6.192   2.451 -0.2076  2.0377 -1.9836
 4038SOL    HW212949   3.026   6.121   2.329 -0.3648  1.0641 -1.4952
 4039SOL     OW12950   0.600   2.421   2.074  0.0010  0.2316  0.0685
 4039SOL    HW112951   0.626   2.493   2.017 -0.1608 -0.9979 -1.6419
 4039SOL    HW212952   0.504   2.424   2.073  0.0038  0.7070  0.9553
 4040SOL     OW12953   6.007   3.939   1.106 -0.2674  0.3474 -0.3760
 4040SOL    HW112954   6.036   3.926   1.196 -0.5781 -0.4484 -0.3852
 4040SOL    HW212955   5.914   3.918   1.107 -0.0128 -0.9535 -1.1345
 4041SOL     OW12956   2.417   6.218   0.991  0.3625 -0.5861  0.5377
 4041SOL    HW112957   2.397   6.206   1.084 -0.8714 -2.0148  0.1404
 4041SOL    HW212958   2.335   6.199   0.946  1.0097 -0.2204 -0.8765
 4042SOL     OW12959   1.976   0.450   1.869 -0.5953  0.6330  0.1819
 4042SOL    HW112960   2.068   0.467   1.850  0.0713 -1.6360  1.0444
 4042SOL    HW212961   1.961   0.490   1.955 -0.3327  0.7595  0.1681
 4043SOL     OW12962   7.207   3.777   4.099 -0.0933  0.1255 -0.4519
 4043SOL    HW112963   7.211   3.860   4.052 -0.0959  0.0762 -0.5394
 4043SOL    HW212964   7.114   3.754   4.099  0.1288 -0.9979 -2.4009
 4044SOL     OW12965   5.793   2.142   5.890 -0.0823 -0.5671  0.2283
 4044SOL    HW112966   5.784   2.129   5.984 -0.2704 -3.5755 -0.1066
 4044SOL    HW212967   5.836   2.062   5.859 -1.5316 -0.4146 -2.4518
 4045SOL     OW12968   5.549   0.520   1.234  0.1002  0.3196 -0.4831
 4045SOL    HW112969   5.481   0.453   1.227 -0.3715  0.9120 -1.9429
 4045SOL    HW212970   5.574   0.538   1.143  1.7713  0.5738  0.0003
 4046SOL     OW12971   4.183   2.960   0.961  0.1641  0.0074  1.1109
 4046SOL    HW112972   4.225   2.937   0.877 -1.8160 -0.6438  0.2314
 4046SOL    HW212973   4.213   2.892   1.021 -0.7406 -1.3589  0.1071
 4047SOL     OW12974   6.976   4.745   0.260  0.7968  0.0568 -0.6485
 4047SOL    HW112975   6.961   4.839   0.256  0.6981  0.0687 -4.7981
 4047SOL    HW212976   6.895   4.706   0.225  0.7434 -1.6589  1.1734
 4048SOL     OW12977   4.834   1.753   2.718  0.0501 -0.5174 -0.6536
 4048SOL    HW112978   4.766   1.792   2.664 -0.4473 -0.9481 -0.3410
 4048SOL    HW212979   4.793   1.676   2.757  0.5345 -0.4536 -0.0002
 4049SOL     OW12980   2.481   1.587   3.961 -0.2663 -0.0398  0.3934
 4049SOL    HW112981   2.500   1.494   3.971 -2.6804 -0.4914  1.4121
 4049SOL    HW212982   2.516   1.627   4.041 -0.1343 -0.2325  0.4343
 4050SOL     OW12983   6.493   4.448   7.491  0.6035  0.0042 -0.0346
 4050SOL    HW112984   6.544   4.474   7.414 -0.6124  1.1410 -0.4850
 4050SOL    HW212985   6.437   4.377   7.460  1.3818 -0.7714  0.2856
 4051SOL     OW12986   4.049   0.039   6.211 -0.0243 -0.1916 -0.2386
 4051SOL    HW112987   4.130  -0.010   6.197  0.4518  0.6738 -0.5760
 4051SOL    HW212988   3.979  -0.027   6.202  0.6926 -1.3412  1.8859
 4052SOL     OW12989   6.157   0.259   4.815 -0.5113  0.3139  0.1352
 4052SOL    HW112990   6.183   0.180   4.769  0.6195  1.1165 -0.6871
 4052SOL    HW212991   6.194   0.249   4.903 -3.0097 -1.3951  1.0720
 4053SOL     OW12992   1.364   1.164   5.627  0.3148  0.2773 -0.6839
 4053SOL    HW112993   1.338   1.247   5.667  1.3728  0.1662  0.2755
 4053SOL    HW212994   1.282   1.127   5.594 -0.0288  2.3397 -2.4152
 4054SOL     OW12995   5.359   2.362   5.292 -0.2200  0.2841 -0.4041
 4054SOL    HW112996   5.278   2.310   5.298  0.0338 -0.0654  0.0327
 4054SOL    HW212997   5.392   2.365   5.381  0.8858 -0.5851 -0.7691
 4055SOL     OW12998   2.702   4.750   3.619 -0.0643  0.1992 -0.4819
 4055SOL    HW112999   2.637   4.695   3.663  0.8573 -0.3748  0.2297
 4055SOL    HW213000   2.666   4.767   3.533 -0.1898 -1.9720 -0.9256
 4056SOL     OW13001   1.374   1.451   1.222 -0.3267  0.1007  0.1707
 4056SOL    HW113002   1.342   1.470   1.134 -0.3069  1.4074  0.4157
 4056SOL    HW213003   1.309   1.392   1.259 -0.8710  0.3435 -0.3805
 4057SOL     OW13004   7.695   7.296   2.804 -0.5906  0.2585  0.1478
 4057SOL    HW113005   7.609   7.336   2.817 -0.7473 -0.9872  4.2889
 4057SOL    HW213006   7.677   7.203   2.793  0.1949  0.1043  0.1318
 4058SOL     OW13007   1.810   3.306   4.616  0.2260  0.3710  0.1793
 4058SOL    HW113008   1.818   3.247   4.691  1.4200  0.3194  0.0305
 4058SOL    HW213009   1.882   3.281   4.558  0.3354  1.5159 -0.2025
 4059SOL     OW13010   3.739   7.653   0.272  0.6629  0.0827  0.5438
 4059SOL    HW113011   3.670   7.719   0.260 -0.0819 -0.3941  2.0030
 4059SOL    HW213012   3.742   7.639   0.366  1.8719 -0.8715  0.3792
 4060SOL     OW13013   5.332   3.708   5.016  0.6678  0.5524 -0.1540
 4060SOL    HW113014   5.272   3.641   4.982  0.8054  0.7905 -0.8746
 4060SOL    HW213015   5.274   3.773   5.055  0.5159  0.1944  0.2259
 4061SOL     OW13016   3.530   7.294   2.714 -0.2206  0.3660  0.3497
 4061SOL    HW113017   3.460   7.245   2.670  0.0594  0.1795  0.1049
 4061SOL    HW213018   3.611   7.256   2.679  0.0351 -0.4297  1.7276
 4062SOL     OW13019   2.823   3.813   0.715 -0.0383  0.1460  0.4148
 4062SOL    HW113020   2.834   3.796   0.809 -1.2749  0.9098  0.7162
 4062SOL    HW213021   2.908   3.793   0.677 -0.0408 -2.0014  1.4179
 4063SOL     OW13022   1.794   6.132   3.610 -0.0031  0.2392  0.7012
 4063SOL    HW113023   1.758   6.096   3.529 -0.6367 -0.7338  1.3841
 4063SOL    HW213024   1.750   6.082   3.679  0.2219  1.3329  1.6537
 4064SOL     OW13025   7.179   7.405   2.161  0.3925 -0.2766  0.4556
 4064SOL    HW113026   7.270   7.403   2.129  0.1359  0.6340 -0.3962
 4064SOL    HW213027   7.142   7.322   2.132  0.9304 -0.6240  0.7455
 4065SOL     OW13028   6.394   4.109   3.851  0.2747 -0.1825 -0.0934
 4065SOL    HW113029   6.372   4.057   3.927 -1.6866  2.0337  0.9860
 4065SOL    HW213030   6.489   4.124   3.858  0.0833  0.2622  2.1456
 4066SOL     OW13031   1.309   4.906   4.479 -0.0027  0.7632 -0.0229
 4066SOL    HW113032   1.325   4.829   4.424  1.1958  1.0658 -0.1083
 4066SOL    HW213033   1.246   4.875   4.545 -1.8761  0.5295 -1.8157
 4067SOL     OW13034   7.512   0.405   6.457 -0.9266  0.0230 -0.1459
 4067SOL    HW113035   7.577   0.380   6.523 -1.3446  0.0793  0.2927
 4067SOL    HW213036   7.435   0.353   6.478 -0.5257 -1.2533 -1.6373
 4068SOL     OW13037   5.637   1.347   6.313  0.1833 -0.1094 -0.2979
 4068SOL    HW113038   5.693   1.270   6.321  0.2384  0.1192  2.1649
 4068SOL    HW213039   5.579   1.343   6.389 -3.4007 -0.4511 -2.8147
 4069SOL     OW13040   1.398   3.873   6.814  0.0733  0.7088 -0.3381
 4069SOL    HW113041   1.474   3.850   6.761  0.0769  0.5894 -0.2817
 4069SOL    HW213042   1.409   3.966   6.833  0.3812  0.6180 -0.0487
 4070SOL     OW13043   4.178   5.454   1.911 -0.5492 -0.9781 -0.1926
 4070SOL    HW113044   4.235   5.511   1.962  0.2940 -1.9122 -0.0606
 4070SOL    HW213045   4.090   5.488   1.926 -0.0867  0.1395  0.0540
 4071SOL     OW13046   6.068   7.443   4.558 -0.0905 -0.2424 -0.3538
 4071SOL    HW113047   5.987   7.449   4.507 -1.0525  1.4823  1.2489
 4071SOL    HW213048   6.136   7.470   4.497 -1.1066  1.0404 -0.9911
 4072SOL     OW13049   4.379   7.219   2.769 -0.6843  0.0631 -0.1297
 4072SOL    HW113050   4.441   7.156   2.731 -1.1156 -0.8143  0.5804
 4072SOL    HW213051   4.370   7.191   2.860 -1.5307  0.6517 -0.0271
 4073SOL     OW13052   2.789   7.312   0.672  0.1999 -0.4694 -0.0959
 4073SOL    HW113053   2.756   7.340   0.757 -0.4439  0.2033 -0.5607
 4073SOL    HW213054   2.719   7.333   0.610  1.4548  0.9960 -1.1012
 4074SOL     OW13055   2.301   2.099   5.033  0.0400  0.0779  0.3917
 4074SOL    HW113056   2.348   2.124   4.954 -0.1834 -0.2030  0.1669
 4074SOL    HW213057   2.243   2.172   5.051  0.7959  0.5819  0.8683
 4075SOL     OW13058   4.141   1.192   5.226  0.2159 -0.1290  0.0405
 4075SOL    HW113059   4.105   1.146   5.150 -0.2774 -0.1712  0.2907
 4075SOL    HW213060   4.235   1.182   5.219  0.1124 -3.3726  1.3880
 4076SOL     OW13061   6.215   5.810   5.285  0.3299 -0.3636  0.3556
 4076SOL    HW113062   6.174   5.855   5.358  2.1130  2.0263  0.0292
 4076SOL    HW213063   6.266   5.878   5.241  2.9138 -2.6301 -0.4595
 4077SOL     OW13064   6.242   0.689   2.163  0.6075  0.0923  0.1350
 4077SOL    HW113065   6.313   0.721   2.107 -0.2759 -0.1963 -1.1784
 4077SOL    HW213066   6.214   0.767   2.212  1.1769  0.4195 -0.0497
 4078SOL     OW13067   4.531   1.074   0.064  0.4067  0.1209  0.3986
 4078SOL    HW113068   4.572   1.106  -0.016  0.2617 -0.7323 -0.0234
 4078SOL    HW213069   4.596   1.092   0.132  0.7675  0.3320  0.0034
 4079SOL     OW13070   2.452   0.911   7.310  0.0170 -0.2775 -0.3189
 4079SOL    HW113071   2.375   0.898   7.254 -0.4889  0.6342  0.1545
 4079SOL    HW213072   2.525   0.920   7.248 -0.4675  0.2758 -0.8197
 4080SOL     OW13073   3.863   5.121   1.316 -0.0248 -0.8122  0.9853
 4080SOL    HW113074   3.833   5.211   1.299 -1.0890 -1.4687 -0.7843
 4080SOL    HW213075   3.785   5.075   1.346 -0.1151 -1.7692 -0.6249
 4081SOL     OW13076   5.499   6.779   3.923 -0.4610 -0.6810 -0.0241
 4081SOL    HW113077   5.584   6.776   3.965 -0.1975 -0.9180 -0.5694
 4081SOL    HW213078   5.494   6.700   3.870 -0.7663 -0.3712 -0.4749
 4082SOL     OW13079   7.406   3.267   3.277 -0.1015 -0.0157 -0.1866
 4082SOL    HW113080   7.437   3.356   3.296  2.6085 -0.7168 -0.8499
 4082SOL    HW213081   7.432   3.216   3.353 -1.5181 -0.2940  0.1264
 4083SOL     OW13082   7.441   3.577   4.175  0.8919  1.0956  0.4113
 4083SOL    HW113083   7.346   3.573   4.162  0.8447  1.9806  0.4750
 4083SOL    HW213084   7.474   3.621   4.097  1.3194  0.2727  0.1170
 4084SOL     OW13085   1.324   2.241   1.478 -0.0399  0.0638 -0.1359
 4084SOL    HW113086   1.290   2.329   1.463 -0.2977  0.1872  1.0820
 4084SOL    HW213087   1.246   2.185   1.479 -0.0213  0.0370  0.4990
 4085SOL     OW13088   3.230   6.160   4.297 -0.6284  0.2166 -0.1030
 4085SOL    HW113089   3.300   6.132   4.238 -1.0406  0.2682 -0.6221
 4085SOL    HW213090   3.250   6.117   4.380 -0.6706 -0.7680 -0.5960
 4086SOL     OW13091   1.143   2.691   4.751 -0.0259  0.0846 -0.5384
 4086SOL    HW113092   1.130   2.597   4.761 -0.1457  0.1499 -0.0680
 4086SOL    HW213093   1.214   2.699   4.687  0.0030 -0.3244 -0.5574
 4087SOL     OW13094   5.748   3.067   6.237 -0.0311  0.3111 -0.2916
 4087SOL    HW113095   5.721   2.996   6.179 -0.5671 -0.5403  0.9575
 4087SOL    HW213096   5.840   3.084   6.214 -0.5541  0.8231 -2.1709
 4088SOL     OW13097   6.594   0.651   1.166  0.0648 -0.0651  0.3440
 4088SOL    HW113098   6.597   0.556   1.173  0.4698 -0.0094  1.0036
 4088SOL    HW213099   6.682   0.680   1.189 -0.7285  0.6199  2.8227
 4089SOL     OW13100   5.940   7.260   4.219 -0.2146 -0.2808  0.1245
 4089SOL    HW113101   5.905   7.329   4.276  0.1141  0.2988 -0.3633
 4089SOL    HW213102   5.950   7.185   4.277  0.2908  0.3477  0.8901
 4090SOL     OW13103   6.577   4.769   7.729 -0.4185  0.3736  0.0116
 4090SOL    HW113104   6.575   4.855   7.771 -0.1928 -0.0746  0.9784
 4090SOL    HW213105   6.657   4.770   7.677 -0.2901  0.6728  0.2087
 4091SOL     OW13106   2.787   7.324   5.783 -0.1178  0.4506  0.1424
 4091SOL    HW113107   2.698   7.314   5.816  0.8448 -1.3908  2.4854
 4091SOL    HW213108   2.809   7.239   5.746  0.6250  0.9557 -0.6200
 4092SOL     OW13109   2.452   2.875   2.595  0.2606  0.1858  0.2864
 4092SOL    HW113110   2.475   2.807   2.532  0.8802  0.0468  0.6470
 4092SOL    HW213111   2.364   2.851   2.625  1.0483 -1.3683  1.5394
 4093SOL     OW13112   0.719   4.725   4.738  0.5188  0.2955 -0.4618
 4093SOL    HW113113   0.683   4.668   4.670 -0.5370 -0.8006  0.9452
 4093SOL    HW213114   0.683   4.811   4.719 -0.7481 -0.2477 -0.6293
 4094SOL     OW13115   0.914   7.446   6.266 -0.3986  0.5577  0.2446
 4094SOL    HW113116   0.893   7.354   6.285  0.2016  0.2879 -0.3518
 4094SOL    HW213117   1.008   7.446   6.251 -0.2607  1.4137  0.9865
 4095SOL     OW13118   5.467   4.731   5.879  0.0101  0.2496  0.2260
 4095SOL    HW113119   5.408   4.772   5.816  0.9659  2.1928  0.5220
 4095SOL    HW213120   5.454   4.637   5.866 -3.4224  0.5529  0.5714
 4096SOL     OW13121   0.881   3.689   6.150  0.5074 -0.5010  0.5370
 4096SOL    HW113122   0.958   3.695   6.095 -0.7504 -1.3115 -1.4302
 4096SOL    HW213123   0.855   3.597   6.146 -1.4059  0.0156 -0.1183
 4097SOL     OW13124   3.584   7.740   6.472  0.4014  0.4887  0.0900
 4097SOL    HW113125   3.638   7.690   6.411 -0.1190 -0.1089  0.1078
 4097SOL    HW213126   3.560   7.677   6.540  0.2068  0.9102  0.4196
 4098SOL     OW13127   6.904   1.255   7.214 -0.1410 -0.3141 -0.4330
 4098SOL    HW113128   6.993   1.236   7.243  0.2143  0.6832 -0.8151
 4098SOL    HW213129   6.915   1.304   7.132 -0.9082  2.1513  0.8172
 4099SOL     OW13130   3.035   3.532   3.823  0.2763  0.6221  0.4811
 4099SOL    HW113131   3.075   3.510   3.739  0.9178 -0.2286  0.9857
 4099SOL    HW213132   2.942   3.516   3.811  0.5160 -0.7575  0.2950
 4100SOL     OW13133   2.051   0.080   4.933 -0.4358 -0.0065  1.1439
 4100SOL    HW113134   2.027   0.086   5.025 -0.6565  0.4580  1.0611
 4100SOL    HW213135   2.029   0.166   4.897 -1.5286 -0.5946  0.3807
 4101SOL     OW13136   5.949   2.902   4.955 -0.4460  0.2903  0.1034
 4101SOL    HW113137   5.894   2.942   5.023 -0.5008  1.1468 -0.4266
 4101SOL    HW213138   5.911   2.934   4.873  0.0657 -0.1478 -0.3077
 4102SOL     OW13139   0.898   5.505   0.883 -0.2630  0.1060  0.2082
 4102SOL    HW113140   0.963   5.449   0.840 -0.1550 -0.6614  1.3379
 4102SOL    HW213141   0.903   5.587   0.835 -0.9431 -1.0427 -1.9816
 4103SOL     OW13142   6.329   4.651   0.438 -0.5826 -0.0246  0.3196
 4103SOL    HW113143   6.358   4.732   0.479  1.9550 -0.4368 -0.4504
 4103SOL    HW213144   6.360   4.582   0.497 -0.2689 -0.4913 -0.3791
 4104SOL     OW13145   2.868   6.888   2.226 -0.0955 -0.4841 -0.5941
 4104SOL    HW113146   2.911   6.819   2.175  0.3443 -0.5343 -0.1627
 4104SOL    HW213147   2.886   6.865   2.317 -0.2858 -0.0152 -0.4384
 4105SOL     OW13148   5.562   6.509   3.386 -0.2359 -0.2080 -0.2044
 4105SOL    HW113149   5.506   6.530   3.310  0.9254  1.3871 -0.6747
 4105SOL    HW213150   5.603   6.426   3.363  0.6521  0.5944 -1.6970
 4106SOL     OW13151   0.422   4.453   3.922  0.6039 -0.4541 -0.2425
 4106SOL    HW113152   0.349   4.439   3.861  0.0414  1.9902 -0.2324
 4106SOL    HW213153   0.387   4.427   4.008 -0.2656  0.6174 -0.2508
 4107SOL     OW13154   6.618   3.818   6.444  0.4671 -0.2607 -0.6063
 4107SOL    HW113155   6.698   3.795   6.396  0.1350 -0.3646 -1.1088
 4107SOL    HW213156   6.565   3.866   6.382 -1.0666 -2.5530 -1.1884
 4108SOL     OW13157   1.985   3.190   4.448  0.0963  0.5124 -0.0672
 4108SOL    HW113158   2.070   3.233   4.464 -0.3322  1.9954 -1.5265
 4108SOL    HW213159   2.002   3.130   4.376  0.0961  0.0722  0.2884
 4109SOL     OW13160   3.920   7.208   3.102  0.1469 -0.6036 -0.0712
 4109SOL    HW113161   3.869   7.266   3.046 -2.1634 -1.5154  0.9504
 4109SOL    HW213162   3.989   7.173   3.046 -0.7659  0.1667 -1.7243
 4110SOL     OW13163   6.960   6.748   1.677 -0.3175  0.2977 -0.2485
 4110SOL    HW113164   6.875   6.710   1.698 -1.4445  2.0890 -1.2246
 4110SOL    HW213165   6.985   6.795   1.756 -0.9371  0.9067 -0.4008
 4111SOL     OW13166   5.313   2.246   1.171  0.4451 -0.0748  0.3847
 4111SOL    HW113167   5.362   2.217   1.247  0.1627 -1.4442  0.0572
 4111SOL    HW213168   5.222   2.222   1.189 -0.2567  2.6840  1.1197
 4112SOL     OW13169   3.762   3.703   4.691 -0.5415  0.8593 -0.0745
 4112SOL    HW113170   3.731   3.755   4.617 -1.3730 -0.7180 -0.8938
 4112SOL    HW213171   3.820   3.762   4.739  1.1168  1.5816 -2.6936
 4113SOL     OW13172   4.341   0.124   3.961 -0.1330 -0.7442 -0.7233
 4113SOL    HW113173   4.392   0.100   4.039  0.4310  0.7352 -0.5933
 4113SOL    HW213174   4.254   0.146   3.995  0.2778  0.4705 -0.3919
 4114SOL     OW13175   3.605   1.646   0.385 -0.5183 -0.1305 -0.5791
 4114SOL    HW113176   3.527   1.616   0.430 -0.3358 -0.0496 -0.2070
 4114SOL    HW213177   3.607   1.741   0.401  0.2896 -0.2993  0.4108
 4115SOL     OW13178   0.525   1.975   7.764  0.0621 -0.1577  0.2320
 4115SOL    HW113179   0.452   1.970   7.827 -0.8050 -1.6883 -0.8069
 4115SOL    HW213180   0.590   1.914   7.799 -0.3891 -0.9536 -0.2899
 4116SOL     OW13181   1.112   1.084   1.240  0.1661 -0.1107 -0.6062
 4116SOL    HW113182   1.051   1.012   1.256 -1.1309  0.7914 -1.2814
 4116SOL    HW213183   1.059   1.163   1.251  0.9118  0.6784 -2.3329
 4117SOL     OW13184   1.519   3.377   0.681 -0.1961  0.3549 -0.0183
 4117SOL    HW113185   1.537   3.411   0.593 -2.4196  1.6580 -0.0404
 4117SOL    HW213186   1.458   3.440   0.719  0.7875 -0.1150  2.5426
 4118SOL     OW13187   0.409   1.074   3.001 -0.2591  0.5967 -0.3172
 4118SOL    HW113188   0.387   1.167   2.993  3.0418  1.6914  1.4802
 4118SOL    HW213189   0.346   1.040   3.064  0.4566  2.5170  1.5632
 4119SOL     OW13190   6.024   3.381   0.417  0.2835 -0.5296 -1.1624
 4119SOL    HW113191   6.085   3.454   0.411  0.0768 -0.0931  1.1696
 4119SOL    HW213192   6.079   3.305   0.435  0.2380 -0.2580  0.2228
 4120SOL     OW13193   3.180   4.235   5.035 -0.3586 -0.0644  0.3778
 4120SOL    HW113194   3.167   4.252   4.942  1.7099 -1.4656 -0.2622
 4120SOL    HW213195   3.096   4.202   5.066 -1.2431  0.9463 -0.8445
 4121SOL     OW13196   1.245   2.795   3.090  0.1539 -0.3378  0.2336
 4121SOL    HW113197   1.311   2.738   3.052 -0.3150  0.3195 -1.6645
 4121SOL    HW213198   1.191   2.823   3.016 -2.1538 -0.6844  1.6759
 4122SOL     OW13199   2.903   7.655   1.940  0.1894 -0.2639  0.3399
 4122SOL    HW113200   2.848   7.658   2.018  0.6982 -0.1929  0.6991
 4122SOL    HW213201   2.860   7.590   1.883  0.1833 -0.8165  0.9626
 4123SOL     OW13202   7.433   5.098   2.659 -0.4892 -0.1137 -0.4466
 4123SOL    HW113203   7.428   5.164   2.729 -1.7186 -0.8953  0.2463
 4123SOL    HW213204   7.499   5.036   2.690 -1.1870 -0.5780  0.1671
 4124SOL     OW13205   6.236   3.897   2.200 -0.2809  0.3671 -0.4163
 4124SOL    HW113206   6.304   3.961   2.181 -1.4531  1.3203 -1.6182
 4124SOL    HW213207   6.162   3.948   2.232 -0.9939 -0.4571 -0.6926
 4125SOL     OW13208   1.817   5.898   7.829  0.2516 -0.4520 -0.1050
 4125SOL    HW113209   1.881   5.965   7.806 -0.3866  0.9667  1.8886
 4125SOL    HW213210   1.843   5.869   7.917 -0.6020 -1.4061 -0.1481
 4126SOL     OW13211   5.681   6.572   4.882  0.0081 -0.6570 -0.1899
 4126SOL    HW113212   5.644   6.598   4.797  0.7190  0.0995 -0.2859
 4126SOL    HW213213   5.617   6.511   4.918 -1.0805  0.2029 -0.5831
 4127SOL     OW13214   6.124   6.841   2.463  0.6127  0.1216 -0.3737
 4127SOL    HW113215   6.144   6.910   2.400 -0.4039 -0.1040 -0.9779
 4127SOL    HW213216   6.191   6.849   2.530  0.4427  1.7817 -0.3557
 4128SOL     OW13217   6.569   3.220   3.106 -0.7501  0.1629  0.0881
 4128SOL    HW113218   6.630   3.146   3.105 -2.3455 -1.2977 -2.8037
 4128SOL    HW213219   6.620   3.295   3.078 -0.0102 -0.8141 -1.2969
 4129SOL     OW13220   5.105   5.774   1.571  0.0242  0.1846 -0.3780
 4129SOL    HW113221   5.182   5.724   1.596 -0.4743 -1.0194 -1.1853
 4129SOL    HW213222   5.125   5.864   1.598  1.5884 -0.1520 -0.3413
 4130SOL     OW13223   1.517   2.413   1.005  1.0768  0.0728  0.8870
 4130SOL    HW113224   1.566   2.388   1.084 -0.9405 -2.3904  1.4853
 4130SOL    HW213225   1.465   2.488   1.032  1.0043 -0.2517  1.6965
 4131SOL     OW13226   4.499   2.587   5.729 -0.0030  0.2445 -0.3625
 4131SOL    HW113227   4.583   2.627   5.750  0.2866 -0.0823 -0.8871
 4131SOL    HW213228   4.445   2.659   5.698  0.4722  0.2663 -1.1685
 4132SOL     OW13229   7.717   4.370   2.530 -0.0157  0.7159 -0.1881
 4132SOL    HW113230   7.692   4.419   2.452  0.2147 -0.3011 -0.9123
 4132SOL    HW213231   7.648   4.390   2.594 -0.7670  0.7254 -0.9890
 4133SOL     OW13232   5.827   2.641   6.055  0.4956 -0.3496  0.3056
 4133SOL    HW113233   5.768   2.614   5.985  2.6581 -1.0528 -1.3605
 4133SOL    HW213234   5.859   2.727   6.029 -1.7091  1.3076  2.5587
 4134SOL     OW13235   2.421   5.550   2.859  0.4308 -0.2598 -0.6326
 4134SOL    HW113236   2.371   5.470   2.844  0.4268 -0.4788  0.4862
 4134SOL    HW213237   2.395   5.608   2.788 -1.9902 -0.1001  0.2860
 4135SOL     OW13238   2.015   1.473   6.332 -0.6333  0.5071 -0.0655
 4135SOL    HW113239   2.053   1.527   6.264  2.2142 -1.2476 -0.0297
 4135SOL    HW213240   1.947   1.422   6.287 -0.0790  0.7003 -1.1379
 4136SOL     OW13241   7.185   5.398   5.968 -0.1317  0.3274  0.1846
 4136SOL    HW113242   7.124   5.437   5.905 -0.8474  0.1535  0.7574
 4136SOL    HW213243   7.266   5.448   5.957 -1.0546  2.0996  0.9776
 4137SOL     OW13244   3.130   2.493   0.524 -0.3026  0.4692 -0.6130
 4137SOL    HW113245   3.177   2.495   0.440  0.3871 -0.4834 -0.2694
 4137SOL    HW213246   3.125   2.585   0.550  1.4589  0.6171 -0.6370
 4138SOL     OW13247   1.018   1.997   1.163  0.6531  0.0759  0.3493
 4138SOL    HW113248   1.058   2.072   1.118 -1.1811  0.2784 -1.0633
 4138SOL    HW213249   0.969   2.036   1.236 -0.0290  0.2461 -0.1875
 4139SOL     OW13250   6.854   2.434   6.806 -0.0626 -0.0017  0.2019
 4139SOL    HW113251   6.941   2.473   6.813  0.4497 -1.1174  0.2532
 4139SOL    HW213252   6.802   2.478   6.874  1.2617 -1.3550  2.1887
 4140SOL     OW13253   0.461   4.987   4.244  0.1059  0.1013  0.0876
 4140SOL    HW113254   0.396   5.039   4.293  1.4029  0.9016  1.0140
 4140SOL    HW213255   0.460   5.026   4.156 -2.1983 -1.3078 -0.5889
 4141SOL     OW13256   7.898   7.038   2.850 -0.0775  0.4502  0.0104
 4141SOL    HW113257   7.948   7.080   2.779 -1.4071  1.4030 -0.4141
 4141SOL    HW213258   7.847   6.970   2.806 -0.3768  0.5766  0.1560
 4142SOL     OW13259   1.112   7.922   5.069 -0.1712  0.1014 -0.1241
 4142SOL    HW113260   1.059   7.866   5.011  1.1217 -1.1950 -0.0999
 4142SOL    HW213261   1.058   8.000   5.082 -1.7668 -0.8581 -0.6772
 4143SOL     OW13262   5.587   2.935   0.491  0.2639  0.1554 -0.0631
 4143SOL    HW113263   5.546   2.987   0.561 -0.6803 -1.0580  0.3148
 4143SOL    HW213264   5.634   2.866   0.538  0.7773  0.1382 -0.5942
 4144SOL     OW13265   2.230   4.965   1.043  0.0641 -0.2560 -0.1776
 4144SOL    HW113266   2.196   4.990   1.128  2.6965  0.6116  0.7180
 4144SOL    HW213267   2.273   4.881   1.058  0.2233 -0.2778 -0.7242
 4145SOL     OW13268   6.065   6.647   3.698 -0.4831 -0.0075 -0.3853
 4145SOL    HW113269   6.050   6.736   3.730 -0.1052 -0.3425  0.8083
 4145SOL    HW213270   6.024   6.590   3.764  0.0653 -0.7323 -0.6475
 4146SOL     OW13271   1.711   6.873   1.188 -0.3349 -0.2277  0.3090
 4146SOL    HW113272   1.725   6.803   1.124  1.7947 -0.1740  0.6293
 4146SOL    HW213273   1.621   6.862   1.218 -0.8499 -1.2627 -1.4849
 4147SOL     OW13274   6.820   7.804   0.252  0.6881  0.0562  0.8398
 4147SOL    HW113275   6.878   7.807   0.175 -1.2348  0.3262 -0.6830
 4147SOL    HW213276   6.803   7.711   0.265 -0.1513  0.0787 -0.0173
 4148SOL     OW13277   1.900   4.079   1.504  0.1907  0.3845  0.7034
 4148SOL    HW113278   1.910   4.008   1.569 -0.7752  1.1567  1.7352
 4148SOL    HW213279   1.946   4.047   1.427  0.6630 -0.9335  1.4903
 4149SOL     OW13280   6.644   3.096   3.980 -0.3345  0.0065 -0.1595
 4149SOL    HW113281   6.624   3.041   4.056 -1.8453 -1.0291 -1.2455
 4149SOL    HW213282   6.738   3.084   3.966 -0.0977 -0.0884  1.2815
 4150SOL     OW13283   5.993   5.131   7.004 -0.1679 -0.3073  0.4647
 4150SOL    HW113284   5.933   5.135   6.929  1.9560  0.0413 -1.3231
 4150SOL    HW213285   6.002   5.037   7.021  1.5055 -0.6196 -1.6856
 4151SOL     OW13286   2.647   7.849   6.725  0.2346  0.6042  0.5768
 4151SOL    HW113287   2.556   7.819   6.726  0.7960 -1.2324  0.3075
 4151SOL    HW213288   2.669   7.864   6.817 -0.1388  0.4449  0.6913
 4152SOL     OW13289   5.816   2.149   4.440 -0.4255 -0.1056 -0.7530
 4152SOL    HW113290   5.861   2.220   4.485  2.7969 -1.2711 -1.8576
 4152SOL    HW213291   5.793   2.186   4.355  1.5982 -0.3792 -1.4792
 4153SOL     OW13292   7.041   3.566   5.109 -0.1587 -0.5421 -0.2120
 4153SOL    HW113293   6.962   3.552   5.161  0.4126 -0.0133  0.8173
 4153SOL    HW213294   7.069   3.655   5.130 -0.1980 -0.1180 -1.8363
 4154SOL     OW13295   5.067   7.767   4.757  0.2942 -0.8220 -0.4125
 4154SOL    HW113296   5.045   7.859   4.774 -0.4530 -1.0045 -0.3600
 4154SOL    HW213297   5.060   7.725   4.843 -3.7302 -1.8029 -1.0229
 4155SOL     OW13298   5.195   4.932   1.605  0.1006 -1.1264 -0.2947
 4155SOL    HW113299   5.205   4.922   1.511 -2.3139  0.7828 -0.8587
 4155SOL    HW213300   5.126   4.870   1.629 -1.2418  0.3184 -0.3233
 4156SOL     OW13301   1.360   1.787   6.431 -0.1701 -0.3236  0.0986
 4156SOL    HW113302   1.376   1.694   6.444 -0.7846 -0.3514  0.7164
 4156SOL    HW213303   1.444   1.829   6.448 -0.6255 -0.4459  3.3927
 4157SOL     OW13304   3.558   5.111   4.625 -0.4550 -0.2237  0.4643
 4157SOL    HW113305   3.473   5.140   4.593 -0.8004 -0.8728  0.7641
 4157SOL    HW213306   3.540   5.027   4.667  0.7256 -1.6482 -1.6789
 4158SOL     OW13307   1.277   6.511   5.521  0.3105  0.5114  0.0696
 4158SOL    HW113308   1.357   6.558   5.545 -0.0982  1.3247 -0.0954
 4158SOL    HW213309   1.265   6.533   5.428  1.5564 -2.1034 -0.8007
 4159SOL     OW13310   6.562   0.568   6.574  0.3238 -0.7398 -0.0345
 4159SOL    HW113311   6.579   0.658   6.601 -1.4224 -0.1113 -0.9149
 4159SOL    HW213312   6.617   0.515   6.633 -1.0443  0.7121  2.7510
 4160SOL     OW13313   2.638   5.876   2.885  0.4385  0.0987  0.0433
 4160SOL    HW113314   2.599   5.830   2.811  0.8251  0.6526 -0.5197
 4160SOL    HW213315   2.717   5.917   2.849  0.1302  1.1570  0.5314
 4161SOL     OW13316   6.524   3.648   0.266  0.1387  0.4142  0.2229
 4161SOL    HW113317   6.470   3.694   0.201 -1.1763 -1.3491 -0.0060
 4161SOL    HW213318   6.461   3.616   0.330  0.9283 -1.3737  0.1611
 4162SOL     OW13319   6.398   3.551   3.994 -0.6526  0.0153 -0.1629
 4162SOL    HW113320   6.490   3.537   3.972 -0.5156  0.2259  0.2661
 4162SOL    HW213321   6.358   3.580   3.912 -0.5390 -0.9838 -0.5964
 4163SOL     OW13322   7.847   5.614   0.559  0.2608  0.2473  0.1288
 4163SOL    HW113323   7.774   5.561   0.524  1.4991 -1.3102 -0.2320
 4163SOL    HW213324   7.843   5.696   0.510 -2.0107  0.7564  1.0226
 4164SOL     OW13325   0.215   2.574   6.447 -0.0432 -0.0863 -0.1855
 4164SOL    HW113326   0.244   2.665   6.445  0.7704 -0.3287  0.2544
 4164SOL    HW213327   0.249   2.536   6.366 -2.2860  0.5329 -1.5204
 4165SOL     OW13328   5.694   4.225   5.506  0.1067 -0.3707 -0.4838
 4165SOL    HW113329   5.615   4.247   5.457 -0.3942 -2.8321 -0.9028
 4165SOL    HW213330   5.665   4.221   5.597  0.0819  0.0925 -0.4692
 4166SOL     OW13331   1.232   1.124   3.286 -0.6656  0.2171  0.0206
 4166SOL    HW113332   1.231   1.035   3.249 -3.0713  0.1566  0.0572
 4166SOL    HW213333   1.248   1.181   3.210  0.7437 -0.1876 -0.0282
 4167SOL     OW13334   0.524   3.295   4.823  0.3087  0.2177 -0.0138
 4167SOL    HW113335   0.615   3.268   4.831  0.2980  0.2726  0.2999
 4167SOL    HW213336   0.525   3.366   4.759  0.6916  1.2179  1.0803
 4168SOL     OW13337   6.676   4.803   1.555 -0.5741 -0.0771 -0.2261
 4168SOL    HW113338   6.748   4.867   1.557 -1.0361  0.4324  0.7018
 4168SOL    HW213339   6.653   4.796   1.462 -0.2174  0.7715 -0.3889
 4169SOL     OW13340   6.888   7.464   1.333  0.2187  0.2104  0.2603
 4169SOL    HW113341   6.819   7.530   1.336  1.0970  1.1665  0.0921
 4169SOL    HW213342   6.876   7.420   1.249  0.7028  1.3868 -0.4522
 4170SOL     OW13343   6.992   3.014   1.720 -0.3979  0.3306 -0.2747
 4170SOL    HW113344   6.927   3.048   1.659  0.5171  1.2677 -0.7758
 4170SOL    HW213345   7.038   2.946   1.670 -2.4138 -1.9833  0.8202
 4171SOL     OW13346   1.343   5.141   5.622  0.1050  0.2530  0.7133
 4171SOL    HW113347   1.372   5.209   5.683  1.4100 -0.8487  1.3706
 4171SOL    HW213348   1.407   5.071   5.632 -0.3992 -0.4985 -0.9935
 4172SOL     OW13349   7.269   6.596   4.036  0.3805  0.2682  0.4769
 4172SOL    HW113350   7.322   6.544   3.976 -0.8929 -1.9111  1.1138
 4172SOL    HW213351   7.323   6.605   4.115  0.3549 -0.7404  0.6201
 4173SOL     OW13352   6.988   1.690   6.668  0.2087 -0.0512 -0.4293
 4173SOL    HW113353   7.009   1.759   6.605  2.0192 -0.2286 -0.0937
 4173SOL    HW213354   7.016   1.725   6.752 -0.3674 -0.5722 -0.0099
 4174SOL     OW13355   7.224   1.701   2.326 -0.4518  0.0890 -0.5636
 4174SOL    HW113356   7.221   1.753   2.246 -0.3588 -0.0791 -0.6766
 4174SOL    HW213357   7.213   1.765   2.396 -0.2865  0.2658 -0.6985
 4175SOL     OW13358   3.565   3.441   7.103  0.1143 -0.0972 -0.6120
 4175SOL    HW113359   3.545   3.418   7.194  0.3576 -0.4700 -0.6470
 4175SOL    HW213360   3.660   3.428   7.096  0.2649  0.9625 -0.6326
 4176SOL     OW13361   4.607   2.441   1.878  0.5575 -0.4674  0.1211
 4176SOL    HW113362   4.615   2.404   1.790  2.6314  0.0758  0.0324
 4176SOL    HW213363   4.524   2.489   1.877  1.0501  0.4166 -1.8824
 4177SOL     OW13364   7.012   6.242   3.552 -0.6647  0.1059  0.2267
 4177SOL    HW113365   6.958   6.293   3.612 -1.7578 -0.9438  0.1812
 4177SOL    HW213366   7.044   6.168   3.604  0.1894  0.3483  0.0713
 4178SOL     OW13367   7.727   7.239   3.541 -0.1387  0.9114  0.0452
 4178SOL    HW113368   7.701   7.275   3.456  2.5621  1.6134 -0.5680
 4178SOL    HW213369   7.745   7.146   3.523 -1.6482  0.5202  0.3870
 4179SOL     OW13370   6.045   1.943   7.819 -0.3479  0.2680 -0.2196
 4179SOL    HW113371   6.110   1.877   7.845  0.4947  1.2405  0.2200
 4179SOL    HW213372   6.023   1.920   7.729  0.3549 -0.2857 -0.2674
 4180SOL     OW13373   0.125   1.055   1.228  0.0182  0.2781 -0.9807
 4180SOL    HW113374   0.173   1.138   1.235 -1.1049  0.8681  0.1976
 4180SOL    HW213375   0.048   1.067   1.284 -0.5005 -1.3426 -1.2897
 4181SOL     OW13376   4.359   0.816   2.083 -0.5795  0.0716 -0.3971
 4181SOL    HW113377   4.417   0.741   2.096  1.4024  1.7353  1.1841
 4181SOL    HW213378   4.353   0.825   1.988 -0.2487 -1.6117 -0.6089
 4182SOL     OW13379   2.554   6.053   4.762 -0.0472 -0.5347  0.0169
 4182SOL    HW113380   2.552   6.144   4.733  0.5853 -0.4487  0.2319
 4182SOL    HW213381   2.504   6.006   4.695  0.2636 -0.1436 -0.5012
 4183SOL     OW13382   0.945   2.050   6.292 -0.2630  0.0394 -0.4302
 4183SOL    HW113383   0.993   2.053   6.376 -0.0645  1.0649 -0.5635
 4183SOL    HW213384   0.933   1.957   6.275  1.1123 -0.2287 -0.0552
 4184SOL     OW13385   7.117   4.954   5.151 -0.4773  0.0636 -0.2764
 4184SOL    HW113386   7.043   5.015   5.150  0.2565  0.9858  0.0029
 4184SOL    HW213387   7.193   5.009   5.133  0.4986 -0.3689  2.1588
 4185SOL     OW13388   2.155   2.994   0.667  0.7163  0.0213  0.3334
 4185SOL    HW113389   2.126   2.908   0.698  0.7428  0.1958  0.8469
 4185SOL    HW213390   2.104   3.009   0.588  1.1101 -0.7134 -0.0675
 4186SOL     OW13391   7.146   4.487   0.651 -0.0223 -0.0656 -0.1691
 4186SOL    HW113392   7.140   4.558   0.587  1.5434 -1.5225 -2.0904
 4186SOL    HW213393   7.088   4.419   0.618 -1.1493  0.0759  1.3957
 4187SOL     OW13394   7.906   3.489   4.658 -0.0488 -0.1013  0.0041
 4187SOL    HW113395   7.862   3.503   4.742 -1.3323  0.2122 -0.6868
 4187SOL    HW213396   7.938   3.576   4.634  1.2227 -0.3800  0.6359
 4188SOL     OW13397   6.506   3.371   5.520 -0.4043  0.1813 -0.0499
 4188SOL    HW113398   6.578   3.430   5.495  0.8072 -1.1358  0.1804
 4188SOL    HW213399   6.480   3.402   5.606  0.1832  0.4197  0.0515
 4189SOL     OW13400   3.905   6.808   2.382  0.3649  0.2948 -0.1561
 4189SOL    HW113401   3.930   6.815   2.290  1.0918 -1.5183 -0.1352
 4189SOL    HW213402   3.987   6.816   2.430  0.5732 -2.4166  0.0887
 4190SOL     OW13403   3.447   5.464   4.143  0.1503  0.9798  0.5804
 4190SOL    HW113404   3.369   5.485   4.194  0.6674  2.4200  0.8118
 4190SOL    HW213405   3.486   5.390   4.189 -1.4913 -0.3017 -0.0010
 4191SOL     OW13406   4.003   7.069   7.565  0.1829  0.0212 -0.0083
 4191SOL    HW113407   3.987   7.001   7.630  0.9510  0.5578  0.7664
 4191SOL    HW213408   4.062   7.131   7.609 -0.1327  0.9454 -0.8518
 4192SOL     OW13409   7.145   2.099   7.156 -0.1532  0.1723 -0.7449
 4192SOL    HW113410   7.068   2.142   7.119 -0.7939 -1.0307 -0.8530
 4192SOL    HW213411   7.215   2.119   7.094 -0.5511  0.5929 -1.0749
 4193SOL     OW13412   0.549   7.277   0.107  0.0001 -0.0531 -0.6244
 4193SOL    HW113413   0.505   7.198   0.078  0.6438 -1.2145  1.3303
 4193SOL    HW213414   0.629   7.281   0.055  0.3185 -1.1332 -0.2538
 4194SOL     OW13415   0.246   3.721   0.143 -0.5106 -0.6953  0.3591
 4194SOL    HW113416   0.174   3.733   0.205  0.4211  1.9653  1.0258
 4194SOL    HW213417   0.205   3.724   0.057 -1.3418 -0.3547  0.7612
 4195SOL     OW13418   0.448   5.292   0.934  0.9769 -0.4010 -0.1765
 4195SOL    HW113419   0.413   5.293   0.845  0.1098  0.4692  0.1604
 4195SOL    HW213420   0.538   5.324   0.925  0.5813  0.6207 -0.6224
 4196SOL     OW13421   0.954   4.550   1.005  0.0989 -0.2548  0.3084
 4196SOL    HW113422   0.876   4.520   0.959  1.0233 -1.5802 -0.4396
 4196SOL    HW213423   0.934   4.537   1.097 -0.1437 -1.6960  0.0764
 4197SOL     OW13424   4.467   7.210   6.415 -0.5514  0.0778 -0.1570
 4197SOL    HW113425   4.535   7.259   6.368 -0.6819  2.1048  1.5975
 4197SOL    HW213426   4.505   7.124   6.431  0.7493  0.4579 -1.0794
 4198SOL     OW13427   0.973   6.661   0.170 -0.0466  0.1637 -0.2641
 4198SOL    HW113428   1.037   6.642   0.239 -0.3239 -0.8638 -0.2757
 4198SOL    HW213429   0.999   6.604   0.097 -0.5239  0.3017 -0.5469
 4199SOL     OW13430   2.828   6.625   5.254  0.3260 -0.3983 -0.3843
 4199SOL    HW113431   2.849   6.641   5.162 -1.5249  0.4726 -0.7161
 4199SOL    HW213432   2.766   6.694   5.277  0.7182 -0.6091  1.5276
 4200SOL     OW13433   3.477   7.551   0.120  0.0455  0.3514 -0.2178
 4200SOL    HW113434   3.446   7.467   0.084  0.0640 -1.3150  3.2190
 4200SOL    HW213435   3.564   7.531   0.155  0.0819  1.7978  0.5904
 4201SOL     OW13436   5.896   6.457   2.922 -0.3895  0.3302 -0.1432
 4201SOL    HW113437   5.862   6.526   2.979  2.6768  1.4899  0.4647
 4201SOL    HW213438   5.924   6.388   2.982 -1.0610 -0.3432 -0.5832
 4202SOL     OW13439   2.027   6.481   4.230  0.0127 -0.1578  0.1005
 4202SOL    HW113440   1.974   6.561   4.221 -1.2199 -0.9368  0.1521
 4202SOL    HW213441   2.092   6.488   4.160  0.7260  1.4724  0.8783
 4203SOL     OW13442   6.715   3.116   1.882 -0.0057  0.2554  0.3908
 4203SOL    HW113443   6.713   3.046   1.816  0.3690  1.0610 -0.4899
 4203SOL    HW213444   6.791   3.169   1.859 -0.5584  1.2352  0.7576
 4204SOL     OW13445   4.724   5.444   5.161 -0.2901 -0.0837  0.3847
 4204SOL    HW113446   4.793   5.438   5.227  0.9261 -0.5732 -0.8731
 4204SOL    HW213447   4.753   5.515   5.103 -1.0644 -0.0118  0.0843
 4205SOL     OW13448   2.243   4.276   3.921 -0.0003  0.1785 -0.0510
 4205SOL    HW113449   2.269   4.214   3.989 -0.1540 -0.3432 -0.4590
 4205SOL    HW213450   2.302   4.258   3.848 -1.3704 -0.9280 -0.9375
 4206SOL     OW13451   5.509   7.273   1.429 -1.0247  0.1531  0.0647
 4206SOL    HW113452   5.448   7.297   1.359 -1.1593 -0.6983 -0.1313
 4206SOL    HW213453   5.594   7.271   1.386 -1.0916 -0.2533 -0.0613
 4207SOL     OW13454   6.186   3.879   5.655 -0.0014 -0.5237  0.5134
 4207SOL    HW113455   6.109   3.832   5.687 -0.3644  0.1872  0.7034
 4207SOL    HW213456   6.150   3.957   5.613  0.7182  0.9886  2.5742
 4208SOL     OW13457   4.574   4.430   2.345  0.0269  0.3931 -0.5293
 4208SOL    HW113458   4.659   4.390   2.364  0.3628  1.5454  0.5242
 4208SOL    HW213459   4.579   4.456   2.254  0.7765  0.3678 -0.5001
 4209SOL     OW13460   1.497   6.401   7.400 -0.0210 -0.0999 -0.4732
 4209SOL    HW113461   1.497   6.471   7.335 -0.1127  0.4224  0.0921
 4209SOL    HW213462   1.589   6.373   7.405  0.3155  1.1411  0.5481
 4210SOL     OW13463   0.972   2.973   1.397  0.3283  0.2870 -0.2096
 4210SOL    HW113464   0.923   2.967   1.314  1.0847  0.9543 -0.7151
 4210SOL    HW213465   0.916   3.027   1.453  0.0220  0.2085 -0.4312
 4211SOL     OW13466   6.006   1.038   5.754 -0.0357  0.0135  0.3887
 4211SOL    HW113467   6.056   1.086   5.688  0.3703  0.5729  1.0925
 4211SOL    HW213468   5.923   1.016   5.711  0.1690  0.4904 -0.2539
 4212SOL     OW13469   5.977   1.259   2.126  0.1130 -0.4689 -0.0742
 4212SOL    HW113470   5.907   1.222   2.181 -0.5301  0.0010 -0.5582
 4212SOL    HW213471   6.057   1.242   2.175 -0.5853  1.4216  1.8787
 4213SOL     OW13472   0.582   1.667   7.070  0.0305 -0.3033  0.4243
 4213SOL    HW113473   0.634   1.588   7.058 -0.3619 -0.5397  0.2503
 4213SOL    HW213474   0.645   1.735   7.091  0.5904 -0.2462 -1.3078
 4214SOL     OW13475   6.497   2.843   3.522  0.3060  0.2136 -0.1102
 4214SOL    HW113476   6.410   2.812   3.497  0.4725 -1.0987  0.8182
 4214SOL    HW213477   6.550   2.832   3.442  0.3772 -2.1204  0.1915
 4215SOL     OW13478   3.229   4.830   7.944 -0.2239 -0.2037  0.2281
 4215SOL    HW113479   3.321   4.855   7.931 -0.3168 -0.3493 -0.8176
 4215SOL    HW213480   3.188   4.909   7.980  0.0230  0.3345 -0.6405
 4216SOL     OW13481   5.208   0.591   5.783 -0.1644 -0.4772 -0.0704
 4216SOL    HW113482   5.267   0.528   5.741  0.3779  0.5140 -0.8554
 4216SOL    HW213483   5.191   0.554   5.869  0.5186 -1.4652 -0.3359
 4217SOL     OW13484   7.881   2.232   3.187  0.0454 -0.2652 -0.2737
 4217SOL    HW113485   7.935   2.209   3.111  0.8787  1.0919 -0.1338
 4217SOL    HW213486   7.945   2.261   3.252 -0.6856 -1.1484  0.8539
 4218SOL     OW13487   6.325   7.136   6.974 -0.6853  0.0096 -0.0294
 4218SOL    HW113488   6.348   7.073   6.905 -1.2867  0.1069 -0.3277
 4218SOL    HW213489   6.383   7.210   6.959 -1.4920  0.4598 -1.0774
 4219SOL     OW13490   0.767   1.617   3.415  0.0047  0.0041 -0.0326
 4219SOL    HW113491   0.846   1.626   3.468 -1.2169 -1.1553  2.0995
 4219SOL    HW213492   0.798   1.580   3.332  1.7347 -0.2098  0.6712
 4220SOL     OW13493   1.398   5.705   3.641  0.4570  0.2171  0.2253
 4220SOL    HW113494   1.418   5.617   3.674  0.0402 -0.2724 -0.7808
 4220SOL    HW213495   1.358   5.750   3.716 -0.5225 -0.8751  0.3923
 4221SOL     OW13496   3.674   2.469   5.204 -0.2773 -0.3488  0.1036
 4221SOL    HW113497   3.735   2.473   5.277 -0.8855  2.9576  0.5969
 4221SOL    HW213498   3.596   2.427   5.241 -0.4267  0.8995  1.2910
 4222SOL     OW13499   3.630   2.579   4.950  0.2083  0.2364  0.0509
 4222SOL    HW113500   3.578   2.506   4.916 -2.0905  1.9821 -0.4684
 4222SOL    HW213501   3.646   2.557   5.042 -1.6916 -0.3084  0.2916
 4223SOL     OW13502   1.244   7.001   2.516 -0.8450 -0.5616 -0.4270
 4223SOL    HW113503   1.149   7.009   2.514 -0.8868 -1.1656 -1.4570
 4223SOL    HW213504   1.271   7.007   2.425  0.1110 -0.3904 -0.1492
 4224SOL     OW13505   7.276   2.906   5.976  0.1038 -0.1644  0.8397
 4224SOL    HW113506   7.362   2.865   5.976  0.0730 -0.2619 -0.2478
 4224SOL    HW213507   7.215   2.834   5.993  0.1587 -0.3180  0.4045
 4225SOL     OW13508   7.542   7.615   3.572 -0.1827  1.0495  0.0297
 4225SOL    HW113509   7.544   7.523   3.545  0.9962  1.1399 -0.2059
 4225SOL    HW213510   7.598   7.619   3.649  1.0158  1.8323 -0.8402
 4226SOL     OW13511   7.689   3.267   3.744 -0.0266 -0.0713 -0.1412
 4226SOL    HW113512   7.598   3.260   3.714  0.1880  0.2154 -0.8721
 4226SOL    HW213513   7.736   3.304   3.669  1.0529 -1.9333 -0.4406
 4227SOL     OW13514   0.120   4.755   4.470 -0.6090 -0.0105 -0.2302
 4227SOL    HW113515   0.051   4.812   4.436 -0.7054 -0.4098 -0.7266
 4227SOL    HW213516   0.159   4.804   4.543 -1.6801  0.0463  0.3107
 4228SOL     OW13517   7.602   6.193   2.414  0.5042  0.6764  0.3702
 4228SOL    HW113518   7.640   6.166   2.498  1.1752  0.1531 -0.0866
 4228SOL    HW213519   7.539   6.261   2.437 -0.6990 -0.7380  1.4922
 4229SOL     OW13520   0.204   5.790   4.973  0.0316 -0.5078  0.2226
 4229SOL    HW113521   0.231   5.798   4.882  1.3594  0.4196  0.6833
 4229SOL    HW213522   0.228   5.873   5.014 -0.6027 -0.8785  1.4120
 4230SOL     OW13523   1.033   4.716   3.235  0.7234  0.3434 -0.3378
 4230SOL    HW113524   0.995   4.679   3.156 -0.4680  3.1186 -1.1952
 4230SOL    HW213525   1.019   4.649   3.302 -0.0710 -1.2618 -2.0201
 4231SOL     OW13526   4.185   3.100   5.587  0.1352  0.0174 -0.2066
 4231SOL    HW113527   4.167   3.194   5.588 -0.1910 -0.0386  1.0080
 4231SOL    HW213528   4.273   3.093   5.550  0.0538  0.7794 -0.5580
 4232SOL     OW13529   4.199   0.794   0.906  0.5247 -0.4177  0.3475
 4232SOL    HW113530   4.290   0.803   0.934  0.3858 -0.1244  0.7254
 4232SOL    HW213531   4.180   0.701   0.914  0.3010 -0.2593  1.8599
 4233SOL     OW13532   7.486   0.643   7.933 -0.0670  0.4025  0.1024
 4233SOL    HW113533   7.413   0.696   7.967  0.7765  0.9304  1.1804
 4233SOL    HW213534   7.564   0.685   7.969  0.7464 -0.4752 -0.5841
 4234SOL     OW13535   2.406   6.587   4.423  0.7634  0.0961 -0.1605
 4234SOL    HW113536   2.369   6.675   4.415  1.7207  0.5713  0.3962
 4234SOL    HW213537   2.437   6.565   4.335  0.4082  0.2559 -0.3269
 4235SOL     OW13538   6.613   4.462   4.807  0.4935 -0.5400 -0.2015
 4235SOL    HW113539   6.651   4.467   4.719  0.9531  0.1847  0.0278
 4235SOL    HW213540   6.596   4.369   4.821  2.6839 -0.9824 -0.1225
 4236SOL     OW13541   2.586   1.968   3.998  0.3293 -0.5006  0.1601
 4236SOL    HW113542   2.512   1.927   3.953 -0.3370 -0.7454  1.4376
 4236SOL    HW213543   2.546   2.027   4.061  1.2222 -0.6632  0.8968
 4237SOL     OW13544   7.017   0.699   4.776 -0.0054  0.3398  0.5040
 4237SOL    HW113545   6.957   0.772   4.760  0.3805  0.6254  0.3599
 4237SOL    HW213546   7.008   0.644   4.699 -1.1041 -0.3384  1.0807
 4238SOL     OW13547   0.768   2.554   3.756  0.4915  0.4674 -0.0922
 4238SOL    HW113548   0.700   2.488   3.773 -0.9885  2.1298  0.8623
 4238SOL    HW213549   0.793   2.540   3.665  0.9401 -1.9826  0.3299
 4239SOL     OW13550   5.391   3.678   6.265  0.1518 -0.2041 -0.5930
 4239SOL    HW113551   5.405   3.759   6.216 -1.7777  0.6550  0.1588
 4239SOL    HW213552   5.322   3.633   6.216  1.9537 -1.9883 -1.6250
 4240SOL     OW13553   4.852   7.811   7.302 -0.3364 -0.2700  0.4246
 4240SOL    HW113554   4.911   7.779   7.234 -0.9964 -2.8696  0.9275
 4240SOL    HW213555   4.903   7.874   7.352  0.3630  1.2113 -2.0230
 4241SOL     OW13556   7.267   4.815   1.248 -0.5000 -0.1429 -0.2120
 4241SOL    HW113557   7.298   4.762   1.322  0.0204 -1.5127 -1.3587
 4241SOL    HW213558   7.344   4.866   1.221 -0.1495 -1.0298 -0.9446
 4242SOL     OW13559   5.792   5.900   1.650 -0.1499 -0.3218  1.0296
 4242SOL    HW113560   5.707   5.858   1.666 -0.4060  0.5527  2.0710
 4242SOL    HW213561   5.852   5.827   1.632 -1.4721 -0.8856 -1.6556
 4243SOL     OW13562   3.397   3.960   4.781  0.3896  0.1152  0.0024
 4243SOL    HW113563   3.378   4.004   4.698 -1.2284  3.3308  1.8545
 4243SOL    HW213564   3.311   3.932   4.813  1.0775 -1.8368  0.2654
 4244SOL     OW13565   0.776   2.099   0.101 -0.3913 -0.2221 -0.6601
 4244SOL    HW113566   0.765   2.193   0.090 -2.3034 -0.2722  0.2684
 4244SOL    HW213567   0.869   2.087   0.122 -0.6139  1.8080  2.0180
 4245SOL     OW13568   3.231   7.194   7.270  0.5548 -0.2941 -0.1011
 4245SOL    HW113569   3.304   7.243   7.232  1.1189 -0.1142  1.1499
 4245SOL    HW213570   3.187   7.257   7.327 -0.6752 -0.3662 -0.9422
 4246SOL     OW13571   1.422   6.271   5.478  0.1735  1.2686 -0.7047
 4246SOL    HW113572   1.357   6.208   5.448  0.1600  1.2577 -0.6521
 4246SOL    HW213573   1.372   6.352   5.492  0.0327  1.0626  0.0497
 4247SOL     OW13574   3.056   6.097   0.560  0.2321 -0.2812  0.1936
 4247SOL    HW113575   3.132   6.040   0.549  0.5708 -0.9274  4.2551
 4247SOL    HW213576   2.985   6.038   0.586 -1.3306  0.5031 -1.9697
 4248SOL     OW13577   2.137   5.045   6.395 -0.4291  0.1594 -0.2267
 4248SOL    HW113578   2.063   5.079   6.346 -0.3226  0.4229 -0.2051
 4248SOL    HW213579   2.173   4.976   6.339 -2.4481 -2.0691  1.0072
 4249SOL     OW13580   6.363   5.905   0.261  0.6058 -0.3822 -0.0855
 4249SOL    HW113581   6.380   5.955   0.181  2.2990  0.4059  0.7087
 4249SOL    HW213582   6.280   5.861   0.244 -0.8374  2.4089 -0.9673
 4250SOL     OW13583   4.903   7.904   5.840 -0.5946 -0.3868 -0.3438
 4250SOL    HW113584   4.980   7.860   5.876  0.7369  1.1753 -1.1546
 4250SOL    HW213585   4.933   7.943   5.758 -1.1486  3.3485  1.0182
 4251SOL     OW13586   1.436   5.638   4.231  0.5629  0.0072  0.0762
 4251SOL    HW113587   1.361   5.656   4.289 -0.4379  0.3172 -1.2606
 4251SOL    HW213588   1.417   5.689   4.152  2.3340  0.2861 -0.1966
 4252SOL     OW13589   7.434   7.721   7.673  0.1778  0.1783 -0.2396
 4252SOL    HW113590   7.517   7.737   7.719 -1.0859  2.0899  1.5854
 4252SOL    HW213591   7.399   7.809   7.656 -1.6969 -0.5770 -0.5137
 4253SOL     OW13592   4.154   6.151   6.801  0.4284 -0.1567  0.2892
 4253SOL    HW113593   4.198   6.236   6.808 -0.2053  0.1627  0.5047
 4253SOL    HW213594   4.075   6.160   6.856  0.5346 -1.0036  0.6006
 4254SOL     OW13595   6.231   6.095   2.606 -0.0235  0.1831 -0.0713
 4254SOL    HW113596   6.251   6.041   2.529  0.0054 -1.1824  0.8654
 4254SOL    HW213597   6.195   6.175   2.569 -2.6493 -1.4884 -1.5283
 4255SOL     OW13598   0.998   5.853   2.358 -0.2141 -0.2401  0.0135
 4255SOL    HW113599   0.973   5.910   2.431 -1.0218  0.9021 -1.0975
 4255SOL    HW213600   0.945   5.774   2.370  0.0142 -0.2654  0.9166
 4256SOL     OW13601   3.776   0.393   4.569 -0.4203  0.2710 -0.3100
 4256SOL    HW113602   3.705   0.385   4.633  0.0577 -1.5748  0.0625
 4256SOL    HW213603   3.855   0.392   4.622 -0.0182 -1.3020 -0.8741
 4257SOL     OW13604   5.727   2.744   7.224  0.1759  0.0070 -0.2395
 4257SOL    HW113605   5.795   2.805   7.251  0.5255  0.5142 -2.1326
 4257SOL    HW213606   5.645   2.793   7.234  0.1585 -0.2312  0.9786
 4258SOL     OW13607   2.379   3.173   2.321 -0.0335 -0.5568 -0.4622
 4258SOL    HW113608   2.470   3.169   2.353  0.2911  1.7060 -0.9087
 4258SOL    HW213609   2.327   3.185   2.400 -0.1239 -2.9499 -0.0848
 4259SOL     OW13610   7.337   2.297   7.434 -0.4125 -0.3871  0.0148
 4259SOL    HW113611   7.272   2.227   7.421 -0.8880  0.1880 -0.7420
 4259SOL    HW213612   7.295   2.376   7.400  0.9784 -0.1405 -1.2105
 4260SOL     OW13613   3.725   6.683   5.081 -0.2084  0.6821 -0.0712
 4260SOL    HW113614   3.706   6.590   5.068 -1.6797  1.1018 -1.1825
 4260SOL    HW213615   3.738   6.692   5.175  0.6702 -0.7631 -0.0333
 4261SOL     OW13616   2.131   1.388   1.251 -0.1770  0.0433  0.4752
 4261SOL    HW113617   2.199   1.415   1.313 -0.0001  1.0261 -0.1248
 4261SOL    HW213618   2.063   1.349   1.305  1.8667 -3.2463  0.9298
 4262SOL     OW13619   1.232   4.870   3.849 -0.0544  0.0004 -0.6233
 4262SOL    HW113620   1.220   4.884   3.755 -0.7587 -4.8792 -1.5430
 4262SOL    HW213621   1.314   4.822   3.856 -1.2073 -1.8940  0.8738
 4263SOL     OW13622   7.853   1.329   3.544  0.4818  0.0441  0.4328
 4263SOL    HW113623   7.868   1.373   3.460  0.0211  1.8885  1.2753
 4263SOL    HW213624   7.932   1.276   3.557  0.4191 -0.5404 -1.2917
 4264SOL     OW13625   4.075   7.613   6.287  0.6566  0.1246  0.5093
 4264SOL    HW113626   4.171   7.613   6.290  0.6662  1.9257  1.5520
 4264SOL    HW213627   4.049   7.558   6.361  0.8651 -0.4805  0.1436
 4265SOL     OW13628   4.503   1.360   6.385 -0.2431  0.4075 -0.1257
 4265SOL    HW113629   4.492   1.269   6.359  0.1284  0.2895  0.1093
 4265SOL    HW213630   4.562   1.356   6.460 -0.2503  0.8398 -0.0926
 4266SOL     OW13631   5.510   1.749   2.508  0.8245  0.0381  0.1244
 4266SOL    HW113632   5.473   1.836   2.527  1.0045 -0.1448  1.3578
 4266SOL    HW213633   5.517   1.747   2.412 -0.1170  0.9991  0.0126
 4267SOL     OW13634   2.927   3.817   3.883  0.3134 -0.2899 -0.0412
 4267SOL    HW113635   2.981   3.754   3.836  1.5231  2.3898 -2.5571
 4267SOL    HW213636   2.991   3.874   3.927 -0.6566  0.2765  0.6703
 4268SOL     OW13637   4.970   0.151   7.022 -0.0394  0.1888 -0.1498
 4268SOL    HW113638   5.050   0.100   7.014 -0.1656  0.0259 -0.4049
 4268SOL    HW213639   4.922   0.132   6.941 -0.2302  0.4624 -0.1019
 4269SOL     OW13640   2.351   2.853   3.360 -0.1855 -0.2431  0.2196
 4269SOL    HW113641   2.316   2.800   3.432 -1.5945 -0.2307 -0.4138
 4269SOL    HW213642   2.390   2.929   3.403  2.4455 -2.0056  1.1895
 4270SOL     OW13643   4.311   7.880   4.923  0.2068  0.5195 -0.1922
 4270SOL    HW113644   4.234   7.933   4.945 -0.3357  0.0857 -1.0021
 4270SOL    HW213645   4.278   7.814   4.862  1.3435  0.7296 -1.0727
 4271SOL     OW13646   0.392   2.867   1.288 -0.4321 -0.0254  0.1907
 4271SOL    HW113647   0.453   2.894   1.219 -0.1432  0.7778  0.7572
 4271SOL    HW213648   0.309   2.856   1.242 -0.4849  1.5033 -0.1417
 4272SOL     OW13649   6.086   0.581   6.963  0.5077 -0.0815 -0.1071
 4272SOL    HW113650   6.094   0.506   6.904 -0.9528 -0.0994 -0.3349
 4272SOL    HW213651   6.076   0.542   7.050 -1.1540 -0.2278 -0.3284
 4273SOL     OW13652   3.036   4.232   4.763  0.5423 -0.2552 -0.2666
 4273SOL    HW113653   3.029   4.137   4.752 -0.9487 -0.0688 -1.3127
 4273SOL    HW213654   3.052   4.265   4.674 -0.3000  0.5522 -0.1342
 4274SOL     OW13655   4.556   4.034   2.243 -0.9772  0.0559  0.1384
 4274SOL    HW113656   4.595   3.952   2.213 -0.8123  1.5262 -4.5542
 4274SOL    HW213657   4.482   4.007   2.298  0.6526 -3.0587  1.0370
 4275SOL     OW13658   4.894   5.411   1.536  0.5720  0.0258  0.1437
 4275SOL    HW113659   4.924   5.472   1.469  1.1532 -0.6369 -0.2122
 4275SOL    HW213660   4.956   5.338   1.531 -0.5519 -0.9423  0.0473
 4276SOL     OW13661   5.728   7.645   2.769  0.1269 -0.6927 -0.1120
 4276SOL    HW113662   5.643   7.612   2.738 -0.0456 -4.0025  3.1627
 4276SOL    HW213663   5.706   7.720   2.824 -0.8705 -1.9533  1.2994
 4277SOL     OW13664   4.298   0.955   4.507 -0.1657 -0.4287 -0.4836
 4277SOL    HW113665   4.285   0.860   4.508 -1.4821 -0.3351 -2.4325
 4277SOL    HW213666   4.330   0.973   4.418  2.5662  0.7231  0.6168
 4278SOL     OW13667   5.471   5.441   0.701  0.5068 -0.9321 -0.1466
 4278SOL    HW113668   5.479   5.398   0.786 -1.7804  0.0067  0.5975
 4278SOL    HW213669   5.396   5.399   0.659 -0.0662  0.4461 -0.5535
 4279SOL     OW13670   0.752   2.956   3.343  0.3702 -0.6278  0.5175
 4279SOL    HW113671   0.835   2.999   3.323 -0.0421  0.6449  1.3925
 4279SOL    HW213672   0.686   3.025   3.333 -0.7915 -1.9236 -1.4753
 4280SOL     OW13673   7.125   7.185   2.015  0.5284 -0.3787 -0.9107
 4280SOL    HW113674   7.071   7.106   2.009 -0.5439  0.2934 -0.2851
 4280SOL    HW213675   7.111   7.231   1.933  0.2304 -0.2654 -0.7983
 4281SOL     OW13676   3.447   4.882   3.911 -0.3440  0.1534  0.6057
 4281SOL    HW113677   3.468   4.975   3.916  0.7020  0.2201 -2.7942
 4281SOL    HW213678   3.354   4.878   3.934 -0.4410  2.0498  0.7378
 4282SOL     OW13679   3.194   5.887   1.039  0.4887  0.2936 -0.1052
 4282SOL    HW113680   3.195   5.826   1.112 -0.9721  1.3485  0.8460
 4282SOL    HW213681   3.224   5.836   0.964 -0.6565 -1.5796  0.6629
 4283SOL     OW13682   0.581   4.406   5.577 -0.7329  0.2134  0.1613
 4283SOL    HW113683   0.671   4.396   5.546 -1.0118  0.5319 -0.7918
 4283SOL    HW213684   0.527   4.385   5.501 -1.5288 -1.7767  1.2071
 4284SOL     OW13685   7.797   2.464   1.512 -1.1079 -0.0397 -0.0393
 4284SOL    HW113686   7.889   2.480   1.495 -1.1970 -0.1916 -0.6860
 4284SOL    HW213687   7.769   2.404   1.443 -1.5846 -0.3422  0.4078
 4285SOL     OW13688   3.953   3.962   3.489 -0.1410 -0.1138  0.0422
 4285SOL    HW113689   3.909   3.976   3.573  0.7371 -0.6044  0.5956
 4285SOL    HW213690   3.949   4.047   3.445  1.5177  0.8440  1.6119
 4286SOL     OW13691   7.140   3.252   2.183 -0.2628 -0.4733  0.8432
 4286SOL    HW113692   7.127   3.203   2.265 -2.6476 -1.8667 -0.2473
 4286SOL    HW213693   7.088   3.203   2.118  0.9680  0.9877 -1.3490
 4287SOL     OW13694   6.871   3.674   4.176  0.3070 -0.0272  0.0308
 4287SOL    HW113695   6.801   3.709   4.121 -0.3098 -0.7907  0.3156
 4287SOL    HW213696   6.864   3.723   4.258  0.5708  0.3934 -0.1936
 4288SOL     OW13697   7.189   0.302   5.282  0.4800 -0.1241 -0.2464
 4288SOL    HW113698   7.131   0.250   5.227  0.6134 -1.6591  0.9752
 4288SOL    HW213699   7.140   0.381   5.302  0.2423  0.2488 -2.1201
 4289SOL     OW13700   0.698   1.385   0.909 -0.1241  0.4026 -0.3594
 4289SOL    HW113701   0.720   1.468   0.951  1.5350 -0.9496  1.6495
 4289SOL    HW213702   0.747   1.319   0.958 -3.5232 -2.1585 -0.0080
 4290SOL     OW13703   5.978   3.370   5.764  0.8242 -0.0353  0.2405
 4290SOL    HW113704   5.911   3.319   5.810 -1.7692  2.3536 -0.6097
 4290SOL    HW213705   5.993   3.446   5.821 -0.1953  1.4430 -1.3833
 4291SOL     OW13706   6.999   6.352   1.189 -0.0757 -0.1349  0.1523
 4291SOL    HW113707   6.952   6.412   1.248  0.5227  1.9379 -1.3518
 4291SOL    HW213708   7.043   6.291   1.248 -0.0512  1.4047  1.8313
 4292SOL     OW13709   1.275   3.972   4.903 -1.0287 -0.7379 -0.4793
 4292SOL    HW113710   1.200   3.951   4.848  0.7145  0.3833 -3.5456
 4292SOL    HW213711   1.346   3.918   4.868 -0.1143 -1.0345  1.6810
 4293SOL     OW13712   2.404   7.150   1.294  0.3435 -0.1191 -0.6512
 4293SOL    HW113713   2.340   7.125   1.228 -1.3391 -0.7139  1.1277
 4293SOL    HW213714   2.486   7.161   1.245 -0.6791 -1.1688 -2.7055
 4294SOL     OW13715   3.365   2.307   1.029 -0.0587  0.3363 -0.3473
 4294SOL    HW113716   3.317   2.381   1.066 -1.6050 -1.2113  0.9057
 4294SOL    HW213717   3.349   2.235   1.090  1.5020 -1.0247 -1.4444
 4295SOL     OW13718   4.240   2.568   7.904  0.4225 -0.1840 -0.2795
 4295SOL    HW113719   4.300   2.529   7.841  0.9872  0.3507 -0.0796
 4295SOL    HW213720   4.160   2.516   7.896  0.6578 -0.4359 -1.0738
 4296SOL     OW13721   3.031   0.628   1.211  0.2965  0.1000 -0.2443
 4296SOL    HW113722   3.098   0.680   1.166 -0.2311  0.6449 -0.4235
 4296SOL    HW213723   3.029   0.545   1.163  1.5370 -0.3066  0.3921
 4297SOL     OW13724   1.832   0.601   7.626  0.4985 -0.0356  0.2917
 4297SOL    HW113725   1.753   0.609   7.573  1.2575 -1.5178 -1.1691
 4297SOL    HW213726   1.800   0.597   7.716 -1.2162 -1.6636 -0.3147
 4298SOL     OW13727   6.405   5.264   5.312  0.2058  0.6983  0.5149
 4298SOL    HW113728   6.420   5.285   5.219  0.3504  0.4521  0.4826
 4298SOL    HW213729   6.387   5.349   5.352  0.4358  0.8445  0.3159
 4299SOL     OW13730   5.238   2.444   3.749 -0.1165 -0.0443  0.8136
 4299SOL    HW113731   5.168   2.502   3.719  0.5827  0.9624  1.0685
 4299SOL    HW213732   5.193   2.372   3.793 -1.0993 -0.8080 -1.3529
 4300SOL     OW13733   2.888   2.436   6.273  0.1662 -0.0990  0.2495
 4300SOL    HW113734   2.836   2.514   6.290  1.3128  1.1269 -1.5362
 4300SOL    HW213735   2.823   2.368   6.252 -0.8043  0.7338  0.4686
 4301SOL     OW13736   3.463   3.605   6.479 -0.2079  0.3727  0.2312
 4301SOL    HW113737   3.469   3.533   6.541 -1.0775  0.5399  0.5258
 4301SOL    HW213738   3.412   3.570   6.406  1.0066  0.1035 -0.5234
 4302SOL     OW13739   4.655   4.033   1.655 -0.4588 -0.5076 -0.0126
 4302SOL    HW113740   4.749   4.052   1.659 -0.6712  0.9148 -1.0531
 4302SOL    HW213741   4.629   4.057   1.566 -1.3957 -3.0441 -0.5224
 4303SOL     OW13742   0.004   0.277   3.297 -0.4770 -0.0163 -0.0629
 4303SOL    HW113743   0.083   0.231   3.326  1.2580  1.4970 -1.9937
 4303SOL    HW213744  -0.052   0.209   3.260  0.1229 -1.0613  0.8784
 4304SOL     OW13745   5.761   0.645   0.733  0.0811 -0.0827  0.0874
 4304SOL    HW113746   5.776   0.648   0.639 -0.7569 -0.0211 -0.0520
 4304SOL    HW213747   5.849   0.647   0.772  0.4240  0.0240 -0.6836
 4305SOL     OW13748   0.775   7.331   1.792 -0.3324 -0.1529  0.2432
 4305SOL    HW113749   0.806   7.379   1.869 -1.2026 -1.1198  1.2274
 4305SOL    HW213750   0.829   7.252   1.790  0.3092  0.3012 -0.6879
 4306SOL     OW13751   7.666   5.779   7.235  0.5414  0.3799 -0.1643
 4306SOL    HW113752   7.693   5.808   7.322 -0.1627 -0.5667  0.3860
 4306SOL    HW213753   7.638   5.859   7.191  0.7482  0.8435  0.5267
 4307SOL     OW13754   2.870   3.137   2.247  0.1037 -0.2991  0.2428
 4307SOL    HW113755   2.873   3.158   2.154 -0.4025 -0.5420  0.1675
 4307SOL    HW213756   2.959   3.108   2.269 -0.3553 -2.6209 -0.7318
 4308SOL     OW13757   7.164   5.644   1.208 -0.3170  0.1647  0.4040
 4308SOL    HW113758   7.103   5.612   1.141 -1.4483  1.6961  0.6715
 4308SOL    HW213759   7.251   5.622   1.173 -0.9628 -2.2415  0.1103
 4309SOL     OW13760   3.168   0.752   2.862 -0.1863 -0.0202  0.4804
 4309SOL    HW113761   3.125   0.680   2.909 -0.6887  0.1528  0.2851
 4309SOL    HW213762   3.257   0.720   2.847 -0.6665 -0.9844 -0.4282
 4310SOL     OW13763   3.132   2.921   0.703 -0.2478  0.1892  0.6359
 4310SOL    HW113764   3.098   2.849   0.651 -0.4922  0.5814  0.2497
 4310SOL    HW213765   3.211   2.949   0.656  0.0059 -0.0032  0.9378
 4311SOL     OW13766   4.814   2.490   0.309 -0.6803  0.0461 -0.4477
 4311SOL    HW113767   4.743   2.427   0.294 -0.3742 -0.0296 -1.7374
 4311SOL    HW213768   4.891   2.435   0.326 -0.2636  0.0019 -2.2529
 4312SOL     OW13769   5.704   6.185   1.870 -0.4248 -0.4000 -0.2355
 4312SOL    HW113770   5.759   6.141   1.805 -1.3529  1.0506 -2.0981
 4312SOL    HW213771   5.632   6.222   1.820 -0.4886  1.9452  1.4104
 4313SOL     OW13772   6.986   4.478   0.982 -0.3142  0.7144  0.4339
 4313SOL    HW113773   7.055   4.545   0.978  1.3576 -1.0009 -1.0133
 4313SOL    HW213774   6.984   4.451   1.074 -0.2334  1.9203  0.8066
 4314SOL     OW13775   0.526   2.759   6.875 -0.3630  0.1422  0.1769
 4314SOL    HW113776   0.569   2.767   6.961 -1.1805 -2.6304  0.9362
 4314SOL    HW213777   0.456   2.825   6.878  0.0269  0.5500  1.3570
 4315SOL     OW13778   7.615   6.082   2.986 -0.8336 -0.0709 -0.8880
 4315SOL    HW113779   7.671   6.152   2.953  0.9707 -0.8853  0.2855
 4315SOL    HW213780   7.538   6.085   2.929  0.1174  1.4697 -2.2152
 4316SOL     OW13781   4.189   6.469   6.507 -0.0027 -0.5392 -0.2967
 4316SOL    HW113782   4.204   6.438   6.417  1.9192  1.0886 -0.6122
 4316SOL    HW213783   4.148   6.555   6.496 -0.0747 -0.4792  0.4057
 4317SOL     OW13784   3.998   3.939   3.850 -0.4144 -0.5003  0.6669
 4317SOL    HW113785   4.092   3.929   3.837 -0.2462  0.3235  1.2035
 4317SOL    HW213786   3.960   3.860   3.812  0.5331 -1.0909  0.9280
 4318SOL     OW13787   4.906   3.574   5.542  0.2652 -0.3039  0.0758
 4318SOL    HW113788   4.827   3.520   5.539  0.6139 -0.9277  1.3154
 4318SOL    HW213789   4.922   3.587   5.635  0.5673  1.4223 -0.1770
 4319SOL     OW13790   7.399   2.738   3.773  0.5019 -0.4628 -0.1841
 4319SOL    HW113791   7.461   2.781   3.833  0.1490  0.6780 -0.6134
 4319SOL    HW213792   7.418   2.777   3.688 -0.5321 -0.4028 -0.3896
 4320SOL     OW13793   6.923   0.311   2.068  0.3882 -0.6924  0.3055
 4320SOL    HW113794   6.875   0.306   2.150 -0.1179 -0.0334  0.0516
 4320SOL    HW213795   6.870   0.368   2.012  0.7015 -1.1662 -0.4937
 4321SOL     OW13796   4.079   2.154   0.541  0.3371 -0.4690  0.2194
 4321SOL    HW113797   4.050   2.240   0.573 -1.8649 -0.1627 -2.2698
 4321SOL    HW213798   4.149   2.174   0.479  0.4584 -0.5540  0.3295
 4322SOL     OW13799   3.729   2.483   1.024  0.1302 -0.9844  0.3719
 4322SOL    HW113800   3.748   2.560   0.969  0.1254 -0.7956  0.6327
 4322SOL    HW213801   3.656   2.510   1.078  0.9512 -0.7154  1.3790
 4323SOL     OW13802   5.827   4.861   5.388  0.1796 -0.4297 -0.1852
 4323SOL    HW113803   5.796   4.894   5.472  0.1463  0.7143 -0.6233
 4323SOL    HW213804   5.911   4.819   5.409  0.3260  0.1189  0.3792
 4324SOL     OW13805   7.505   4.475   0.327  0.7282  0.3222  0.2397
 4324SOL    HW113806   7.584   4.518   0.296  0.6755 -0.5840 -1.2180
 4324SOL    HW213807   7.469   4.430   0.250 -1.7435  1.4931  0.5977
 4325SOL     OW13808   3.022   6.101   0.967 -0.2502  0.1577  0.0605
 4325SOL    HW113809   2.941   6.054   0.989  0.0554  0.6231  2.4390
 4325SOL    HW213810   3.091   6.037   0.977 -0.2125 -0.0139 -1.1389
 4326SOL     OW13811   2.359   6.516   7.402 -0.0220 -0.3018  0.5045
 4326SOL    HW113812   2.447   6.478   7.410  1.1007  1.6596 -1.4319
 4326SOL    HW213813   2.313   6.457   7.342  0.4196 -0.6149  0.4703
 4327SOL     OW13814   1.061   2.992   6.675  0.0042 -0.0961 -0.2228
 4327SOL    HW113815   1.029   2.908   6.643 -0.5853  0.5376 -1.3564
 4327SOL    HW213816   0.999   3.016   6.744 -1.1343  0.4080 -1.3799
 4328SOL     OW13817   1.007   3.386   5.755  0.0486 -0.2394 -0.7052
 4328SOL    HW113818   1.070   3.416   5.821 -1.0256  3.1485 -1.0701
 4328SOL    HW213819   0.948   3.328   5.803  1.1863 -0.4573  0.5022
 4329SOL     OW13820   5.547   6.395   6.637  0.7066 -0.8265  0.9119
 4329SOL    HW113821   5.551   6.491   6.631 -0.5390 -0.7852  0.4421
 4329SOL    HW213822   5.629   6.365   6.598  0.1890  0.0051 -0.9575
 4330SOL     OW13823   7.770   4.468   3.161  0.0245  0.4809  0.2396
 4330SOL    HW113824   7.697   4.450   3.221  0.8891 -1.2409  0.8249
 4330SOL    HW213825   7.847   4.436   3.207  0.8621  0.1482 -1.3382
 4331SOL     OW13826   2.303   1.779   1.381 -0.3801 -0.1594  0.6152
 4331SOL    HW113827   2.220   1.738   1.359 -0.3386 -0.0062  0.1700
 4331SOL    HW213828   2.354   1.776   1.300 -0.6462  1.4177  0.3524
 4332SOL     OW13829   4.361   4.012   1.245 -0.2433 -0.4199  0.1689
 4332SOL    HW113830   4.298   3.942   1.231  1.5827 -1.9246 -0.9094
 4332SOL    HW213831   4.355   4.031   1.339 -0.8261 -1.9644  0.4656
 4333SOL     OW13832   4.206   2.353   2.334 -0.1237  0.2412  0.1801
 4333SOL    HW113833   4.221   2.329   2.242 -1.1982 -1.9471  0.4930
 4333SOL    HW213834   4.115   2.384   2.335 -0.5818 -1.0342  0.6686
 4334SOL     OW13835   5.373   2.598   2.139 -0.1594  0.3151 -0.0658
 4334SOL    HW113836   5.466   2.584   2.153  0.1524  0.8243 -1.4839
 4334SOL    HW213837   5.341   2.633   2.223  1.0571  0.7516  0.2324
 4335SOL     OW13838   5.128   6.714   6.123  0.1348  0.0288 -0.7050
 4335SOL    HW113839   5.152   6.648   6.057  2.0594 -0.4641  0.4062
 4335SOL    HW213840   5.047   6.681   6.161  1.0093 -1.7128 -0.2406
 4336SOL     OW13841   7.884   0.879   2.619  0.3695  0.1944 -0.5194
 4336SOL    HW113842   7.916   0.937   2.688  0.1257  2.0819 -1.9131
 4336SOL    HW213843   7.799   0.915   2.595  0.1159 -0.8819 -1.3159
 4337SOL     OW13844   7.910   5.020   6.830  0.3164 -0.7054  0.0087
 4337SOL    HW113845   7.859   5.069   6.895 -1.6483  0.1942 -2.0491
 4337SOL    HW213846   7.956   4.953   6.880  0.4015  1.0939  2.5294
 4338SOL     OW13847   1.596   1.503   4.411 -0.5396 -0.1840  0.1700
 4338SOL    HW113848   1.675   1.515   4.464 -1.7942  1.1449  1.8511
 4338SOL    HW213849   1.601   1.571   4.345 -1.1302  1.1194  1.4214
 4339SOL     OW13850   4.410   3.088   5.379  0.4362  0.4157 -0.0401
 4339SOL    HW113851   4.450   3.035   5.448 -2.0737  1.3147  2.2909
 4339SOL    HW213852   4.432   3.178   5.402  1.7228  0.6394 -1.9586
 4340SOL     OW13853   1.951   1.661   7.409  0.4959  0.4507  0.0479
 4340SOL    HW113854   1.965   1.678   7.502 -2.1986  1.0934  0.4264
 4340SOL    HW213855   1.985   1.572   7.396  1.4752  0.5728  1.4861
 4341SOL     OW13856   3.476   7.442   7.628  0.2228  0.1148  0.1234
 4341SOL    HW113857   3.545   7.451   7.693  0.0432 -0.0849  0.3440
 4341SOL    HW213858   3.456   7.349   7.626 -0.5067  0.2579  0.5549
 4342SOL     OW13859   0.623   5.562   6.577 -0.0819 -0.7833 -0.1175
 4342SOL    HW113860   0.688   5.535   6.642  1.4360  0.9206 -0.8475
 4342SOL    HW213861   0.574   5.632   6.621 -1.5271 -2.0916  0.4472
 4343SOL     OW13862   3.384   3.265   3.272 -0.1134 -0.0425  0.1336
 4343SOL    HW113863   3.445   3.261   3.198 -0.7432  1.0008 -0.4622
 4343SOL    HW213864   3.346   3.177   3.277  2.8072 -1.3721  1.7553
 4344SOL     OW13865   4.396   2.546   1.057 -0.1768  1.0155  0.1215
 4344SOL    HW113866   4.432   2.461   1.082  1.2856  1.1187 -1.4934
 4344SOL    HW213867   4.308   2.526   1.025  0.4811 -0.0483 -1.1263
 4345SOL     OW13868   5.410   4.117   3.301  0.0229  0.5363  0.2865
 4345SOL    HW113869   5.472   4.053   3.336  0.1151 -1.0758 -2.5452
 4345SOL    HW213870   5.333   4.110   3.358  1.0157 -0.1454  1.5961
 4346SOL     OW13871   1.955   6.866   2.575 -0.1595  0.4507 -0.0214
 4346SOL    HW113872   1.940   6.883   2.482  0.1531  0.1583 -0.1277
 4346SOL    HW213873   2.005   6.941   2.606  0.6026  0.0723 -0.3232
 4347SOL     OW13874   2.074   6.014   1.279 -0.7073 -0.1244  0.6962
 4347SOL    HW113875   2.071   6.029   1.373 -0.2656  0.8772  0.5584
 4347SOL    HW213876   2.165   5.987   1.262 -0.6238  0.2854  0.4765
 4348SOL     OW13877   7.430   1.713   1.243 -0.1751  0.0775  0.2176
 4348SOL    HW113878   7.502   1.664   1.201 -0.6081  0.5522 -1.1329
 4348SOL    HW213879   7.469   1.797   1.266  0.1980 -0.3674  1.2595
 4349SOL     OW13880   5.888   0.114   5.522  0.1458 -0.3290 -0.2873
 4349SOL    HW113881   5.921   0.183   5.464  1.8618 -0.0415  0.9404
 4349SOL    HW213882   5.811   0.151   5.564 -0.3234 -0.0540 -1.3761
 4350SOL     OW13883   6.209   1.562   0.460 -0.6679  0.3443  0.5977
 4350SOL    HW113884   6.174   1.473   0.446 -2.4222  0.7757  1.8533
 4350SOL    HW213885   6.179   1.611   0.384  2.0215 -0.5170 -1.1518
 4351SOL     OW13886   6.940   1.197   5.810  0.2818 -0.4082 -0.1207
 4351SOL    HW113887   6.982   1.247   5.880  0.4752 -0.9802  0.1771
 4351SOL    HW213888   6.894   1.263   5.758  0.1076  0.0202  0.5633
 4352SOL     OW13889   3.066   6.167   5.836 -0.2671 -0.4144  0.4939
 4352SOL    HW113890   3.148   6.204   5.804 -1.6558  2.1945 -0.3630
 4352SOL    HW213891   3.088   6.130   5.922  1.3470  2.6111  1.5428
 4353SOL     OW13892   6.457   7.914   5.301  0.3344  0.4442  0.2623
 4353SOL    HW113893   6.398   7.960   5.360  0.6921 -0.1755  1.1283
 4353SOL    HW213894   6.402   7.850   5.256  0.2769  0.1283  0.7813
 4354SOL     OW13895   5.740   5.565   3.787  0.8010 -0.2675 -0.5216
 4354SOL    HW113896   5.813   5.531   3.839  1.1838 -1.5510 -1.8363
 4354SOL    HW213897   5.770   5.558   3.696 -1.0853 -1.2101 -1.1212
 4355SOL     OW13898   5.480   2.817   4.138 -0.1846 -0.1138  0.1512
 4355SOL    HW113899   5.437   2.893   4.099  1.4513 -0.4623 -2.6511
 4355SOL    HW213900   5.424   2.743   4.115  0.3782 -0.2231 -0.9244
 4356SOL     OW13901   0.468   4.745   2.057 -0.0660 -0.1596  0.3778
 4356SOL    HW113902   0.405   4.725   1.987 -0.3938 -1.4995  1.0124
 4356SOL    HW213903   0.463   4.669   2.115  1.4453  0.1494  0.9540
 4357SOL     OW13904   0.075   5.545   5.239  0.0458 -0.0694  0.2453
 4357SOL    HW113905   0.159   5.587   5.222  1.1988 -2.0750  0.6106
 4357SOL    HW213906   0.080   5.515   5.330 -0.3076 -1.7672 -0.2489
 4358SOL     OW13907   0.069   4.925   0.089  0.0379 -0.4468 -0.1804
 4358SOL    HW113908   0.106   5.009   0.060  0.1352 -0.5146 -0.2557
 4358SOL    HW213909   0.013   4.948   0.164 -0.3610 -0.2457 -0.5359
 4359SOL     OW13910   0.563   5.047   4.986  0.0157  0.2371  0.8061
 4359SOL    HW113911   0.549   5.129   5.034 -0.0246  0.2900  0.7057
 4359SOL    HW213912   0.640   5.064   4.931  1.0612 -0.3615  2.0425
 4360SOL     OW13913   5.195   0.292   3.940 -0.4008  0.2347  0.0268
 4360SOL    HW113914   5.239   0.244   3.870 -0.3090  0.0967  0.1796
 4360SOL    HW213915   5.258   0.359   3.966  0.2915 -0.8130  1.1834
 4361SOL     OW13916   4.188   4.235   4.977  0.3642  0.7451 -0.3017
 4361SOL    HW113917   4.094   4.241   4.959  0.6951  2.3441 -1.6634
 4361SOL    HW213918   4.194   4.237   5.073 -1.0479 -1.0597 -0.1121
 4362SOL     OW13919   2.278   7.781   2.854  0.0536  0.8513  0.0805
 4362SOL    HW113920   2.342   7.800   2.922 -0.3823  1.1657  0.4112
 4362SOL    HW213921   2.285   7.854   2.792  2.3178 -0.7085 -1.6801
 4363SOL     OW13922   6.697   4.848   0.766 -0.0577  0.1130 -0.0454
 4363SOL    HW113923   6.745   4.860   0.685 -1.5897  0.5046 -0.9397
 4363SOL    HW213924   6.733   4.768   0.805 -0.5716 -1.1867 -2.0838
 4364SOL     OW13925   2.893   1.129   6.001 -0.0138  0.1059  0.5289
 4364SOL    HW113926   2.959   1.119   5.932 -0.1964 -0.7364  0.4657
 4364SOL    HW213927   2.839   1.050   5.994 -0.5549  0.4218  1.0824
 4365SOL     OW13928   2.428   4.131   3.472  0.1504  0.2298 -0.0831
 4365SOL    HW113929   2.470   4.058   3.517 -2.0673 -2.0292 -1.3571
 4365SOL    HW213930   2.351   4.151   3.526 -0.5865 -0.1099 -0.9663
 4366SOL     OW13931   3.647   4.921   6.055 -0.0922 -0.1038  0.1551
 4366SOL    HW113932   3.664   4.921   6.149 -1.4773 -0.3265  0.4209
 4366SOL    HW213933   3.730   4.892   6.016  0.3599 -0.4582  1.3274
 4367SOL     OW13934   3.596   4.365   2.883  0.1154 -0.1000  0.2208
 4367SOL    HW113935   3.501   4.379   2.882  0.5302  4.2608 -2.4244
 4367SOL    HW213936   3.628   4.422   2.952  0.9805  1.0675 -1.1010
 4368SOL     OW13937   0.056   1.078   2.350 -0.5020 -0.0375  0.7194
 4368SOL    HW113938   0.110   1.088   2.272  1.3653  1.4596  2.1270
 4368SOL    HW213939   0.014   1.163   2.362  0.4356  0.2617  2.1440
 4369SOL     OW13940   5.072   0.058   7.673 -0.4057  0.2409 -0.1685
 4369SOL    HW113941   5.091   0.121   7.742  0.2398 -0.0358 -0.0909
 4369SOL    HW213942   5.118  -0.022   7.699 -1.2775 -0.2965 -0.2230
 4370SOL     OW13943   4.333   1.794   2.169 -0.2086 -0.2126 -0.0270
 4370SOL    HW113944   4.348   1.865   2.107  1.2303  0.0374  0.5470
 4370SOL    HW213945   4.238   1.790   2.179 -0.3754  0.8303 -0.9775
 4371SOL     OW13946   5.981   5.347   7.429 -0.1964 -0.0397  0.0446
 4371SOL    HW113947   6.061   5.400   7.432  0.9437 -1.7340  1.1178
 4371SOL    HW213948   5.914   5.407   7.396  1.1245  1.9207  0.7567
 4372SOL     OW13949   2.683   4.777   5.183  0.3794 -0.0464  0.4772
 4372SOL    HW113950   2.668   4.761   5.090  2.4667  0.0210  0.0736
 4372SOL    HW213951   2.654   4.867   5.197  2.2349  0.8210 -0.7346
 4373SOL     OW13952   1.453   7.391   0.012  0.2605  0.3221  0.1901
 4373SOL    HW113953   1.430   7.474   0.054  0.4829  0.9985 -1.0006
 4373SOL    HW213954   1.543   7.374   0.040  1.1922  1.8685 -1.6429
 4374SOL     OW13955   0.509   0.026   5.877  0.1302 -0.1886 -0.5211
 4374SOL    HW113956   0.520  -0.031   5.801  0.3240 -2.1848  0.9387
 4374SOL    HW213957   0.424   0.002   5.914  0.6269 -0.1953  0.6518
 4375SOL     OW13958   6.037   3.657   1.312  0.0252 -0.1049  0.4941
 4375SOL    HW113959   5.997   3.668   1.398  0.2048 -1.3266  0.7615
 4375SOL    HW213960   6.117   3.709   1.316  1.1277 -1.7726  1.8575
 4376SOL     OW13961   2.126   3.717   0.163  0.0153  0.2946  0.2417
 4376SOL    HW113962   2.193   3.776   0.127 -0.2564 -0.8748 -2.4017
 4376SOL    HW213963   2.054   3.721   0.101 -0.9364 -1.1212  1.1886
 4377SOL     OW13964   6.087   4.337   3.771  0.2009  0.1466  0.4511
 4377SOL    HW113965   6.077   4.252   3.815 -2.6986  0.2032  0.0731
 4377SOL    HW213966   6.064   4.401   3.838 -2.3753  0.3243 -0.5005
 4378SOL     OW13967   1.983   1.735   4.765 -0.4538 -0.3041 -0.1535
 4378SOL    HW113968   2.014   1.803   4.826 -1.4131 -0.1875  0.2130
 4378SOL    HW213969   2.042   1.661   4.781 -0.0569  0.0739  0.1876
 4379SOL     OW13970   7.913   5.176   7.845  0.6115 -0.4787  0.4458
 4379SOL    HW113971   7.902   5.250   7.785 -0.8848 -1.5379 -0.6994
 4379SOL    HW213972   7.842   5.185   7.908  1.0023 -0.4397  0.8885
 4380SOL     OW13973   5.004   1.441   5.123  0.0016  0.1291  0.4557
 4380SOL    HW113974   5.031   1.520   5.170 -0.4704 -0.6513  2.1334
 4380SOL    HW213975   4.928   1.468   5.072  1.1292  1.2436 -0.7044
 4381SOL     OW13976   7.893   6.484   7.489 -0.5607  0.1108  0.3713
 4381SOL    HW113977   7.858   6.560   7.536  1.0980  1.3993 -0.3400
 4381SOL    HW213978   7.871   6.500   7.397  1.3269  0.7115 -0.0232
 4382SOL     OW13979   3.472   3.141   2.875  0.0263 -0.5134  0.3264
 4382SOL    HW113980   3.457   3.059   2.829  3.7070  0.2058 -2.6302
 4382SOL    HW213981   3.501   3.115   2.962  0.6805 -2.3315 -0.3891
 4383SOL     OW13982   5.466   1.994   0.587 -0.1262  0.0657  0.0331
 4383SOL    HW113983   5.420   1.910   0.597  1.9419 -1.0324  0.9940
 4383SOL    HW213984   5.428   2.050   0.654 -2.1855  0.2598 -1.2218
 4384SOL     OW13985   5.501   3.873   0.575 -0.1305  0.2189 -0.4624
 4384SOL    HW113986   5.407   3.876   0.594 -0.2466  0.1492 -1.0225
 4384SOL    HW213987   5.542   3.905   0.655 -0.6371  0.4111 -0.2740
 4385SOL     OW13988   4.806   0.245   7.301  0.1079  0.0325 -0.5709
 4385SOL    HW113989   4.849   0.254   7.386 -0.4444  1.5580 -0.4176
 4385SOL    HW213990   4.854   0.175   7.257  0.6099 -0.5605  0.8622
 4386SOL     OW13991   7.671   1.578   3.173 -0.0760 -0.4219 -0.1826
 4386SOL    HW113992   7.636   1.625   3.097  1.4286 -0.7432 -1.1087
 4386SOL    HW213993   7.660   1.640   3.246  1.7882  1.4084 -1.3451
 4387SOL     OW13994   2.846   6.363   5.326 -0.1338 -0.0993  0.4920
 4387SOL    HW113995   2.830   6.457   5.318 -1.0961 -0.2443  0.5273
 4387SOL    HW213996   2.924   6.356   5.381 -1.1390  0.6601  2.0864
 4388SOL     OW13997   2.158   1.605   1.623  0.6008 -0.0138 -0.4388
 4388SOL    HW113998   2.107   1.682   1.597 -0.4846 -0.0073  1.5322
 4388SOL    HW213999   2.214   1.636   1.694  0.3473 -0.9386  0.1955
 4389SOL     OW14000   3.064   0.196   2.003 -0.1921 -0.8927  0.4001
 4389SOL    HW114001   3.049   0.287   1.978  0.7042 -0.9904 -0.5696
 4389SOL    HW214002   2.985   0.171   2.051 -0.2462  0.5277  1.1044
 4390SOL     OW14003   7.338   3.387   7.374 -0.6954 -0.1851 -0.0975
 4390SOL    HW114004   7.298   3.372   7.460  0.9025  2.4231  1.2149
 4390SOL    HW214005   7.277   3.446   7.329 -0.8519 -0.4287 -0.2076
 4391SOL     OW14006   5.365   2.947   2.156  0.4770 -0.2399 -0.2813
 4391SOL    HW114007   5.286   2.912   2.197  0.6255 -0.7990 -0.4733
 4391SOL    HW214008   5.416   2.982   2.229  0.4775 -0.7217 -0.0451
 4392SOL     OW14009   4.501   4.588   2.707  0.1009  0.3991 -0.2947
 4392SOL    HW114010   4.417   4.583   2.660 -0.6415 -0.0394  1.0165
 4392SOL    HW214011   4.531   4.678   2.693  0.3525  0.0694 -2.2801
 4393SOL     OW14012   2.217   1.209   3.996  0.0651 -0.1827  0.7812
 4393SOL    HW114013   2.294   1.201   3.940  1.0888 -0.3168  2.1514
 4393SOL    HW214014   2.190   1.119   4.013  0.5596 -0.1999  1.5366
 4394SOL     OW14015   5.306   5.805   7.919 -0.6857 -0.1714 -0.4302
 4394SOL    HW114016   5.373   5.744   7.949  0.5483  0.6893 -1.3450
 4394SOL    HW214017   5.253   5.823   7.997 -1.2852 -2.6096 -0.2113
 4395SOL     OW14018   2.557   1.813   1.459 -0.9338  0.4593  0.8817
 4395SOL    HW114019   2.463   1.800   1.445 -1.3627  3.3427  0.3867
 4395SOL    HW214020   2.562   1.894   1.511  1.3006  0.8482  0.1511
 4396SOL     OW14021   3.844   7.127   2.239  0.1537 -0.3679 -0.6119
 4396SOL    HW114022   3.938   7.128   2.258  0.0126  2.5572  0.3078
 4396SOL    HW214023   3.803   7.102   2.322  0.0818 -1.3098 -0.9222
 4397SOL     OW14024   4.245   0.449   7.720  0.5703  0.5352 -0.2048
 4397SOL    HW114025   4.287   0.493   7.646  1.8469 -1.1596 -0.5546
 4397SOL    HW214026   4.309   0.382   7.748 -0.6944 -0.1664  1.1675
 4398SOL     OW14027   2.034   2.752   0.748  0.1402 -0.5211  0.1202
 4398SOL    HW114028   1.988   2.738   0.831  0.5863 -0.7954  0.3256
 4398SOL    HW214029   1.983   2.701   0.684  0.6173 -1.5081  0.5008
 4399SOL     OW14030   1.875   2.043   0.207 -0.7616 -0.4698 -0.3554
 4399SOL    HW114031   1.796   2.092   0.187  0.5022  1.4079 -1.0097
 4399SOL    HW214032   1.891   2.060   0.300 -0.2616  0.4808 -0.6098
 4400SOL     OW14033   0.348   6.142   2.493 -0.0230  0.3917 -0.3319
 4400SOL    HW114034   0.365   6.153   2.587  1.6845  2.1736 -0.7846
 4400SOL    HW214035   0.337   6.048   2.481 -0.0408  0.1009  1.5989
 4401SOL     OW14036   6.194   4.704   6.188  0.6991  0.2220 -0.1867
 4401SOL    HW114037   6.280   4.678   6.219  1.0935  2.0397  0.3645
 4401SOL    HW214038   6.183   4.658   6.105  2.5954  0.6390 -0.7040
 4402SOL     OW14039   2.106   1.691   6.815  0.0022 -0.4111  0.5702
 4402SOL    HW114040   2.122   1.737   6.897  0.2555 -0.7613  0.7214
 4402SOL    HW214041   2.112   1.759   6.748  1.2618 -0.3551  0.7099
 4403SOL     OW14042   5.942   6.958   4.838  0.5464  0.5377  0.3879
 4403SOL    HW114043   5.936   7.052   4.824  0.0779  0.2520 -1.8489
 4403SOL    HW214044   6.031   6.935   4.811  0.0600  0.1273 -0.9727
 4404SOL     OW14045   4.718   1.689   0.754  0.1378 -0.1216  0.6652
 4404SOL    HW114046   4.721   1.662   0.845 -0.3073 -0.3470  0.6156
 4404SOL    HW214047   4.717   1.607   0.704 -0.3435 -0.0107  0.4836
 4405SOL     OW14048   0.782   5.110   4.801  0.2714 -0.3904  0.8250
 4405SOL    HW114049   0.831   5.192   4.793 -0.0838 -0.2666 -0.2807
 4405SOL    HW214050   0.849   5.042   4.804  0.5437 -0.1263  0.7458
 4406SOL     OW14051   1.984   3.526   2.823  0.6065 -0.1950 -0.4254
 4406SOL    HW114052   2.040   3.468   2.875 -0.3633 -1.1533 -0.4096
 4406SOL    HW214053   1.949   3.470   2.754 -2.1099 -0.2629  0.8735
 4407SOL     OW14054   6.335   2.122   6.494  0.0294  0.0839 -0.4122
 4407SOL    HW114055   6.284   2.166   6.561  1.0817  1.2329 -0.3297
 4407SOL    HW214056   6.425   2.123   6.527  0.8252  1.9151 -2.3821
 4408SOL     OW14057   2.049   1.805   5.426 -0.2836  0.2046  0.0815
 4408SOL    HW114058   2.015   1.725   5.468 -0.8450  1.5044  2.3027
 4408SOL    HW214059   2.135   1.818   5.465  0.9812 -0.6965 -2.2692
 4409SOL     OW14060   6.172   1.075   2.912 -0.3271 -0.1342  0.2670
 4409SOL    HW114061   6.218   0.997   2.943  0.3997  0.5512  0.9866
 4409SOL    HW214062   6.165   1.131   2.990 -0.2208  0.8003 -0.3702
 4410SOL     OW14063   0.383   6.964   2.254  0.3566 -0.0062  0.2022
 4410SOL    HW114064   0.381   7.059   2.258 -3.4407  0.0815  0.0050
 4410SOL    HW214065   0.308   6.936   2.307  0.0517 -2.7686 -1.4989
 4411SOL     OW14066   2.749   4.972   3.766  0.4525  0.1322 -0.1903
 4411SOL    HW114067   2.745   4.883   3.731 -1.4024  0.2216 -0.3318
 4411SOL    HW214068   2.753   5.029   3.688 -1.2847  0.2464 -0.2281
 4412SOL     OW14069   1.517   3.077   4.780 -0.5033 -0.2229 -0.0153
 4412SOL    HW114070   1.510   3.010   4.847  1.3547  0.7315  1.2224
 4412SOL    HW214071   1.611   3.087   4.765 -0.7928  1.0783 -1.2051
 4413SOL     OW14072   0.302   5.165   6.174 -0.1439  0.1973  0.5003
 4413SOL    HW114073   0.350   5.245   6.200 -1.9840  1.2505  0.8035
 4413SOL    HW214074   0.354   5.129   6.103  0.5822  1.8510  0.1390
 4414SOL     OW14075   7.208   4.012   4.518 -0.1150  0.1849  0.1296
 4414SOL    HW114076   7.231   3.919   4.524  2.1090  0.7392  1.3147
 4414SOL    HW214077   7.269   4.048   4.454  1.1333  1.3410  1.8707
 4415SOL     OW14078   0.842   3.878   5.921  0.3668 -0.0720 -0.3244
 4415SOL    HW114079   0.798   3.866   6.004 -1.2957  1.8278 -0.8647
 4415SOL    HW214080   0.802   3.814   5.863 -0.2097  0.2309 -0.2668
 4416SOL     OW14081   1.752   3.247   6.225 -0.5555 -0.1619  0.2114
 4416SOL    HW114082   1.810   3.227   6.299 -1.3379  0.2715  0.9653
 4416SOL    HW214083   1.729   3.161   6.189  0.0132 -0.3687  0.3228
 4417SOL     OW14084   2.425   6.029   2.635  0.0945  0.4281  0.2190
 4417SOL    HW114085   2.520   6.018   2.623 -0.0043 -1.0083  0.5382
 4417SOL    HW214086   2.391   6.033   2.546  0.3651 -0.0080  0.0908
 4418SOL     OW14087   0.168   1.145   5.496 -0.6025 -0.2623  0.1779
 4418SOL    HW114088   0.076   1.149   5.521 -0.7359  0.2478 -0.3724
 4418SOL    HW214089   0.188   1.234   5.465 -0.5434 -0.9319 -1.8431
 4419SOL     OW14090   2.093   5.735   6.723  0.0289  0.5188  0.3802
 4419SOL    HW114091   2.031   5.758   6.654 -0.3675 -2.4183 -0.3364
 4419SOL    HW214092   2.058   5.778   6.801 -2.9046 -0.8850 -0.0439
 4420SOL     OW14093   4.109   5.564   2.554  0.3668 -0.2510 -0.9415
 4420SOL    HW114094   4.156   5.545   2.635 -1.0748 -1.1699 -0.2549
 4420SOL    HW214095   4.114   5.482   2.504 -0.7905 -0.5207 -0.6653
 4421SOL     OW14096   4.076   2.730   3.881  0.2087  0.0362  0.1377
 4421SOL    HW114097   4.012   2.713   3.950 -1.2469 -0.7378 -1.3285
 4421SOL    HW214098   4.121   2.647   3.869 -1.6433 -0.7627 -1.8439
 4422SOL     OW14099   0.353   0.364   6.752  0.3623  0.2906  0.8196
 4422SOL    HW114100   0.357   0.365   6.847  2.1358  3.2806  0.8259
 4422SOL    HW214101   0.271   0.319   6.732 -1.6521  2.2211  3.8744
 4423SOL     OW14102   7.585   4.633   1.922  0.1588  0.1744 -0.1277
 4423SOL    HW114103   7.628   4.556   1.886  0.1535 -0.0567  0.3452
 4423SOL    HW214104   7.654   4.699   1.928  0.2605  0.0690 -0.1367
 4424SOL     OW14105   0.175   3.156   2.859 -0.0688  0.7751 -0.0265
 4424SOL    HW114106   0.245   3.142   2.923 -0.2429 -1.9189 -0.2944
 4424SOL    HW214107   0.111   3.088   2.878 -0.4712  0.3300 -2.5549
 4425SOL     OW14108   3.479   4.180   7.924 -0.5894 -0.2272  0.1685
 4425SOL    HW114109   3.546   4.128   7.879  0.0753  0.1393  0.7192
 4425SOL    HW214110   3.522   4.210   8.004 -1.1008  0.8278  0.0597
 4426SOL     OW14111   2.686   5.621   3.477  0.5784 -0.8071  0.4132
 4426SOL    HW114112   2.702   5.666   3.560  0.3532 -2.0852  1.1665
 4426SOL    HW214113   2.610   5.666   3.439  1.7060  0.8982  0.0415
 4427SOL     OW14114   7.378   4.317   7.279 -0.0393 -0.2020  0.1619
 4427SOL    HW114115   7.454   4.309   7.337  0.3288  2.2493  0.1117
 4427SOL    HW214116   7.318   4.374   7.326 -1.2848 -1.0084 -0.4095
 4428SOL     OW14117   6.389   6.560   1.995  0.8161 -0.2581 -0.4003
 4428SOL    HW114118   6.326   6.569   1.924  0.2161 -1.5142 -0.0407
 4428SOL    HW214119   6.340   6.586   2.073  1.2773  0.4581 -0.3370
 4429SOL     OW14120   2.815   6.449   6.102  0.6032  0.0771  0.3140
 4429SOL    HW114121   2.831   6.458   6.196  0.2534  2.0113  0.2306
 4429SOL    HW214122   2.894   6.484   6.061  1.4499 -2.2424 -0.1612
 4430SOL     OW14123   6.710   0.448   3.999 -0.2839 -0.0257  0.1783
 4430SOL    HW114124   6.746   0.428   3.913 -0.1990  0.3213  0.1315
 4430SOL    HW214125   6.670   0.366   4.028  2.9354 -1.3279  1.4427
 4431SOL     OW14126   3.676   0.987   1.562 -0.0390 -0.4972  0.3808
 4431SOL    HW114127   3.711   1.034   1.487  0.0766 -0.6545  0.3352
 4431SOL    HW214128   3.691   0.894   1.541  0.5753 -0.5135  0.8884
 4432SOL     OW14129   1.487   4.910   0.261  0.0359 -0.2843  0.1071
 4432SOL    HW114130   1.463   4.996   0.228  0.6641  0.1024  0.6209
 4432SOL    HW214131   1.556   4.928   0.326  0.3196 -1.1887  0.0669
 4433SOL     OW14132   7.473   6.493   7.555  0.3738  0.3905 -0.1644
 4433SOL    HW114133   7.491   6.424   7.618 -0.7459 -0.2642 -0.5293
 4433SOL    HW214134   7.417   6.452   7.489 -0.5883  1.7123 -0.2189
 4434SOL     OW14135   5.684   3.437   3.153 -0.2990  0.0518  0.1736
 4434SOL    HW114136   5.776   3.459   3.168 -0.0982 -1.1709  0.8913
 4434SOL    HW214137   5.685   3.387   3.070 -0.3318  0.1463  0.1164
 4435SOL     OW14138   2.861   7.510   7.219  0.0454 -0.0369 -0.5201
 4435SOL    HW114139   2.884   7.486   7.129 -0.1121 -0.3764 -0.4716
 4435SOL    HW214140   2.896   7.598   7.230 -0.4744  0.2521 -1.1254
 4436SOL     OW14141   5.541   0.103   4.504  0.0977  0.2313 -0.3304
 4436SOL    HW114142   5.604   0.031   4.512  1.5477  1.6096  1.6991
 4436SOL    HW214143   5.545   0.129   4.413  0.1369 -1.6952 -0.9293
 4437SOL     OW14144   3.540   7.265   2.170  0.8902  0.4362  0.0236
 4437SOL    HW114145   3.450   7.248   2.142  0.8184  0.8514  0.0043
 4437SOL    HW214146   3.582   7.179   2.170  0.4702  0.2312  0.1057
 4438SOL     OW14147   0.909   7.641   6.088  0.4243 -0.1172 -0.0183
 4438SOL    HW114148   0.998   7.605   6.077  0.0386 -1.7685  1.7139
 4438SOL    HW214149   0.877   7.601   6.169 -1.3309  1.6961  0.2515
 4439SOL     OW14150   0.797   6.240   4.816  0.4209  0.3756 -0.1075
 4439SOL    HW114151   0.820   6.309   4.755 -2.7779  1.7356  0.0174
 4439SOL    HW214152   0.742   6.180   4.766  0.3305 -0.2038  0.6573
 4440SOL     OW14153   4.419   3.617   3.406  0.0827 -0.1371  0.0725
 4440SOL    HW114154   4.406   3.711   3.395 -0.6940  0.0195  1.9622
 4440SOL    HW214155   4.358   3.592   3.475  0.7281 -1.9218  0.0566
 4441SOL     OW14156   6.251   1.475   5.613  0.0259  0.4544  0.1956
 4441SOL    HW114157   6.343   1.466   5.640 -0.3716 -0.5028  1.2854
 4441SOL    HW214158   6.256   1.518   5.527  1.4454  1.2673  0.6440
 4442SOL     OW14159   2.674   7.604   6.947  0.5860  0.1755  0.0421
 4442SOL    HW114160   2.667   7.520   6.992 -0.4703 -0.1603 -0.7047
 4442SOL    HW214161   2.685   7.580   6.855 -1.1085  0.8400 -0.3558
 4443SOL     OW14162   0.035   2.327   5.233  0.2526  0.1700  0.1465
 4443SOL    HW114163  -0.044   2.361   5.275  0.1923  0.2483 -0.0277
 4443SOL    HW214164   0.018   2.234   5.222  1.4292 -0.4893  2.9489
 4444SOL     OW14165   0.735   5.477   1.789 -0.1963  0.3606 -0.3707
 4444SOL    HW114166   0.697   5.519   1.712  0.1314 -0.2909 -0.8991
 4444SOL    HW214167   0.751   5.386   1.761  0.2098  0.2013  0.3651
 4445SOL     OW14168   3.943   2.363   4.632  0.1757 -0.3293  0.0780
 4445SOL    HW114169   3.916   2.388   4.720  1.0462  0.4649  0.1329
 4445SOL    HW214170   3.869   2.314   4.597  0.1433 -1.4060  1.5633
 4446SOL     OW14171   0.590   7.863   6.963 -0.0308 -0.0869  0.8213
 4446SOL    HW114172   0.659   7.859   6.897 -0.5139  1.6140  0.1646
 4446SOL    HW214173   0.619   7.929   7.025 -0.6050 -0.0731  1.0839
 4447SOL     OW14174   1.630   2.129   0.148  0.5719  0.1022  0.6970
 4447SOL    HW114175   1.605   2.083   0.068  1.7903 -0.1539  0.4358
 4447SOL    HW214176   1.557   2.116   0.208 -0.1493 -0.1105 -0.2099
 4448SOL     OW14177   4.327   4.702   0.593  0.2224  0.0017  0.6178
 4448SOL    HW114178   4.235   4.689   0.616  0.3031  0.8059  1.4913
 4448SOL    HW214179   4.363   4.614   0.586 -0.7439 -0.3323 -0.2951
 4449SOL     OW14180   7.792   5.413   3.662 -0.3173  0.5168  0.4399
 4449SOL    HW114181   7.824   5.417   3.752  1.1863  0.8233 -0.0866
 4449SOL    HW214182   7.743   5.331   3.658  0.3450  0.0622  1.2949
 4450SOL     OW14183   3.428   4.624   6.125 -0.1919 -0.3215  0.1066
 4450SOL    HW114184   3.423   4.622   6.029 -1.0344 -1.3119  0.1599
 4450SOL    HW214185   3.365   4.692   6.151 -0.8409 -0.8652 -0.0060
 4451SOL     OW14186   5.623   6.821   1.062 -0.2874  0.5641 -0.3373
 4451SOL    HW114187   5.568   6.745   1.043  0.0130  0.3502 -0.3680
 4451SOL    HW214188   5.686   6.789   1.126 -0.1566  0.7893 -0.3524
 4452SOL     OW14189   4.593   6.499   5.309  0.9612 -0.4162  0.0179
 4452SOL    HW114190   4.601   6.594   5.312 -0.1821 -0.3255  0.5350
 4452SOL    HW214191   4.676   6.467   5.345 -0.1831  0.4267  3.7923
 4453SOL     OW14192   0.563   3.442   4.577  0.0818 -0.2708  0.4357
 4453SOL    HW114193   0.487   3.497   4.557  0.8874  1.4721  1.8831
 4453SOL    HW214194   0.600   3.422   4.491  0.7662  3.0195 -0.1755
 4454SOL     OW14195   6.822   5.924   7.335  0.2699 -0.2237 -0.2080
 4454SOL    HW114196   6.876   5.994   7.298 -0.0254 -0.9063 -2.0537
 4454SOL    HW214197   6.876   5.845   7.329  0.6706 -0.1704  2.0270
 4455SOL     OW14198   7.787   2.497   6.721  0.5079 -0.3449  0.0399
 4455SOL    HW114199   7.825   2.585   6.718  1.5625 -0.8136 -1.1562
 4455SOL    HW214200   7.756   2.487   6.811 -0.5591  1.6196 -0.0714
 4456SOL     OW14201   0.236   1.805   4.736  0.3709  0.2116 -0.6568
 4456SOL    HW114202   0.264   1.734   4.793 -0.8534  2.1353  2.6116
 4456SOL    HW214203   0.152   1.775   4.700 -1.7508  0.9633  3.1385
 4457SOL     OW14204   5.330   0.741   4.805 -0.1818 -0.2334 -0.4079
 4457SOL    HW114205   5.311   0.739   4.899  0.3850  2.2056 -0.1616
 4457SOL    HW214206   5.425   0.729   4.799 -0.2573 -0.7049 -0.7011
 4458SOL     OW14207   1.774   6.639   2.588  0.1183 -0.5819  0.3359
 4458SOL    HW114208   1.698   6.678   2.630 -0.6860 -0.6631 -1.0083
 4458SOL    HW214209   1.839   6.710   2.585 -0.4044 -0.1061  0.2213
 4459SOL     OW14210   5.372   1.425   0.545  0.1990 -0.8805  0.0768
 4459SOL    HW114211   5.445   1.463   0.496 -1.2994  3.1512  0.5573
 4459SOL    HW214212   5.309   1.399   0.477 -0.1169  0.7636 -0.3081
 4460SOL     OW14213   0.198   3.350   1.727 -0.7296  0.3492 -0.2815
 4460SOL    HW114214   0.249   3.338   1.808 -0.9963  0.6286 -0.0735
 4460SOL    HW214215   0.156   3.265   1.713  1.2937 -0.5358 -1.5036
 4461SOL     OW14216   1.943   0.874   6.426  0.4971  0.2118 -0.0806
 4461SOL    HW114217   1.879   0.887   6.495  1.2946 -0.5910  0.8326
 4461SOL    HW214218   1.994   0.954   6.425 -0.2110  0.6709 -0.5054
 4462SOL     OW14219   6.117   0.763   3.635  0.2579  0.0846 -0.2971
 4462SOL    HW114220   6.028   0.731   3.619  0.0209  1.3772 -1.7300
 4462SOL    HW214221   6.127   0.758   3.730 -1.5366  0.3898 -0.0511
 4463SOL     OW14222   0.197   6.683   1.067  0.1964  0.5495 -0.1878
 4463SOL    HW114223   0.124   6.731   1.106 -0.2090 -0.5323  0.4385
 4463SOL    HW214224   0.171   6.670   0.976 -0.8149 -0.5575  0.2276
 4464SOL     OW14225   6.125   4.406   1.198  0.7317  0.4331  0.3733
 4464SOL    HW114226   6.176   4.394   1.278 -1.6060  0.0320  1.8988
 4464SOL    HW214227   6.088   4.494   1.206  1.4929  0.9001 -0.9368
 4465SOL     OW14228   1.258   5.834   5.143  0.0771  0.3343  0.1316
 4465SOL    HW114229   1.220   5.834   5.231  0.3536 -1.3048  0.2887
 4465SOL    HW214230   1.298   5.920   5.134  1.0061  0.1512  2.0471
 4466SOL     OW14231   5.490   1.830   4.677  0.8890  0.0026  0.1443
 4466SOL    HW114232   5.464   1.880   4.599  0.4690 -0.3650  0.0436
 4466SOL    HW214233   5.579   1.859   4.696  0.5937  0.9288  0.1943
 4467SOL     OW14234   5.742   5.178   6.296 -0.7375 -0.0893 -0.1523
 4467SOL    HW114235   5.731   5.086   6.318 -1.4912  0.1105  0.3389
 4467SOL    HW214236   5.663   5.201   6.248 -1.1440  0.6133  0.8202
 4468SOL     OW14237   0.586   6.460   1.785  0.0646  0.4253 -0.0545
 4468SOL    HW114238   0.547   6.374   1.767  0.8012  0.1173 -0.2256
 4468SOL    HW214239   0.648   6.444   1.857 -0.5803  1.0343  0.6491
 4469SOL     OW14240   2.776   4.049   3.828 -1.0117 -0.0825  0.0519
 4469SOL    HW114241   2.832   4.116   3.789  0.2243 -0.3619  1.2876
 4469SOL    HW214242   2.825   3.967   3.817  0.3784  0.0680  3.8266
 4470SOL     OW14243   4.160   2.247   6.285 -0.0311 -0.1038  0.0215
 4470SOL    HW114244   4.137   2.320   6.227  0.7766  0.3731  0.2859
 4470SOL    HW214245   4.115   2.172   6.248 -2.7131  0.8993  0.9435
 4471SOL     OW14246   4.515   1.714   4.779  0.0797 -0.0163 -0.2847
 4471SOL    HW114247   4.564   1.741   4.857 -0.9018  3.2849 -0.6432
 4471SOL    HW214248   4.536   1.780   4.713 -1.0387 -1.3046 -2.0166
 4472SOL     OW14249   4.760   5.591   3.713  0.0406  0.0338  0.3993
 4472SOL    HW114250   4.752   5.505   3.672  2.6700  0.0824 -0.3828
 4472SOL    HW214251   4.821   5.578   3.785  0.5162  1.2565  0.2444
 4473SOL     OW14252   6.891   3.205   0.555 -0.4298 -0.5776  0.1828
 4473SOL    HW114253   6.868   3.121   0.514 -1.2219  0.1685 -0.9329
 4473SOL    HW214254   6.886   3.269   0.484 -1.1430  0.6334  1.2882
 4474SOL     OW14255   6.655   6.714   6.745  0.3459  0.4819 -0.5705
 4474SOL    HW114256   6.607   6.641   6.785 -0.2620  0.4034 -1.3906
 4474SOL    HW214257   6.674   6.683   6.656  0.5633  1.1091 -0.7458
 4475SOL     OW14258   5.444   2.862   7.936 -0.1691  0.2260  0.0652
 4475SOL    HW114259   5.444   2.944   7.888  0.1650  1.0662  1.4575
 4475SOL    HW214260   5.447   2.887   8.029  2.9293 -1.3411  0.5199
 4476SOL     OW14261   7.805   2.483   2.030  0.0095 -0.2709  0.1379
 4476SOL    HW114262   7.760   2.567   2.029 -1.7195 -1.1273 -0.6290
 4476SOL    HW214263   7.806   2.455   1.938 -0.2608 -1.4535  0.4667
 4477SOL     OW14264   7.899   1.571   4.912 -0.2661  0.0922  0.6582
 4477SOL    HW114265   7.868   1.661   4.901  0.6167  0.2868 -0.4080
 4477SOL    HW214266   7.916   1.563   5.006 -2.0289  0.4539  1.0440
 4478SOL     OW14267   2.077   3.478   7.878  0.0107  0.5043  0.6826
 4478SOL    HW114268   2.172   3.467   7.882 -0.1134 -0.2899  2.1002
 4478SOL    HW214269   2.065   3.562   7.833  1.3053 -0.2319 -1.1776
 4479SOL     OW14270   3.895   5.762   7.727  0.4634  0.0152 -0.1323
 4479SOL    HW114271   3.852   5.813   7.658  2.7053  0.3097 -1.4070
 4479SOL    HW214272   3.964   5.714   7.682  1.1958 -0.7900  1.7312
 4480SOL     OW14273   5.023   2.150   6.349 -0.4105  0.3353  0.2517
 4480SOL    HW114274   5.048   2.086   6.283  1.9179  3.1626 -1.9105
 4480SOL    HW214275   5.102   2.164   6.401 -1.1418  0.8096  1.2851
 4481SOL     OW14276   0.412   5.716   6.659  0.0337 -0.6779  0.0037
 4481SOL    HW114277   0.399   5.809   6.641 -2.6124 -1.0497 -0.4922
 4481SOL    HW214278   0.428   5.711   6.753 -2.5537  0.1552  0.5727
 4482SOL     OW14279   0.598   3.488   0.125  0.3631  0.2473  0.1888
 4482SOL    HW114280   0.543   3.544   0.070 -0.5945 -0.1091  0.7708
 4482SOL    HW214281   0.550   3.479   0.207  0.3502 -1.6281  0.0303
 4483SOL     OW14282   7.844   0.644   7.350  0.1296  0.1915 -0.0794
 4483SOL    HW114283   7.939   0.638   7.336 -0.1061  1.0050 -2.2810
 4483SOL    HW214284   7.811   0.692   7.274 -2.1326 -0.5534  0.3685
 4484SOL     OW14285   6.113   4.963   0.137  0.2688 -0.2619  0.1983
 4484SOL    HW114286   6.200   5.003   0.136  0.9083 -1.5698  0.9354
 4484SOL    HW214287   6.108   4.913   0.056 -0.3357  0.8553 -0.4806
 4485SOL     OW14288   3.085   7.808   4.227  0.3372  0.2530 -0.1073
 4485SOL    HW114289   3.026   7.862   4.174 -0.6833 -1.9117 -1.3047
 4485SOL    HW214290   3.039   7.797   4.310 -1.1341 -1.5439 -1.0853
 4486SOL     OW14291   3.463   4.522   7.111  0.4003 -0.1602 -0.1760
 4486SOL    HW114292   3.490   4.487   7.026  0.2176  0.6855 -0.5919
 4486SOL    HW214293   3.448   4.444   7.165 -0.2971 -0.7389 -1.1654
 4487SOL     OW14294   1.002   1.482   2.499 -0.0139  0.3009  0.5628
 4487SOL    HW114295   1.041   1.395   2.506  1.9013  1.0986  0.3970
 4487SOL    HW214296   1.074   1.543   2.514 -0.6112  1.9086 -2.2340
 4488SOL     OW14297   1.840   1.373   1.807 -0.3572  0.3272 -0.3484
 4488SOL    HW114298   1.781   1.387   1.882  1.4965 -0.4838  1.3441
 4488SOL    HW214299   1.836   1.279   1.790  0.9716  0.1280  0.3001
 4489SOL     OW14300   1.878   6.859   6.731 -0.0881 -0.2458 -0.5750
 4489SOL    HW114301   1.829   6.778   6.743  0.0271 -0.1791  0.4546
 4489SOL    HW214302   1.960   6.832   6.690 -0.4331 -0.5306 -1.0761
 4490SOL     OW14303   1.717   0.169   3.389 -0.6347 -0.0431 -0.4512
 4490SOL    HW114304   1.699   0.099   3.452 -0.2710  0.5015  0.2644
 4490SOL    HW214305   1.636   0.220   3.387 -0.3025  0.5277  0.3434
 4491SOL     OW14306   7.844   1.552   0.798 -0.5149  0.1046  0.0553
 4491SOL    HW114307   7.847   1.570   0.892  1.4050  2.3180 -0.3227
 4491SOL    HW214308   7.898   1.474   0.787  3.8348  2.7049  0.4372
 4492SOL     OW14309   1.305   6.528   3.108 -0.4842  0.1633  1.0201
 4492SOL    HW114310   1.266   6.579   3.036 -1.8218  0.1280  1.6932
 4492SOL    HW214311   1.395   6.561   3.114 -0.3085  0.0889 -0.7306
 4493SOL     OW14312   0.762   7.232   6.582  0.1561 -0.2580  0.8571
 4493SOL    HW114313   0.785   7.157   6.637 -2.1168 -0.4696  1.6491
 4493SOL    HW214314   0.667   7.239   6.592 -0.1805  0.4510 -2.1346
 4494SOL     OW14315   6.243   1.065   7.831  0.3893 -0.1869  0.1546
 4494SOL    HW114316   6.263   1.120   7.756 -0.9935  0.3024  0.1138
 4494SOL    HW214317   6.250   0.975   7.798  2.1194 -0.0657  0.0879
 4495SOL     OW14318   0.204   5.730   7.231  0.1896  0.3427  0.2287
 4495SOL    HW114319   0.200   5.667   7.159 -1.7219 -0.2267  0.7858
 4495SOL    HW214320   0.226   5.677   7.308  0.4290  0.6642  0.3831
 4496SOL     OW14321   2.009   0.060   2.913 -0.5038  0.1935 -0.1780
 4496SOL    HW114322   2.017   0.025   3.002  1.3000  1.3613  0.1830
 4496SOL    HW214323   2.042   0.149   2.920 -1.1116  0.5887 -1.8808
 4497SOL     OW14324   2.323   3.621   0.568 -0.6207 -0.4019 -0.4002
 4497SOL    HW114325   2.227   3.614   0.572 -0.7374  0.8122 -0.6457
 4497SOL    HW214326   2.354   3.533   0.590 -1.7874 -0.7843 -0.1830
 4498SOL     OW14327   7.855   6.728   1.441 -0.0972  0.0582  0.4354
 4498SOL    HW114328   7.941   6.708   1.479 -0.6995  0.3260  2.0493
 4498SOL    HW214329   7.874   6.760   1.353  1.4750  0.2715  0.8160
 4499SOL     OW14330   4.232   2.228   7.820  0.0160 -0.3304 -0.0278
 4499SOL    HW114331   4.231   2.147   7.769  0.3056 -0.0271 -0.5194
 4499SOL    HW214332   4.294   2.285   7.774 -1.4899  0.8232 -0.7011
 4500SOL     OW14333   6.795   7.325   3.256 -0.3052  0.1459 -0.1530
 4500SOL    HW114334   6.773   7.245   3.305 -0.7858  0.9462  0.9814
 4500SOL    HW214335   6.737   7.322   3.180 -1.4484  0.1740  0.6891
 4501SOL     OW14336   6.365   2.254   0.714  0.2737  0.2629 -1.1119
 4501SOL    HW114337   6.301   2.269   0.784 -0.2578  0.7287 -1.6923
 4501SOL    HW214338   6.375   2.339   0.671  1.8782  0.3956 -0.5574
 4502SOL     OW14339   2.140   5.744   4.967  0.0642 -0.1493  0.2183
 4502SOL    HW114340   2.225   5.702   4.984  1.9752  2.7102 -1.3488
 4502SOL    HW214341   2.137   5.818   5.027 -0.2477  1.0540 -1.2086
 4503SOL     OW14342   2.716   7.847   7.034 -0.1095  0.1186  0.3000
 4503SOL    HW114343   2.809   7.834   7.017 -0.3601 -0.4069 -0.7993
 4503SOL    HW214344   2.675   7.768   6.997 -1.0937  0.9400 -0.4121
 4504SOL     OW14345   1.235   6.100   5.324  0.1143  0.0617 -0.2046
 4504SOL    HW114346   1.164   6.065   5.378  0.2551  0.9660  0.6000
 4504SOL    HW214347   1.190   6.150   5.255 -0.0548 -0.7253 -0.6755
 4505SOL     OW14348   1.751   1.951   4.952 -0.1219  0.3926 -0.2909
 4505SOL    HW114349   1.781   2.040   4.934 -0.2367  0.2928 -1.0169
 4505SOL    HW214350   1.818   1.914   5.009  1.3253  0.0986 -2.0735
 4506SOL     OW14351   6.851   1.731   5.831  0.0777  0.0931  0.4583
 4506SOL    HW114352   6.867   1.702   5.921 -1.5052 -2.3622  0.0632
 4506SOL    HW214353   6.909   1.676   5.778 -1.6750 -1.2359 -0.2041
 4507SOL     OW14354   6.312   4.379   1.410  0.1708  0.5484  0.3867
 4507SOL    HW114355   6.318   4.439   1.484 -0.8229  0.2163  0.7596
 4507SOL    HW214356   6.363   4.302   1.437  0.3552  0.6923  0.4492
 4508SOL     OW14357   5.686   0.031   7.339 -0.0967  0.2496 -0.0960
 4508SOL    HW114358   5.666  -0.001   7.427 -0.9269 -2.5478 -1.1639
 4508SOL    HW214359   5.602   0.062   7.305  0.2169  1.3015  0.0788
 4509SOL     OW14360   1.598   1.228   4.271  0.1407 -0.4042 -0.3184
 4509SOL    HW114361   1.656   1.198   4.341  0.7622 -1.0769 -1.1053
 4509SOL    HW214362   1.570   1.315   4.300  1.4146 -0.1256  0.1602
 4510SOL     OW14363   5.568   3.964   0.897  0.5076 -0.3765 -0.6670
 4510SOL    HW114364   5.561   3.999   0.986 -1.4248 -1.1848 -0.4454
 4510SOL    HW214365   5.608   4.036   0.847  0.3671  0.6107  0.5710
 4511SOL     OW14366   5.063   1.908   5.572  0.4344  0.0281  0.1717
 4511SOL    HW114367   5.137   1.848   5.562  0.7742  0.6132 -1.0321
 4511SOL    HW214368   4.995   1.856   5.615  2.0252 -0.1045  2.7156
 4512SOL     OW14369   2.870   2.361   1.994  0.6599 -0.3738  0.0188
 4512SOL    HW114370   2.922   2.393   2.067 -1.3022  0.7114  1.0081
 4512SOL    HW214371   2.848   2.271   2.017  0.9360 -0.3833  0.2440
 4513SOL     OW14372   1.359   6.551   2.386  0.2721 -0.0358  0.1339
 4513SOL    HW114373   1.317   6.521   2.305  0.5198  1.1325 -0.4512
 4513SOL    HW214374   1.443   6.586   2.357  0.8884 -0.7146  1.0704
 4514SOL     OW14375   0.056   7.245   1.523 -0.4201  0.7540  0.2002
 4514SOL    HW114376  -0.030   7.273   1.553 -1.8794 -0.6169 -2.3474
 4514SOL    HW214377   0.063   7.280   1.434  1.5100  0.4666  0.1849
 4515SOL     OW14378   0.918   6.295   7.451  0.2483  0.1269  0.2919
 4515SOL    HW114379   0.862   6.350   7.505 -1.3965  1.1957 -2.2674
 4515SOL    HW214380   1.007   6.311   7.483 -0.3739  2.7787  0.9074
 4516SOL     OW14381   3.846   2.668   0.011  0.1239 -0.2711  0.5550
 4516SOL    HW114382   3.805   2.592  -0.029  0.9234 -0.2659 -0.3220
 4516SOL    HW214383   3.904   2.632   0.078 -1.7577 -0.2430  2.2905
 4517SOL     OW14384   6.138   0.629   6.036  0.1781  0.0741 -0.3699
 4517SOL    HW114385   6.116   0.570   6.109  0.9741  1.7426  1.3177
 4517SOL    HW214386   6.055   0.650   5.995 -0.4726  0.1841  0.9618
 4518SOL     OW14387   6.493   1.690   5.600  0.6439 -0.0780  0.0742
 4518SOL    HW114388   6.440   1.660   5.526  0.2718  0.7526 -0.0096
 4518SOL    HW214389   6.570   1.633   5.599  0.5672 -0.1843 -0.8523
 4519SOL     OW14390   2.432   2.848   4.745 -0.6882  0.2417  0.2805
 4519SOL    HW114391   2.445   2.754   4.733  0.0621  0.3315  0.3683
 4519SOL    HW214392   2.512   2.888   4.713  0.1589  0.6835  2.7324
 4520SOL     OW14393   3.187   2.707   0.928  0.3709  0.5781  0.6960
 4520SOL    HW114394   3.195   2.785   0.872 -1.2233  0.6010  0.4539
 4520SOL    HW214395   3.102   2.670   0.905  0.0280  0.1303  2.5487
 4521SOL     OW14396   7.216   1.061   4.208  0.4930 -0.5091 -0.4192
 4521SOL    HW114397   7.122   1.080   4.200  0.6414  0.1361 -0.7020
 4521SOL    HW214398   7.222   1.004   4.284 -0.0718 -0.0623 -0.0223
 4522SOL     OW14399   6.820   5.514   3.222  0.5973 -0.3491  0.1100
 4522SOL    HW114400   6.879   5.445   3.250  2.3066  1.1719  0.4792
 4522SOL    HW214401   6.871   5.595   3.231 -0.5069  0.7719 -2.4515
 4523SOL     OW14402   6.517   0.796   5.135  0.1470  0.1781  0.4462
 4523SOL    HW114403   6.517   0.822   5.227  1.4260 -1.4749  0.9653
 4523SOL    HW214404   6.425   0.800   5.109 -0.1616  1.2436  1.5983
 4524SOL     OW14405   4.091   7.731   1.411  0.1450  0.6255 -0.0534
 4524SOL    HW114406   4.146   7.723   1.333 -0.3490 -0.6896 -0.2818
 4524SOL    HW214407   4.089   7.644   1.449 -0.2159  1.0896  1.0426
 4525SOL     OW14408   5.052   4.368   0.503 -0.3150  0.0098 -0.4318
 4525SOL    HW114409   4.987   4.343   0.437  0.0798 -1.3485 -0.3368
 4525SOL    HW214410   5.127   4.397   0.452  0.2067 -1.5924 -0.6311
 4526SOL     OW14411   7.097   4.101   7.892  0.1927 -0.1426  0.1755
 4526SOL    HW114412   7.113   4.134   7.980  0.0198  0.3436  0.0321
 4526SOL    HW214413   7.145   4.019   7.888 -1.5199 -1.2667  1.4287
 4527SOL     OW14414   5.928   1.737   6.530  0.4402  1.1145 -0.0320
 4527SOL    HW114415   6.006   1.783   6.559  0.6800  0.4284  0.4131
 4527SOL    HW214416   5.955   1.646   6.520 -0.3800  0.8122  0.4321
 4528SOL     OW14417   3.914   4.755   0.997  0.1195 -0.9624  0.2832
 4528SOL    HW114418   3.865   4.837   0.990 -0.0858 -1.1800 -1.2058
 4528SOL    HW214419   3.998   4.774   0.956  0.4856 -1.2002  0.9087
 4529SOL     OW14420   1.293   0.866   5.311 -0.2535  0.3838 -0.3092
 4529SOL    HW114421   1.312   0.814   5.389 -1.2055 -0.1956 -0.4536
 4529SOL    HW214422   1.336   0.950   5.328 -1.2957  0.6276  1.2962
 4530SOL     OW14423   5.802   3.265   0.966 -0.0550 -0.3969 -0.3836
 4530SOL    HW114424   5.795   3.355   0.934  0.0149 -0.2880 -0.0966
 4530SOL    HW214425   5.762   3.212   0.897  1.2119 -0.2976 -1.2395
 4531SOL     OW14426   4.432   7.699   5.975 -0.1316  0.2981 -0.0740
 4531SOL    HW114427   4.392   7.636   5.914  2.4834 -0.7713 -0.8145
 4531SOL    HW214428   4.457   7.773   5.920  0.5658  0.1415  0.0252
 4532SOL     OW14429   4.193   0.959   3.115  0.3666  0.4558 -0.0373
 4532SOL    HW114430   4.111   0.916   3.139  0.0264  1.5678  0.9154
 4532SOL    HW214431   4.173   1.006   3.034  0.4531 -0.3283 -0.5247
 4533SOL     OW14432   6.792   6.488   1.398  0.2415  0.6140  0.3869
 4533SOL    HW114433   6.701   6.495   1.369  1.0726  1.0014 -2.4913
 4533SOL    HW214434   6.798   6.547   1.473 -1.6178  1.5063 -0.1040
 4534SOL     OW14435   3.220   0.344   0.204 -0.4245 -0.4831  0.1247
 4534SOL    HW114436   3.308   0.312   0.188 -0.6448 -2.6927  2.6588
 4534SOL    HW214437   3.170   0.314   0.128  0.5892 -1.0847 -0.3309
 4535SOL     OW14438   3.004   6.500   5.916 -0.7246 -0.3033  0.5267
 4535SOL    HW114439   2.988   6.438   5.845 -0.0787  1.3796 -1.1865
 4535SOL    HW214440   2.948   6.575   5.895 -1.0484 -0.0279  2.2190
 4536SOL     OW14441   7.276   5.889   7.496 -0.6724 -0.1585 -0.3834
 4536SOL    HW114442   7.245   5.846   7.417  2.1956  1.2400 -2.4696
 4536SOL    HW214443   7.316   5.971   7.465  3.0126 -0.7747  2.0210
 4537SOL     OW14444   6.007   1.996   1.497 -0.5530  0.6334 -0.6376
 4537SOL    HW114445   5.985   1.921   1.441 -1.6427  0.4985 -0.0430
 4537SOL    HW214446   6.068   2.047   1.444  0.0714 -0.5666 -1.1378
 4538SOL     OW14447   2.309   6.369   3.501  0.4304  0.4261 -0.5743
 4538SOL    HW114448   2.248   6.393   3.431  0.5664 -0.5291 -1.0441
 4538SOL    HW214449   2.256   6.318   3.562  0.8333 -0.9121 -1.2750
 4539SOL     OW14450   3.014   0.840   3.870  0.2412 -0.2772 -0.3439
 4539SOL    HW114451   3.078   0.801   3.929  0.0101  1.0572  0.8647
 4539SOL    HW214452   3.059   0.917   3.834 -0.2274 -0.0812 -0.5198
 4540SOL     OW14453   1.496   3.528   6.816 -0.1766 -0.2680  0.0725
 4540SOL    HW114454   1.569   3.565   6.766 -0.2944 -0.2602 -0.0969
 4540SOL    HW214455   1.525   3.440   6.840 -0.0799 -0.2359  0.0708
 4541SOL     OW14456   6.223   6.123   5.995  0.8502 -0.2728 -0.9646
 4541SOL    HW114457   6.250   6.075   5.917  0.0937 -0.7684 -0.9338
 4541SOL    HW214458   6.202   6.211   5.963  0.5822 -0.4635 -1.3115
 4542SOL     OW14459   7.431   4.097   0.918  0.0992 -0.5441 -0.2764
 4542SOL    HW114460   7.416   4.059   1.004  0.3393  1.5646  0.7649
 4542SOL    HW214461   7.367   4.169   0.912 -0.0110 -0.7475 -1.9195
 4543SOL     OW14462   0.141   5.157   1.190  0.3675 -0.0367 -0.3161
 4543SOL    HW114463   0.105   5.200   1.267 -0.6363  1.5127 -1.5735
 4543SOL    HW214464   0.073   5.096   1.162  0.8068 -0.7328  0.1196
 4544SOL     OW14465   2.865   5.922   4.616  0.2368 -0.5272  0.2581
 4544SOL    HW114466   2.783   5.923   4.567  0.8322 -0.4698 -0.7769
 4544SOL    HW214467   2.897   6.013   4.612  1.4053 -0.9660 -1.2340
 4545SOL     OW14468   4.543   5.257   3.401  0.0386 -0.3096 -0.2489
 4545SOL    HW114469   4.604   5.298   3.462  0.9400 -1.9093 -0.0045
 4545SOL    HW214470   4.477   5.217   3.456 -0.4991  0.3024 -0.4479
 4546SOL     OW14471   6.562   0.533   4.208 -0.0129 -0.0186  0.0135
 4546SOL    HW114472   6.618   0.526   4.131 -0.8995  0.9273 -0.7385
 4546SOL    HW214473   6.588   0.616   4.249  0.1197 -0.2821  0.4794
 4547SOL     OW14474   1.673   0.435   6.680 -0.4805  0.2435  0.1654
 4547SOL    HW114475   1.638   0.419   6.592 -0.4291  1.2223 -0.0514
 4547SOL    HW214476   1.652   0.356   6.730  2.9209 -2.1310 -1.7282
 4548SOL     OW14477   6.507   7.649   3.782  0.0024 -0.2604  0.0942
 4548SOL    HW114478   6.522   7.742   3.801 -0.6895 -0.0894 -0.1427
 4548SOL    HW214479   6.411   7.640   3.784  0.1003 -1.2074  1.1895
 4549SOL     OW14480   7.684   4.804   1.016 -0.4307 -0.4162 -0.0568
 4549SOL    HW114481   7.670   4.741   1.088 -0.1755 -2.1989 -1.4862
 4549SOL    HW214482   7.752   4.764   0.963 -2.7012 -0.7413 -2.9853
 4550SOL     OW14483   1.728   3.563   2.579  0.4496  0.1285 -0.1412
 4550SOL    HW114484   1.702   3.632   2.518  0.3764  0.0878 -0.1561
 4550SOL    HW214485   1.703   3.482   2.535  0.3935  0.0993 -0.0541
 4551SOL     OW14486   4.416   6.740   7.441  0.1781  0.4157 -0.3901
 4551SOL    HW114487   4.355   6.812   7.422 -1.2636 -0.8941 -0.9096
 4551SOL    HW214488   4.433   6.700   7.356  0.0963 -0.5213  0.0213
 4552SOL     OW14489   3.676   6.788   6.653  0.4613 -0.6359 -0.1920
 4552SOL    HW114490   3.678   6.727   6.727 -0.1860  1.4301  1.6584
 4552SOL    HW214491   3.586   6.782   6.620 -0.1568  0.5645  1.1710
 4553SOL     OW14492   4.266   4.928   0.022 -0.0577  0.2146  0.0368
 4553SOL    HW114493   4.263   4.854  -0.039  1.2172 -0.7450  1.0769
 4553SOL    HW214494   4.324   4.991  -0.021  0.2694 -0.1497 -0.0625
 4554SOL     OW14495   6.311   4.367   7.770 -0.0980 -0.3943 -0.1865
 4554SOL    HW114496   6.250   4.429   7.729  0.1978 -0.5063 -0.8034
 4554SOL    HW214497   6.396   4.411   7.767  0.5992 -1.7552 -2.8129
 4555SOL     OW14498   3.236   2.170   2.145  0.3097  0.0266 -0.5154
 4555SOL    HW114499   3.267   2.254   2.111 -0.0346 -0.1960 -1.4076
 4555SOL    HW214500   3.251   2.108   2.073 -0.5220 -0.4374 -0.3006
 4556SOL     OW14501   4.137   2.441   3.878 -0.0702  0.0725 -0.1090
 4556SOL    HW114502   4.060   2.432   3.935  0.6217  0.0843  0.8506
 4556SOL    HW214503   4.135   2.362   3.824  0.3404 -0.9593  1.3062
 4557SOL     OW14504   3.913   0.768   2.902  0.1061  0.0256  0.6076
 4557SOL    HW114505   3.848   0.778   2.832 -1.4950  1.0433  2.1648
 4557SOL    HW214506   3.971   0.843   2.890  0.6504 -0.5396 -0.4134
 4558SOL     OW14507   5.468   4.085   2.708 -0.6396  0.0704 -0.0681
 4558SOL    HW114508   5.421   4.168   2.703 -0.9596 -0.1407 -0.6653
 4558SOL    HW214509   5.426   4.030   2.642 -1.6453 -1.2076  1.5904
 4559SOL     OW14510   6.502   4.306   5.701  0.0672  0.1613  0.0917
 4559SOL    HW114511   6.421   4.345   5.670 -1.7839 -1.5744  2.4527
 4559SOL    HW214512   6.535   4.367   5.768 -1.4333 -0.9209  1.9033
 4560SOL     OW14513   2.081   7.166   1.471 -0.0083  0.0269  0.3847
 4560SOL    HW114514   2.140   7.123   1.409  0.2676  0.0370  0.6431
 4560SOL    HW214515   2.090   7.259   1.453 -0.1021  0.0173  0.2851
 4561SOL     OW14516   1.060   2.570   7.627  0.2054  0.0372 -0.3206
 4561SOL    HW114517   1.060   2.645   7.567  0.0148  1.3523  1.2597
 4561SOL    HW214518   0.994   2.591   7.693  0.2605 -1.4561  0.2649
 4562SOL     OW14519   5.274   6.557   7.727 -0.1825  0.0880  0.0330
 4562SOL    HW114520   5.287   6.464   7.715  0.6995 -0.1353  2.1998
 4562SOL    HW214521   5.362   6.593   7.739 -0.6152  0.3450  3.9390
 4563SOL     OW14522   0.245   2.948   0.381  0.2097 -0.4639 -0.3034
 4563SOL    HW114523   0.326   2.955   0.432  0.5697 -0.3658 -0.8762
 4563SOL    HW214524   0.175   2.943   0.446  0.5901  0.5763  0.2013
 4564SOL     OW14525   5.537   6.798   0.670  0.0664  0.3056  0.3427
 4564SOL    HW114526   5.602   6.835   0.730  0.9709 -1.4208  0.4663
 4564SOL    HW214527   5.587   6.741   0.612 -0.8878  1.3829 -1.6561
 4565SOL     OW14528   7.469   4.873   2.445  0.0042 -0.3925 -0.1269
 4565SOL    HW114529   7.376   4.882   2.464  0.5816  2.2612  1.9619
 4565SOL    HW214530   7.502   4.814   2.513  0.6727  2.9206  2.6607
 4566SOL     OW14531   3.645   2.010   6.677  0.2107  0.0123 -0.4283
 4566SOL    HW114532   3.686   1.927   6.655  1.5986  0.3225  0.8319
 4566SOL    HW214533   3.690   2.074   6.623  1.7127  0.4024  1.2073
 4567SOL     OW14534   4.932   1.511   0.374  0.6447  0.2043  0.2325
 4567SOL    HW114535   4.878   1.509   0.453 -0.2625 -1.3889 -0.3642
 4567SOL    HW214536   4.873   1.542   0.305  0.5500 -1.1342 -0.3386
 4568SOL     OW14537   3.121   5.302   4.178 -0.1883 -0.1034 -0.1515
 4568SOL    HW114538   3.106   5.394   4.202  1.6782  0.6983 -1.7331
 4568SOL    HW214539   3.164   5.264   4.254  0.5987  0.8292 -0.1175
 4569SOL     OW14540   0.306   1.277   2.123 -0.6450  0.3896 -0.2404
 4569SOL    HW114541   0.247   1.353   2.126  1.4416  2.1971 -1.6278
 4569SOL    HW214542   0.354   1.280   2.206 -0.3809  0.7552 -0.4053
 4570SOL     OW14543   4.454   7.245   4.583  0.1303 -0.4706 -0.3351
 4570SOL    HW114544   4.441   7.263   4.676  0.2348 -1.6170 -0.0806
 4570SOL    HW214545   4.539   7.202   4.578  1.3803  1.9079 -1.3145
 4571SOL     OW14546   7.429   3.964   3.173 -0.2991  0.4743 -0.6821
 4571SOL    HW114547   7.342   3.997   3.152 -0.3344  0.6827 -0.2148
 4571SOL    HW214548   7.473   4.036   3.218 -0.2232  0.0475 -0.0546
 4572SOL     OW14549   6.434   2.154   7.159  0.2810 -0.2493  0.1755
 4572SOL    HW114550   6.394   2.240   7.164  0.9925  0.1472 -0.5863
 4572SOL    HW214551   6.387   2.101   7.223 -0.9289  0.3972 -0.1525
 4573SOL     OW14552   3.536   6.966   2.960  0.4300 -0.4939 -0.2097
 4573SOL    HW114553   3.624   6.981   2.925 -1.0090 -0.1027 -4.1069
 4573SOL    HW214554   3.515   6.876   2.935 -0.8247 -0.0837 -0.6782
 4574SOL     OW14555   0.832   0.372   1.353 -0.3712 -0.3537  0.0717
 4574SOL    HW114556   0.788   0.297   1.313 -0.1387  0.9310 -2.8517
 4574SOL    HW214557   0.901   0.395   1.290 -0.2978  2.1714  0.9650
 4575SOL     OW14558   0.015   4.688   1.444  0.2937  0.1642 -0.2447
 4575SOL    HW114559  -0.035   4.612   1.471  0.2986  0.0060 -0.6755
 4575SOL    HW214560  -0.049   4.758   1.437  0.4476  0.5022  1.2463
 4576SOL     OW14561   5.065   5.982   3.084 -0.7183 -1.3100 -0.0273
 4576SOL    HW114562   4.985   6.034   3.080 -2.1026 -3.2064  1.3142
 4576SOL    HW214563   5.058   5.922   3.010 -0.5826 -1.5395  0.1463
 4577SOL     OW14564   1.670   7.292   4.165  0.2850  0.1994  0.3444
 4577SOL    HW114565   1.651   7.199   4.154 -1.0938  0.5075 -0.0696
 4577SOL    HW214566   1.760   7.294   4.196  1.2333 -1.1539 -2.0292
 4578SOL     OW14567   2.100   1.405   1.819  0.3622 -0.2895 -0.1108
 4578SOL    HW114568   2.122   1.468   1.750 -0.8509  1.6307  1.1214
 4578SOL    HW214569   2.004   1.404   1.819  0.3559 -0.7041  1.1429
 4579SOL     OW14570   2.404   0.272   7.642 -0.1809 -0.2442  0.3775
 4579SOL    HW114571   2.376   0.211   7.574  0.8407  1.0802 -1.3041
 4579SOL    HW214572   2.384   0.359   7.607  2.3756  0.5943  0.7632
 4580SOL     OW14573   6.248   2.146   4.231  0.2075 -0.0894 -0.1595
 4580SOL    HW114574   6.199   2.142   4.149 -1.0037 -1.3079  0.5812
 4580SOL    HW214575   6.190   2.192   4.292  1.0845  0.7823  0.0468
 4581SOL     OW14576   1.656   3.010   1.221  0.3862  0.0547 -0.3898
 4581SOL    HW114577   1.677   2.962   1.141 -1.6105 -2.5060  0.4411
 4581SOL    HW214578   1.710   2.969   1.288  1.3559  1.5433 -0.2336
 4582SOL     OW14579   3.423   2.880   2.785  0.5823  0.0150  0.1132
 4582SOL    HW114580   3.504   2.876   2.835  0.8722 -0.4011 -0.3785
 4582SOL    HW214581   3.437   2.820   2.712  0.2914  0.8586 -0.6534
 4583SOL     OW14582   7.884   2.993   3.466  0.4169 -0.1702 -1.0151
 4583SOL    HW114583   7.927   3.022   3.547  1.1505  0.3828 -1.5866
 4583SOL    HW214584   7.939   3.027   3.396 -0.7866  0.2891 -1.7744
 4584SOL     OW14585   3.735   4.941   6.991  0.5273 -0.3201 -0.4404
 4584SOL    HW114586   3.674   4.937   7.064  0.8988 -0.0166 -0.1134
 4584SOL    HW214587   3.819   4.963   7.030  0.0103  4.1646 -1.3318
 4585SOL     OW14588   2.558   7.418   3.750  0.0112  0.2201 -0.1642
 4585SOL    HW114589   2.521   7.356   3.688  0.5696 -0.8832  0.5726
 4585SOL    HW214590   2.486   7.437   3.811 -0.6619  1.6266 -1.3442
 4586SOL     OW14591   5.549   6.378   5.712 -0.7194 -0.3455 -0.1599
 4586SOL    HW114592   5.616   6.387   5.781 -1.5557 -1.9220  0.9324
 4586SOL    HW214593   5.597   6.390   5.630  0.2338  2.0497  0.6588
 4587SOL     OW14594   1.704   2.194   6.549 -0.5029  0.0880 -0.1796
 4587SOL    HW114595   1.653   2.177   6.470  0.6343 -0.7437 -0.7711
 4587SOL    HW214596   1.685   2.120   6.606 -2.5413  1.4475  1.0418
 4588SOL     OW14597   3.911   0.979   4.773  0.5058  0.4598 -0.3741
 4588SOL    HW114598   3.884   0.891   4.747 -1.0834  1.2405 -1.5642
 4588SOL    HW214599   3.931   1.023   4.691  1.1083  1.2675  0.1945
 4589SOL     OW14600   7.532   2.255   0.851  0.5331 -0.4368  0.0508
 4589SOL    HW114601   7.603   2.227   0.794  1.1748 -0.2057  0.7234
 4589SOL    HW214602   7.568   2.328   0.901  0.4087 -1.3808  1.6038
 4590SOL     OW14603   5.807   6.650   3.163 -0.6741 -0.6272  0.1900
 4590SOL    HW114604   5.713   6.631   3.174 -0.6843  0.2868  2.3033
 4590SOL    HW214605   5.811   6.705   3.085 -1.9256 -0.5053  0.1796
 4591SOL     OW14606   7.752   4.322   1.143 -0.0365  0.4450  0.6253
 4591SOL    HW114607   7.675   4.300   1.195  0.4473 -2.1565  0.3516
 4591SOL    HW214608   7.804   4.242   1.142  0.4117  0.6214 -3.0800
 4592SOL     OW14609   0.278   3.083   1.793  0.2024  0.2292 -0.1120
 4592SOL    HW114610   0.292   3.083   1.887  2.1478 -1.2248 -0.3315
 4592SOL    HW214611   0.322   3.003   1.762 -0.7540  0.4358 -2.1953
 4593SOL     OW14612   0.071   0.163   4.354 -0.0365 -0.7045 -0.0420
 4593SOL    HW114613   0.120   0.085   4.378 -0.7426 -0.9680  0.5952
 4593SOL    HW214614  -0.016   0.150   4.393  0.0638  0.7413  0.7719
 4594SOL     OW14615   0.292   6.497   6.410 -0.1094 -0.2514  0.2243
 4594SOL    HW114616   0.230   6.554   6.454  0.0031  0.3781 -0.4137
 4594SOL    HW214617   0.284   6.520   6.317  2.1969  0.9714  0.2673
 4595SOL     OW14618   0.320   7.467   4.896 -0.4946 -0.0044 -0.5700
 4595SOL    HW114619   0.402   7.516   4.891  0.3766 -1.2399  0.9303
 4595SOL    HW214620   0.320   7.411   4.819  1.8064 -2.4914  1.0850
 4596SOL     OW14621   4.411   4.104   3.183  0.4185 -0.5078  0.1638
 4596SOL    HW114622   4.349   4.057   3.127  0.7494  0.5818 -1.1885
 4596SOL    HW214623   4.356   4.161   3.236  0.2046  0.1065 -0.6893
 4597SOL     OW14624   7.884   0.950   4.611  0.1313 -0.2619 -0.2248
 4597SOL    HW114625   7.894   0.918   4.701  2.7804  0.1964 -0.2744
 4597SOL    HW214626   7.830   1.028   4.619 -1.3193 -1.3182  0.6737
 4598SOL     OW14627   7.899   5.332   6.983  0.3298 -0.3657 -0.2423
 4598SOL    HW114628   7.879   5.326   6.890 -2.2652 -0.4311  0.2359
 4598SOL    HW214629   7.852   5.410   7.012  0.3413 -0.8597  1.1666
 4599SOL     OW14630   2.067   7.680   6.835 -0.5494 -0.3984 -0.2102
 4599SOL    HW114631   2.055   7.733   6.756 -0.8385 -1.6161 -1.0158
 4599SOL    HW214632   1.993   7.704   6.891  0.7184  1.9369  0.6009
 4600SOL     OW14633   4.541   4.327   2.720 -0.1294 -0.1287  0.7658
 4600SOL    HW114634   4.512   4.418   2.708  0.1503  0.1005  1.7433
 4600SOL    HW214635   4.474   4.275   2.676 -0.1240  0.5652 -0.0934
 4601SOL     OW14636   5.937   1.549   1.328  0.1756  0.0624  0.4977
 4601SOL    HW114637   6.001   1.497   1.376  0.8558  0.0296 -0.4224
 4601SOL    HW214638   5.886   1.484   1.278 -0.8705  0.0472  1.5389
 4602SOL     OW14639   1.315   1.453   6.575 -0.1904  0.0145  0.2486
 4602SOL    HW114640   1.411   1.452   6.570 -0.2167 -0.7692 -0.3688
 4602SOL    HW214641   1.287   1.460   6.483 -0.7294  0.6744  0.4565
 4603SOL     OW14642   4.240   6.143   5.351 -0.5586  0.7250 -0.1671
 4603SOL    HW114643   4.176   6.199   5.307 -1.4772 -0.5335 -0.5020
 4603SOL    HW214644   4.188   6.092   5.413  0.2788  0.3817  0.2686
 4604SOL     OW14645   2.518   2.303   5.669 -0.2138  0.0883  0.2566
 4604SOL    HW114646   2.589   2.340   5.617  1.4508 -0.5104  2.0022
 4604SOL    HW214647   2.516   2.210   5.644 -0.9900  0.2860 -0.4348
 4605SOL     OW14648   0.331   2.150   5.609 -0.4636  0.6009  0.1637
 4605SOL    HW114649   0.289   2.121   5.690  2.7490 -1.3638  1.3396
 4605SOL    HW214650   0.349   2.243   5.624 -1.6266  0.7402  0.8529
 4606SOL     OW14651   4.076   7.668   3.999  0.3025  0.5021 -0.1820
 4606SOL    HW114652   4.011   7.627   3.941 -0.6130  2.3224 -0.4949
 4606SOL    HW214653   4.151   7.686   3.942  0.5127 -0.2450 -0.1529
 4607SOL     OW14654   1.842   6.822   0.558  0.1020  0.0538 -0.6306
 4607SOL    HW114655   1.900   6.847   0.486 -0.0686  1.2862 -0.3616
 4607SOL    HW214656   1.867   6.879   0.630  2.3288 -3.1281  1.3586
 4608SOL     OW14657   3.232   7.474   3.855  0.2785  0.2742  0.1136
 4608SOL    HW114658   3.246   7.565   3.830 -1.0084  0.3902 -0.2752
 4608SOL    HW214659   3.320   7.438   3.866  0.8048  1.6084  0.4555
 4609SOL     OW14660   3.628   2.374   2.676 -0.0799 -0.3535 -0.2068
 4609SOL    HW114661   3.578   2.310   2.626 -0.1233 -0.0630 -0.5455
 4609SOL    HW214662   3.705   2.392   2.623 -0.2152  0.0929 -0.2615
 4610SOL     OW14663   4.227   2.841   1.932  0.0719  0.2507 -0.2831
 4610SOL    HW114664   4.142   2.855   1.973 -0.2518  0.9206 -1.1542
 4610SOL    HW214665   4.235   2.913   1.869  0.3496 -1.0014 -1.7179
 4611SOL     OW14666   7.725   1.702   1.589 -0.1084  0.3005  0.3103
 4611SOL    HW114667   7.748   1.709   1.496  0.4365  1.4125  0.5033
 4611SOL    HW214668   7.748   1.612   1.613 -0.5949 -0.1042 -0.7155
 4612SOL     OW14669   7.412   2.725   0.923  0.0707  0.3034  0.5859
 4612SOL    HW114670   7.364   2.654   0.881  1.0517  0.5455 -1.0545
 4612SOL    HW214671   7.358   2.751   0.997 -2.7464  1.1336 -1.6156
 4613SOL     OW14672   3.321   5.918   3.524  0.2153  0.3476  0.0814
 4613SOL    HW114673   3.399   5.900   3.577  0.5646  0.2584 -0.4605
 4613SOL    HW214674   3.320   6.013   3.514  0.3180  0.3390 -0.0098
 4614SOL     OW14675   0.907   1.863   3.438  0.1432  0.3575 -0.5435
 4614SOL    HW114676   0.992   1.867   3.482 -1.2355 -1.6678  2.5589
 4614SOL    HW214677   0.844   1.894   3.503 -1.6329  1.5312 -2.6561
 4615SOL     OW14678   2.009   7.213   2.457 -0.0622 -0.7018  0.3807
 4615SOL    HW114679   1.935   7.263   2.423 -0.0398 -0.8095  0.1701
 4615SOL    HW214680   2.071   7.210   2.384  0.4271 -0.0699  0.7613
 4616SOL     OW14681   2.323   7.841   1.718 -0.3690  0.8470  0.0478
 4616SOL    HW114682   2.361   7.803   1.639 -0.3645  3.0705 -1.1173
 4616SOL    HW214683   2.379   7.810   1.790 -0.2960 -1.1136 -0.8013
 4617SOL     OW14684   3.935   3.412   7.004  0.4874 -0.3558 -0.2698
 4617SOL    HW114685   3.911   3.413   7.097 -0.9778 -0.7246 -0.6133
 4617SOL    HW214686   3.935   3.319   6.981  1.1733 -0.2868 -0.5789
 4618SOL     OW14687   1.123   1.079   2.510  0.3207  0.1657 -0.2345
 4618SOL    HW114688   1.054   1.067   2.445 -0.7093 -0.6574  0.9488
 4618SOL    HW214689   1.078   1.118   2.585  0.7089 -2.0088  1.2279
 4619SOL     OW14690   5.829   5.221   3.251  0.2697  0.0201 -0.1089
 4619SOL    HW114691   5.879   5.303   3.258 -0.7357  0.5673  1.0443
 4619SOL    HW214692   5.738   5.250   3.239 -0.1599 -0.8995  0.7623
 4620SOL     OW14693   6.796   4.643   4.919 -0.4490 -0.2478  0.4274
 4620SOL    HW114694   6.790   4.573   4.853  1.2556 -0.1522  0.1357
 4620SOL    HW214695   6.746   4.715   4.881  0.0930 -0.3692 -0.5560
 4621SOL     OW14696   2.376   0.242   4.040 -0.2756  0.3147  0.0458
 4621SOL    HW114697   2.424   0.174   3.993 -0.8376  0.8531 -1.3470
 4621SOL    HW214698   2.352   0.201   4.124 -0.2548 -1.0644 -0.5982
 4622SOL     OW14699   6.689   0.701   3.885 -0.7348 -0.6100 -0.7164
 4622SOL    HW114700   6.756   0.762   3.856 -1.3649  0.9984  1.0457
 4622SOL    HW214701   6.734   0.644   3.948  0.0402 -2.6050 -2.8742
 4623SOL     OW14702   4.215   2.399   6.500 -0.2407 -0.2971  0.3183
 4623SOL    HW114703   4.270   2.474   6.478  1.4142 -1.2945  0.8708
 4623SOL    HW214704   4.202   2.352   6.418 -0.3971  0.0282  0.1582
 4624SOL     OW14705   0.710   2.205   6.290  0.5625 -0.2786 -0.1661
 4624SOL    HW114706   0.676   2.196   6.201  0.5101  1.4425 -0.3606
 4624SOL    HW214707   0.802   2.176   6.284  0.8088  0.6145 -0.9924
 4625SOL     OW14708   3.284   1.653   3.023 -0.3742 -0.3677  0.2481
 4625SOL    HW114709   3.242   1.571   3.000 -0.6591 -0.4033  0.8765
 4625SOL    HW214710   3.378   1.632   3.027 -0.1874 -0.1463 -1.7648
 4626SOL     OW14711   6.070   4.553   0.384 -0.2126  0.0650 -0.0663
 4626SOL    HW114712   6.038   4.610   0.314  1.9760  1.1323 -0.2855
 4626SOL    HW214713   6.142   4.505   0.345 -0.8424 -1.5451  0.6674
 4627SOL     OW14714   6.916   5.030   0.233 -0.0115  0.1366 -0.1878
 4627SOL    HW114715   6.936   5.117   0.268 -1.4793  0.7425 -0.7751
 4627SOL    HW214716   6.846   5.045   0.169 -0.0503 -1.4361 -0.5661
 4628SOL     OW14717   2.477   0.214   2.315  0.0346 -0.5785  0.5344
 4628SOL    HW114718   2.454   0.147   2.379  0.3644  1.0679  2.5160
 4628SOL    HW214719   2.401   0.272   2.313  0.1870 -0.4037 -0.2726
 4629SOL     OW14720   6.010   6.067   2.190 -0.3258  0.1118 -0.1500
 4629SOL    HW114721   6.032   6.050   2.098  2.2027  0.9176  0.2486
 4629SOL    HW214722   6.012   5.981   2.232  0.3823 -0.0337 -0.4817
 4630SOL     OW14723   2.002   0.063   0.190  0.2596  0.0327  0.6093
 4630SOL    HW114724   1.943   0.062   0.114  0.3685 -0.9294  0.5234
 4630SOL    HW214725   1.973  -0.010   0.244  1.6416 -0.7583  0.3454
 4631SOL     OW14726   1.225   7.618   1.388 -0.3418 -0.2218  0.1053
 4631SOL    HW114727   1.187   7.703   1.370 -2.0889 -0.8685  0.5871
 4631SOL    HW214728   1.154   7.566   1.426  1.0126 -1.4813  1.0875
 4632SOL     OW14729   5.820   0.495   3.098 -0.1659  0.1581 -0.3752
 4632SOL    HW114730   5.782   0.561   3.156 -2.2903 -0.2517 -1.1933
 4632SOL    HW214731   5.838   0.420   3.155 -3.3158 -0.6839 -0.2824
 4633SOL     OW14732   2.250   0.600   2.543 -0.6562  0.1078 -0.2272
 4633SOL    HW114733   2.233   0.509   2.567 -0.1379  0.2528  0.7640
 4633SOL    HW214734   2.345   0.604   2.528 -0.8299  0.2484 -1.3919
 4634SOL     OW14735   4.072   0.088   2.323  0.0403  0.6973  0.0733
 4634SOL    HW114736   4.121   0.007   2.339 -1.1169 -0.1490 -0.5736
 4634SOL    HW214737   4.112   0.125   2.244  0.1414  0.4296 -0.0010
 4635SOL     OW14738   1.734   7.253   5.315  0.0186 -0.1658 -0.0141
 4635SOL    HW114739   1.805   7.315   5.328 -0.7362  0.5428  0.8302
 4635SOL    HW214740   1.657   7.295   5.352 -1.1671 -0.3316 -2.0929
 4636SOL     OW14741   7.566   2.958   7.900 -0.0402  0.0225 -0.0921
 4636SOL    HW114742   7.558   2.998   7.986 -3.4305  0.1341 -0.3236
 4636SOL    HW214743   7.571   2.864   7.916 -1.8984 -0.0543  0.2901
 4637SOL     OW14744   7.681   0.538   5.913  0.0584 -0.0330  0.3988
 4637SOL    HW114745   7.596   0.500   5.935  0.5378 -1.6696 -0.3550
 4637SOL    HW214746   7.738   0.462   5.902  0.6956  0.7760 -2.9243
 4638SOL     OW14747   4.190   1.721   6.659 -0.0518 -0.3454  0.2570
 4638SOL    HW114748   4.221   1.769   6.582 -0.8067 -0.2281  0.0118
 4638SOL    HW214749   4.221   1.631   6.645 -1.1521 -0.5938 -0.7806
 4639SOL     OW14750   4.145   4.511   4.901  0.2854 -0.0291 -0.0654
 4639SOL    HW114751   4.214   4.461   4.857  0.7379  0.0826  0.5001
 4639SOL    HW214752   4.064   4.485   4.856  0.3852 -1.8898  0.7229
 4640SOL     OW14753   3.798   1.416   3.006 -0.3258 -0.0625 -0.1416
 4640SOL    HW114754   3.863   1.424   2.936 -0.5240 -0.2861 -0.3517
 4640SOL    HW214755   3.848   1.429   3.087 -0.7625  5.5413 -0.3486
 4641SOL     OW14756   1.833   4.217   5.341 -0.5977  0.3342  0.1092
 4641SOL    HW114757   1.879   4.140   5.307  1.1236  0.2084  2.4756
 4641SOL    HW214758   1.756   4.181   5.385 -0.6369  0.1172 -0.1345
 4642SOL     OW14759   0.463   0.664   7.209 -0.0398 -0.4878 -0.1075
 4642SOL    HW114760   0.456   0.752   7.248  0.2483  0.5562 -2.2878
 4642SOL    HW214761   0.377   0.649   7.169 -0.7671 -2.0859  1.8790
 4643SOL     OW14762   3.791   4.232   7.900  0.0972  0.2569  0.7816
 4643SOL    HW114763   3.748   4.311   7.869  1.1808  1.0354  1.1803
 4643SOL    HW214764   3.762   4.224   7.991  0.2386  0.3805  0.8377
 4644SOL     OW14765   5.934   0.347   4.118  0.6262 -0.8741  0.5635
 4644SOL    HW114766   5.939   0.338   4.023  1.2762 -0.3003  0.5355
 4644SOL    HW214767   5.983   0.271   4.152 -1.4884 -2.3547  0.5081
 4645SOL     OW14768   1.367   7.371   3.609 -0.0012  0.4582  0.1544
 4645SOL    HW114769   1.432   7.385   3.678 -2.6862  0.2951  2.9693
 4645SOL    HW214770   1.329   7.458   3.594  0.2418  0.4071 -0.8052
 4646SOL     OW14771   4.577   3.431   2.484  0.5126 -0.3531  0.2378
 4646SOL    HW114772   4.526   3.428   2.403 -0.2147 -1.0914  0.7069
 4646SOL    HW214773   4.535   3.499   2.536  0.3168 -0.6212  0.4286
 4647SOL     OW14774   4.278   1.836   5.822  0.7160 -0.0010 -0.1980
 4647SOL    HW114775   4.345   1.792   5.876  0.5210 -0.4479 -0.3176
 4647SOL    HW214776   4.244   1.767   5.766  2.7424  0.9214 -2.7927
 4648SOL     OW14777   0.398   3.849   5.748 -0.8000  0.4236  0.2891
 4648SOL    HW114778   0.435   3.764   5.774 -0.0533  0.5867 -0.1908
 4648SOL    HW214779   0.422   3.859   5.656 -1.8845  0.6435  0.0192
 4649SOL     OW14780   3.411   7.119   4.841 -0.0050 -0.0850  0.3423
 4649SOL    HW114781   3.351   7.171   4.787  0.0083 -0.3693  0.0487
 4649SOL    HW214782   3.479   7.091   4.780  0.0914 -0.2831  0.5410
 4650SOL     OW14783   3.504   7.513   6.647 -0.0926  0.1485 -0.1455
 4650SOL    HW114784   3.409   7.524   6.654 -0.2583  0.1962 -1.9547
 4650SOL    HW214785   3.516   7.426   6.609  0.6516 -0.2416  0.9301
 4651SOL     OW14786   6.509   1.879   1.960  0.2145  0.5657 -0.4952
 4651SOL    HW114787   6.438   1.935   1.929 -2.0713 -1.8584  0.0879
 4651SOL    HW214788   6.514   1.895   2.054  2.9025  3.2411 -0.9331
 4652SOL     OW14789   0.618   1.148   3.353 -0.0474 -0.5392 -0.5169
 4652SOL    HW114790   0.658   1.172   3.436 -1.0092  0.5638 -0.3623
 4652SOL    HW214791   0.540   1.099   3.376  0.1464 -0.9918 -0.7949
 4653SOL     OW14792   6.210   6.793   4.687  0.0767  0.3311 -0.0779
 4653SOL    HW114793   6.203   6.888   4.685  0.1262  0.3464  0.4900
 4653SOL    HW214794   6.131   6.762   4.641 -1.3721  0.5967  2.0960
 4654SOL     OW14795   5.313   3.282   7.028 -0.0714  0.1510 -0.2211
 4654SOL    HW114796   5.336   3.369   6.997  2.5713 -0.1770  0.6204
 4654SOL    HW214797   5.352   3.222   6.964 -0.5611 -0.4592  0.0281
 4655SOL     OW14798   5.369   3.576   1.541  0.1223  0.3257  0.4162
 4655SOL    HW114799   5.414   3.608   1.619 -1.9740  1.2510  1.3256
 4655SOL    HW214800   5.404   3.488   1.528  1.9992  0.9078  1.1644
 4656SOL     OW14801   7.072   1.254   5.525 -0.2836  0.3847 -0.2704
 4656SOL    HW114802   7.028   1.301   5.595 -0.5487 -0.1065 -0.1000
 4656SOL    HW214803   7.003   1.227   5.465 -0.5692 -2.2782  1.1065
 4657SOL     OW14804   0.583   5.782   1.560  0.2064 -0.3403  0.5442
 4657SOL    HW114805   0.641   5.816   1.492 -1.5078 -0.7599 -1.2074
 4657SOL    HW214806   0.590   5.686   1.551 -0.5283 -0.3954  0.4982
 4658SOL     OW14807   4.333   2.089   3.698 -0.3028  0.7511  0.4837
 4658SOL    HW114808   4.355   2.058   3.786 -2.3656  3.9644  2.3747
 4658SOL    HW214809   4.405   2.146   3.673 -0.1823  0.6160  0.5204
 4659SOL     OW14810   3.979   6.350   4.141 -0.4637  0.2815 -0.3217
 4659SOL    HW114811   3.948   6.294   4.212  0.2144  0.5708  0.2007
 4659SOL    HW214812   3.905   6.351   4.079 -1.7629  1.4275  1.1595
 4660SOL     OW14813   5.034   2.708   4.407 -0.7815 -0.4409  0.0548
 4660SOL    HW114814   5.104   2.707   4.472 -1.6322 -0.9055  0.9732
 4660SOL    HW214815   4.994   2.621   4.412 -1.7026 -0.0405 -0.1580
 4661SOL     OW14816   3.468   3.482   4.124 -0.2376 -0.3044  0.1295
 4661SOL    HW114817   3.530   3.507   4.191 -0.3146  0.9331 -0.2342
 4661SOL    HW214818   3.486   3.390   4.107  0.9387 -0.1701  0.6039
 4662SOL     OW14819   6.964   5.886   4.199  0.2161 -0.2944 -0.2861
 4662SOL    HW114820   6.951   5.977   4.224 -1.4732 -1.0147  1.7552
 4662SOL    HW214821   6.877   5.846   4.209  0.8611 -2.0655 -1.3990
 4663SOL     OW14822   6.860   4.541   6.575 -0.2478 -0.2209  0.2365
 4663SOL    HW114823   6.859   4.633   6.600 -0.5097 -0.2750  0.4315
 4663SOL    HW214824   6.952   4.519   6.566 -0.1182 -0.3733  1.7882
 4664SOL     OW14825   6.468   2.333   0.041  0.0286  0.2152  0.1747
 4664SOL    HW114826   6.451   2.310   0.133 -0.8823  0.2713  0.0236
 4664SOL    HW214827   6.564   2.342   0.036  0.5595 -3.8326  0.1925
 4665SOL     OW14828   1.565   2.311   3.734  0.3005  0.1455 -0.0279
 4665SOL    HW114829   1.480   2.281   3.766  0.1353 -1.0177 -1.4632
 4665SOL    HW214830   1.629   2.253   3.776  0.5026  1.4704  1.6127
 4666SOL     OW14831   6.468   3.688   0.857  0.0090  0.2982 -0.4891
 4666SOL    HW114832   6.548   3.740   0.869  0.2397  0.1256 -1.2204
 4666SOL    HW214833   6.500   3.598   0.846 -0.2012  0.3732 -1.8414
 4667SOL     OW14834   7.932   6.447   5.135 -0.6112  0.2006  0.7284
 4667SOL    HW114835   7.853   6.417   5.181 -0.8448  1.9438  1.5347
 4667SOL    HW214836   7.957   6.527   5.180  0.8699  0.3927 -0.3660
 4668SOL     OW14837   5.469   0.174   2.303  0.4960  0.3393 -0.0122
 4668SOL    HW114838   5.463   0.268   2.320  2.2905  0.5914 -0.6600
 4668SOL    HW214839   5.558   0.150   2.329  0.6691 -0.8144 -1.5619
 4669SOL     OW14840   0.866   6.597   2.460 -0.1804  0.6075 -0.4812
 4669SOL    HW114841   0.783   6.606   2.507 -0.0849 -0.3553 -0.1006
 4669SOL    HW214842   0.933   6.595   2.528  0.0748  0.5009 -0.7281
 4670SOL     OW14843   3.464   0.933   6.705 -0.1316  0.1918  0.7418
 4670SOL    HW114844   3.472   0.945   6.610  0.5830  0.1418  0.7891
 4670SOL    HW214845   3.409   0.856   6.715  1.1688 -0.8325  0.3326
 4671SOL     OW14846   6.207   6.286   5.438 -0.5416 -0.2267  0.7028
 4671SOL    HW114847   6.271   6.322   5.377 -0.5035 -0.9549  0.2992
 4671SOL    HW214848   6.143   6.242   5.382 -0.5330 -0.8612  1.1834
 4672SOL     OW14849   2.269   0.166   0.167  0.0398 -0.2238  0.1914
 4672SOL    HW114850   2.309   0.172   0.080  0.3914 -0.6265  0.3220
 4672SOL    HW214851   2.182   0.129   0.152  0.0084 -0.0669 -0.0126
 4673SOL     OW14852   1.176   5.136   3.944 -0.4819 -0.6092 -0.1313
 4673SOL    HW114853   1.134   5.180   3.870 -2.2303 -0.0020  1.1463
 4673SOL    HW214854   1.192   5.047   3.913  0.7971  0.1991 -1.9244
 4674SOL     OW14855   5.697   7.071   6.574  0.6304  0.4935 -0.0770
 4674SOL    HW114856   5.770   7.088   6.514 -0.1232  0.9776 -0.8886
 4674SOL    HW214857   5.660   7.157   6.593  1.7767  0.5274  2.3532
 4675SOL     OW14858   0.910   0.456   3.173  0.2581 -0.1796 -0.3811
 4675SOL    HW114859   0.931   0.391   3.106 -2.0795 -2.2339  0.7082
 4675SOL    HW214860   0.934   0.414   3.256 -1.6991  0.0897  0.3769
 4676SOL     OW14861   2.417   7.774   5.921  0.3442 -0.0365 -0.1842
 4676SOL    HW114862   2.502   7.819   5.917 -0.1382  0.8838 -0.3194
 4676SOL    HW214863   2.354   7.845   5.934 -0.3223 -0.8005  0.8397
 4677SOL     OW14864   1.078   2.371   6.096  0.3131 -0.2193  0.1412
 4677SOL    HW114865   1.028   2.363   6.015 -0.2723 -0.2216  0.4975
 4677SOL    HW214866   1.023   2.425   6.153  0.0291 -1.4699  1.0746
 4678SOL     OW14867   0.331   3.135   5.786 -0.2375  0.4381  0.2745
 4678SOL    HW114868   0.236   3.131   5.770 -0.0751 -1.0629 -0.5443
 4678SOL    HW214869   0.370   3.109   5.702  0.8819  0.3817  0.7948
 4679SOL     OW14870   6.076   2.771   6.862  0.1864  0.3755 -0.0337
 4679SOL    HW114871   6.052   2.725   6.942 -0.7701  0.5625 -0.2035
 4679SOL    HW214872   6.031   2.723   6.792  0.1611  0.8365 -0.3410
 4680SOL     OW14873   0.210   7.438   1.733  0.0103  0.1792  0.5627
 4680SOL    HW114874   0.116   7.447   1.716  0.2366 -0.6186 -1.3675
 4680SOL    HW214875   0.252   7.487   1.662  1.0590  0.2404  1.2032
 4681SOL     OW14876   5.350   1.709   1.008  0.1967 -0.3183  0.3044
 4681SOL    HW114877   5.349   1.794   1.053 -0.9337  0.0061 -0.2955
 4681SOL    HW214878   5.408   1.723   0.933 -0.6020  0.1789 -0.2355
 4682SOL     OW14879   2.187   0.835   0.540 -0.0131 -0.5958  0.1041
 4682SOL    HW114880   2.106   0.876   0.572  0.1725  0.1359 -0.3354
 4682SOL    HW214881   2.161   0.789   0.461 -0.0146 -0.4202  0.0021
 4683SOL     OW14882   6.615   2.016   2.920  0.0170 -0.1108 -0.2301
 4683SOL    HW114883   6.701   2.033   2.959 -0.5267  0.8327  0.6033
 4683SOL    HW214884   6.596   2.095   2.869 -0.2513 -0.4176 -0.6090
 4684SOL     OW14885   7.620   0.562   2.580 -0.4107 -0.0283  0.1488
 4684SOL    HW114886   7.694   0.506   2.604 -0.7856 -0.6904 -0.2153
 4684SOL    HW214887   7.642   0.595   2.493 -0.4060  0.0126  0.1657
 4685SOL     OW14888   3.069   4.414   1.807 -0.0800 -0.4427  0.0727
 4685SOL    HW114889   2.982   4.386   1.780  0.7035 -2.7906 -0.2194
 4685SOL    HW214890   3.085   4.368   1.889  1.6854 -1.8117 -0.9623
 4686SOL     OW14891   0.422   0.244   0.312 -0.4522 -0.1265  0.1902
 4686SOL    HW114892   0.429   0.287   0.397 -0.9616  0.2380  0.0539
 4686SOL    HW214893   0.488   0.287   0.258 -0.3535 -0.1267  0.3122
 4687SOL     OW14894   7.647   6.091   1.004  0.1999 -0.1807 -0.0646
 4687SOL    HW114895   7.676   6.134   0.923 -1.2991 -0.2923 -0.7037
 4687SOL    HW214896   7.676   6.150   1.074  1.4140 -0.0205 -0.6687
 4688SOL     OW14897   6.810   0.852   0.022 -0.5791 -0.3760  0.1259
 4688SOL    HW114898   6.851   0.767   0.038  1.0434  0.6339  1.6163
 4688SOL    HW214899   6.716   0.833   0.021 -0.2407 -2.4873 -1.6782
 4689SOL     OW14900   7.831   4.504   6.721  0.5383 -0.2995 -0.0329
 4689SOL    HW114901   7.808   4.535   6.633  0.9023 -0.6078 -0.2441
 4689SOL    HW214902   7.756   4.527   6.775  0.8268  1.0164 -0.1623
 4690SOL     OW14903   4.857   2.454   2.876 -0.5247 -0.2184  0.3027
 4690SOL    HW114904   4.790   2.390   2.899  0.3281 -1.2153  0.0719
 4690SOL    HW214905   4.872   2.440   2.783 -0.6127  0.6066  0.1547
 4691SOL     OW14906   2.437   5.462   0.532  0.3908  0.2487  0.2497
 4691SOL    HW114907   2.497   5.437   0.602 -0.9244 -0.0741  1.3209
 4691SOL    HW214908   2.417   5.380   0.487  0.1213  0.2133  0.4290
 4692SOL     OW14909   5.137   1.267   6.644 -0.1240  0.0725  0.4790
 4692SOL    HW114910   5.205   1.248   6.709 -0.0306 -0.2208  0.3002
 4692SOL    HW214911   5.129   1.186   6.594  2.7219  1.4245 -2.5808
 4693SOL     OW14912   2.226   1.537   2.601  0.1552  0.7488 -0.0120
 4693SOL    HW114913   2.293   1.574   2.544  0.6553  0.1419  0.1609
 4693SOL    HW214914   2.222   1.445   2.576  0.2841  0.5079  0.8227
 4694SOL     OW14915   1.866   0.874   5.854 -0.0862  0.1481 -0.2228
 4694SOL    HW114916   1.792   0.885   5.914  0.6541  0.6975  0.6066
 4694SOL    HW214917   1.848   0.792   5.808 -0.1757 -0.8007  1.4526
 4695SOL     OW14918   2.746   2.899   2.321  1.0967 -0.1044  0.2408
 4695SOL    HW114919   2.809   2.872   2.387 -0.6089  0.2375  2.1146
 4695SOL    HW214920   2.706   2.978   2.358  0.3007  0.2731 -1.3575
 4696SOL     OW14921   0.478   5.357   4.467 -0.7811  0.5919 -0.1427
 4696SOL    HW114922   0.455   5.359   4.374  0.8291  0.1777 -0.5855
 4696SOL    HW214923   0.400   5.325   4.511 -1.6192  0.9441 -1.3338
 4697SOL     OW14924   6.373   7.822   2.588  0.3850 -0.0168  0.0961
 4697SOL    HW114925   6.282   7.792   2.577  0.1343  0.5342  0.6539
 4697SOL    HW214926   6.408   7.767   2.658  0.1871  0.4044  0.5306
 4698SOL     OW14927   7.399   7.032   1.608  0.0546  0.6415  0.1943
 4698SOL    HW114928   7.310   6.998   1.598  0.7618 -1.3693  0.2577
 4698SOL    HW214929   7.447   6.996   1.533  0.8328  1.6934  0.1655
 4699SOL     OW14930   0.904   6.651   3.875 -0.3003 -0.3526 -0.5901
 4699SOL    HW114931   0.833   6.588   3.883 -0.6449  0.1553  0.6032
 4699SOL    HW214932   0.892   6.711   3.949 -0.6504  1.8092 -2.2955
 4700SOL     OW14933   1.087   0.397   7.885 -0.2484  0.0364 -0.3327
 4700SOL    HW114934   1.125   0.474   7.927 -0.4547 -0.1146  0.1279
 4700SOL    HW214935   1.020   0.433   7.826 -0.0073  0.2391 -0.4912
 4701SOL     OW14936   2.092   2.751   3.783 -0.0750 -0.6877  0.2980
 4701SOL    HW114937   2.172   2.749   3.835 -0.8317 -1.0769  1.4949
 4701SOL    HW214938   2.041   2.823   3.821  0.1642  0.3004 -1.1856
 4702SOL     OW14939   0.873   0.361   2.333  0.0010  0.5834  0.7686
 4702SOL    HW114940   0.961   0.399   2.329  0.1748  0.2726  1.4954
 4702SOL    HW214941   0.843   0.381   2.422 -0.6648  0.6923  0.5201
 4703SOL     OW14942   2.488   3.835   3.785 -0.3925  0.5333  0.0239
 4703SOL    HW114943   2.398   3.864   3.796 -1.8630 -3.3673 -0.1852
 4703SOL    HW214944   2.510   3.856   3.695 -1.4541  0.6886 -0.2026
 4704SOL     OW14945   3.467   6.410   5.282  0.3860 -0.4228 -0.9378
 4704SOL    HW114946   3.392   6.445   5.234 -0.0778 -0.5065 -0.2786
 4704SOL    HW214947   3.522   6.370   5.214 -1.7202 -3.2393 -1.1617
 4705SOL     OW14948   1.196   6.824   0.664 -0.7291 -0.1733  0.3148
 4705SOL    HW114949   1.116   6.787   0.627 -0.3214 -1.8910  1.0326
 4705SOL    HW214950   1.266   6.766   0.633  0.3563  1.6201 -0.7654
 4706SOL     OW14951   6.637   4.124   7.517  0.1357  0.3440  0.3179
 4706SOL    HW114952   6.554   4.105   7.561  0.0936  1.0550  0.5492
 4706SOL    HW214953   6.648   4.219   7.525  1.5476  0.1337  1.3299
 4707SOL     OW14954   1.575   3.406   5.068  0.2985 -0.0756 -0.2554
 4707SOL    HW114955   1.479   3.404   5.075  0.3241 -1.4743  0.0066
 4707SOL    HW214956   1.594   3.489   5.024 -1.1378 -0.4418 -1.6623
 4708SOL     OW14957   0.543   5.602   5.147 -0.1002 -0.3023 -0.1208
 4708SOL    HW114958   0.457   5.646   5.144  0.1304  0.0932 -2.0722
 4708SOL    HW214959   0.534   5.528   5.087  1.3473  0.6371 -1.5907
 4709SOL     OW14960   5.310   4.949   6.648 -0.1833  0.3221  0.4713
 4709SOL    HW114961   5.311   4.855   6.663  0.7134 -0.1397 -2.0562
 4709SOL    HW214962   5.403   4.974   6.645 -0.3224  0.7549 -1.5225
 4710SOL     OW14963   7.335   0.711   2.843 -0.5146 -0.3762 -0.4803
 4710SOL    HW114964   7.375   0.694   2.928  0.6959 -0.0776 -0.9572
 4710SOL    HW214965   7.403   0.687   2.779 -0.0707  2.5783 -1.2739
 4711SOL     OW14966   0.597   3.350   6.917 -0.0848 -0.7275 -0.2031
 4711SOL    HW114967   0.671   3.391   6.872 -1.1169  1.2573 -0.1795
 4711SOL    HW214968   0.581   3.405   6.993 -2.2482 -0.4873 -0.7813
 4712SOL     OW14969   6.516   6.877   5.164 -0.1730  0.0512  0.5207
 4712SOL    HW114970   6.533   6.875   5.258 -0.3486 -0.8227  0.5389
 4712SOL    HW214971   6.597   6.844   5.124 -0.7463 -1.3302  0.4643
 4713SOL     OW14972   6.948   1.072   4.156  0.0541  0.1435 -0.1321
 4713SOL    HW114973   6.966   0.998   4.097  1.5565 -0.2505  0.7625
 4713SOL    HW214974   6.939   1.147   4.098  0.7274 -0.3746 -0.9364
 4714SOL     OW14975   7.198   1.556   6.069 -0.1230 -0.2681 -0.4104
 4714SOL    HW114976   7.211   1.564   6.164  0.8937  1.2600 -0.6361
 4714SOL    HW214977   7.167   1.643   6.042 -1.8449 -1.1120 -1.2930
 4715SOL     OW14978   0.459   0.753   1.438 -0.0141 -0.2655  0.0041
 4715SOL    HW114979   0.527   0.700   1.397  1.4737 -0.2940  2.3362
 4715SOL    HW214980   0.482   0.843   1.418  1.8558 -0.1577  2.2235
 4716SOL     OW14981   2.239   0.356   2.282 -0.1719  0.1294  0.3045
 4716SOL    HW114982   2.219   0.350   2.375  0.4968 -1.3194  0.3821
 4716SOL    HW214983   2.156   0.339   2.238 -0.4771  0.7564  0.6309
 4717SOL     OW14984   1.724   1.074   5.322  0.1732 -0.2357 -0.2950
 4717SOL    HW114985   1.775   1.026   5.387 -2.7201 -1.6811  1.1323
 4717SOL    HW214986   1.746   1.032   5.239  0.4141 -1.6466  0.4449
 4718SOL     OW14987   6.700   6.701   2.977 -0.1105 -0.3440 -0.2395
 4718SOL    HW114988   6.698   6.796   2.961 -0.5854 -0.1722  0.7886
 4718SOL    HW214989   6.754   6.666   2.906  1.7904  0.9242  0.4987
 4719SOL     OW14990   1.371   1.132   5.326 -0.3800  0.0424 -0.0255
 4719SOL    HW114991   1.412   1.139   5.413 -1.9840 -1.4957  0.9406
 4719SOL    HW214992   1.444   1.118   5.266  0.6711 -0.5514  1.3308
 4720SOL     OW14993   3.945   7.248   0.271 -0.6951 -0.1973 -0.4781
 4720SOL    HW114994   3.960   7.314   0.339  1.2527 -1.5147  0.4558
 4720SOL    HW214995   4.032   7.214   0.251 -1.5584 -1.9725 -1.4451
 4721SOL     OW14996   5.100   7.071   3.956  0.0712  0.1991  0.0822
 4721SOL    HW114997   5.182   7.029   3.982 -0.1696  0.6357  1.6882
 4721SOL    HW214998   5.035   7.035   4.016 -0.8318  0.2204 -0.8525
 4722SOL     OW14999   2.065   2.377   0.536  0.0156 -0.2521 -0.1853
 4722SOL    HW115000   2.151   2.379   0.577  0.1696 -1.4273 -0.4176
 4722SOL    HW215001   2.008   2.424   0.597  0.6699 -0.0938  0.3154
 4723SOL     OW15002   3.817   4.572   5.490 -0.0470  0.1174 -0.4048
 4723SOL    HW115003   3.781   4.554   5.403  1.0237  0.8412 -1.0217
 4723SOL    HW215004   3.908   4.542   5.485 -0.0419 -0.0735  0.5658
 4724SOL     OW15005   1.492   2.299   0.494  0.4108 -0.1216  0.3389
 4724SOL    HW115006   1.531   2.350   0.423  0.0753 -1.2895 -0.7262
 4724SOL    HW215007   1.477   2.362   0.564 -1.6945  1.6593 -1.5779
 4725SOL     OW15008   3.884   0.720   4.588  0.0129 -0.0083  0.3381
 4725SOL    HW115009   3.882   0.786   4.519 -0.3206  0.7407  1.0535
 4725SOL    HW215010   3.793   0.710   4.615  0.1524 -0.1866  0.7656
 4726SOL     OW15011   1.069   2.149   7.283  0.6876 -0.2997 -0.8466
 4726SOL    HW115012   1.116   2.066   7.271 -0.2002 -1.2287  1.4911
 4726SOL    HW215013   1.118   2.193   7.352  0.0546  0.2767 -0.7683
 4727SOL     OW15014   2.308   3.444   2.843  0.6840 -0.2237  0.2230
 4727SOL    HW115015   2.337   3.515   2.899 -0.5964 -0.0717  0.7422
 4727SOL    HW215016   2.278   3.487   2.763 -1.4844  0.0489  1.0955
 4728SOL     OW15017   5.750   1.985   6.931 -0.0006  0.0248  0.7695
 4728SOL    HW115018   5.776   1.904   6.975 -0.0826 -0.5278 -0.1784
 4728SOL    HW215019   5.821   2.002   6.869 -0.1862  0.4556  0.6702
 4729SOL     OW15020   3.089   7.243   6.493 -0.0936  0.5416 -0.1439
 4729SOL    HW115021   3.005   7.287   6.509 -0.0846  0.2187  0.8977
 4729SOL    HW215022   3.139   7.306   6.442 -1.2167  0.4523 -1.4121
 4730SOL     OW15023   4.588   3.288   3.114 -0.6608  0.3654 -0.6650
 4730SOL    HW115024   4.682   3.301   3.122 -0.3422 -0.0488 -3.1155
 4730SOL    HW215025   4.552   3.377   3.116  0.0238  0.6981 -1.9705
 4731SOL     OW15026   7.543   5.376   5.817  0.0601 -0.6621 -0.1121
 4731SOL    HW115027   7.462   5.359   5.770 -0.0732 -1.3684  0.3491
 4731SOL    HW215028   7.603   5.308   5.787  0.2598 -0.5601  0.0543
 4732SOL     OW15029   5.864   5.064   7.784 -0.0481  0.4005 -0.3545
 4732SOL    HW115030   5.926   5.129   7.751 -0.2067  1.0638  0.5822
 4732SOL    HW215031   5.797   5.117   7.829 -0.1681 -0.4102  0.4478
 4733SOL     OW15032   1.113   6.628   6.562 -0.3153  0.0907  0.0339
 4733SOL    HW115033   1.176   6.675   6.507  1.0573 -0.7930  0.7898
 4733SOL    HW215034   1.123   6.536   6.536 -0.9911 -0.1106  0.4719
 4734SOL     OW15035   0.710   0.115   7.795 -0.1858 -0.0977 -0.1077
 4734SOL    HW115036   0.726   0.134   7.888  0.0363  0.5218 -0.2710
 4734SOL    HW215037   0.737   0.023   7.785 -2.0820 -0.8081  0.8655
 4735SOL     OW15038   3.035   6.475   6.557 -0.4605  0.3540 -0.2726
 4735SOL    HW115039   2.992   6.479   6.643 -2.1561  1.4637 -1.1362
 4735SOL    HW215040   3.078   6.389   6.556 -3.1496 -1.0940  0.4300
 4736SOL     OW15041   7.293   5.050   0.368 -0.3472 -0.2917  0.0466
 4736SOL    HW115042   7.300   5.041   0.463 -0.6763  0.7591  0.1777
 4736SOL    HW215043   7.332   4.969   0.334  1.4739  0.0954  1.0377
 4737SOL     OW15044   0.480   6.857   4.812 -0.4918  0.5436 -0.7041
 4737SOL    HW115045   0.417   6.799   4.854 -1.2430  0.3728 -2.0289
 4737SOL    HW215046   0.463   6.943   4.851 -1.0810  0.3626 -0.5615
 4738SOL     OW15047   5.900   7.932   3.179 -1.1511 -0.6713  0.0911
 4738SOL    HW115048   5.834   7.984   3.225  0.1754 -0.0510  1.3609
 4738SOL    HW215049   5.978   7.987   3.177 -1.2006 -0.5191 -3.2844
 4739SOL     OW15050   1.991   0.844   5.171 -0.2332  0.0079  0.3243
 4739SOL    HW115051   1.897   0.835   5.153  0.2138 -1.8581 -1.5403
 4739SOL    HW215052   2.025   0.756   5.161  1.9810  0.9234 -0.9052
 4740SOL     OW15053   1.572   5.027   2.555  0.1192 -0.7515  0.3971
 4740SOL    HW115054   1.609   5.100   2.506  2.8432 -1.7001  0.8753
 4740SOL    HW215055   1.477   5.042   2.553  0.3466  0.9727 -2.3096
 4741SOL     OW15056   4.899   7.352   3.654 -0.7485 -0.1630 -0.0288
 4741SOL    HW115057   4.979   7.354   3.707 -0.0098  0.2662 -1.1364
 4741SOL    HW215058   4.873   7.444   3.648 -0.2669 -0.0945 -1.2210
 4742SOL     OW15059   7.926   3.655   0.198  0.3225  0.0265  0.4338
 4742SOL    HW115060   7.914   3.680   0.106  1.1930  1.7030  0.7241
 4742SOL    HW215061   7.934   3.560   0.196  1.0969  0.0831 -1.3267
 4743SOL     OW15062   1.067   3.096   2.237 -0.3857 -0.5990  0.2118
 4743SOL    HW115063   1.042   3.007   2.263 -2.7295 -0.2977 -0.7080
 4743SOL    HW215064   1.079   3.143   2.319  1.0983 -1.7928  0.7167
 4744SOL     OW15065   5.793   5.823   0.553 -0.0392  0.0755 -0.8167
 4744SOL    HW115066   5.802   5.908   0.596  1.5083 -0.6153  0.3338
 4744SOL    HW215067   5.882   5.787   0.554 -0.8765 -2.1309 -0.0652
 4745SOL     OW15068   7.041   5.974   2.693 -0.0008 -0.2087 -0.1492
 4745SOL    HW115069   7.078   5.890   2.667  1.9522  0.6215 -0.2655
 4745SOL    HW215070   7.108   6.012   2.750 -1.2101  0.9248  0.5610
 4746SOL     OW15071   1.514   7.839   6.695  0.1881 -0.0107  0.2383
 4746SOL    HW115072   1.558   7.770   6.744 -2.2845  0.7755  3.9832
 4746SOL    HW215073   1.437   7.796   6.657 -0.3447  0.2413  0.9979
 4747SOL     OW15074   6.868   4.998   1.579  0.1933 -0.0206 -0.0186
 4747SOL    HW115075   6.853   5.056   1.653 -1.2065 -0.5945  0.1807
 4747SOL    HW215076   6.958   4.967   1.590  0.5417  1.1568  0.5300
 4748SOL     OW15077   1.760   1.016   2.370  0.7088  0.1791 -0.1733
 4748SOL    HW115078   1.831   0.979   2.423  0.6493  0.6828  0.2714
 4748SOL    HW215079   1.741   1.100   2.411 -0.1927  0.0235 -0.2561
 4749SOL     OW15080   0.675   1.362   6.527  0.1358 -0.3433  0.2044
 4749SOL    HW115081   0.632   1.278   6.514 -0.2530 -0.2007  0.5250
 4749SOL    HW215082   0.735   1.347   6.600 -0.3682 -0.1981  0.6622
 4750SOL     OW15083   1.069   3.521   2.818 -0.5676  0.4091  0.6752
 4750SOL    HW115084   0.980   3.539   2.847 -0.7134 -1.2182  1.3454
 4750SOL    HW215085   1.091   3.436   2.858  0.2862 -0.5429 -1.6265
 4751SOL     OW15086   7.478   6.248   1.619 -0.7041  1.2493 -0.8667
 4751SOL    HW115087   7.485   6.170   1.565  2.8804 -0.8751  2.2217
 4751SOL    HW215088   7.513   6.318   1.564  0.5337 -0.2884 -2.1248
 4752SOL     OW15089   0.907   0.939   1.314  0.3735 -0.2340  0.5778
 4752SOL    HW115090   0.893   0.849   1.343  0.5541 -0.3202  0.3997
 4752SOL    HW215091   0.863   0.945   1.229  0.0070 -0.0350  0.7773
 4753SOL     OW15092   5.569   3.516   5.598 -0.1899 -0.1067 -0.1043
 4753SOL    HW115093   5.482   3.554   5.581 -0.3794 -0.8115 -0.7767
 4753SOL    HW215094   5.578   3.447   5.533  0.4811 -0.6948  0.5940
 4754SOL     OW15095   4.207   6.273   7.104 -0.9677  0.0462  0.0172
 4754SOL    HW115096   4.281   6.213   7.112 -0.7889  0.3990  1.3174
 4754SOL    HW215097   4.131   6.217   7.088 -0.8488 -0.5870  1.4703
 4755SOL     OW15098   3.812   4.374   6.044  0.0631  0.1491  0.1156
 4755SOL    HW115099   3.897   4.343   6.075  0.3245  1.0338  0.3182
 4755SOL    HW215100   3.833   4.434   5.972 -0.3640  0.6674  0.4123
 4756SOL     OW15101   6.948   7.126   2.672 -0.1881 -0.6570  0.4602
 4756SOL    HW115102   6.873   7.177   2.640  0.4063 -0.0664 -0.0005
 4756SOL    HW215103   6.948   7.141   2.767 -0.9424 -1.0593  0.5359
 4757SOL     OW15104   4.782   1.506   4.994  0.1678  0.2581 -0.5598
 4757SOL    HW115105   4.735   1.467   4.921  0.3409 -0.0111 -0.5302
 4757SOL    HW215106   4.730   1.583   5.018 -0.3161 -0.0974 -0.4515
 4758SOL     OW15107   2.224   3.322   2.155  0.0224 -0.2235  0.5026
 4758SOL    HW115108   2.291   3.272   2.202  3.1075  0.7952 -2.3858
 4758SOL    HW215109   2.265   3.407   2.139 -1.5830  0.1419 -2.2269
 4759SOL     OW15110   5.679   0.225   0.204 -0.3432 -0.7738 -0.7166
 4759SOL    HW115111   5.705   0.135   0.183  0.6736 -0.6954  0.1271
 4759SOL    HW215112   5.586   0.218   0.225 -0.7378 -1.3019 -2.4157
 4760SOL     OW15113   7.507   6.787   0.719  0.6349  0.2903 -0.5912
 4760SOL    HW115114   7.594   6.809   0.686  0.9414  0.6455  0.4369
 4760SOL    HW215115   7.518   6.777   0.813 -0.9099  2.7597 -0.0583
 4761SOL     OW15116   2.539   1.239   3.466 -0.1676  0.0231  0.1078
 4761SOL    HW115117   2.593   1.169   3.503 -1.2415 -1.4645 -0.9746
 4761SOL    HW215118   2.517   1.295   3.540  0.9987 -0.6048  0.9520
 4762SOL     OW15119   4.417   5.140   7.898  0.7250  0.2533  0.2905
 4762SOL    HW115120   4.462   5.182   7.825 -1.5371  0.6170 -1.0146
 4762SOL    HW215121   4.386   5.213   7.953  0.4357  0.1089  0.3241
 4763SOL     OW15122   5.625   3.650   3.314 -0.2759  0.3288 -0.5681
 4763SOL    HW115123   5.710   3.692   3.299  0.3360 -0.3568  0.8914
 4763SOL    HW215124   5.619   3.583   3.246  0.1621  0.6346 -0.9169
 4764SOL     OW15125   6.689   4.861   4.789 -0.3504  0.3424  0.1020
 4764SOL    HW115126   6.761   4.923   4.795  0.3323 -0.3733 -0.4409
 4764SOL    HW215127   6.613   4.908   4.823  0.1229  1.5151 -0.4109
 4765SOL     OW15128   1.089   7.147   6.264  0.4137  0.8497 -0.0867
 4765SOL    HW115129   0.996   7.171   6.253  0.7915  1.9036 -1.2555
 4765SOL    HW215130   1.136   7.228   6.244  1.6296  0.0169 -0.6553
 4766SOL     OW15131   4.399   0.627   1.709 -0.8124  0.5950 -0.8458
 4766SOL    HW115132   4.344   0.589   1.778 -0.7718 -0.7198 -1.4952
 4766SOL    HW215133   4.358   0.597   1.628  0.5420  0.0261 -1.3546
 4767SOL     OW15134   0.081   3.226   7.429 -0.1071 -0.0881 -0.1669
 4767SOL    HW115135   0.015   3.161   7.409 -0.6267  0.3028  0.2504
 4767SOL    HW215136   0.081   3.285   7.354 -2.0203  1.3504  0.8675
 4768SOL     OW15137   6.768   3.994   2.963 -0.8291  0.2726 -0.0196
 4768SOL    HW115138   6.808   3.972   2.879  0.9089 -0.6233  0.9828
 4768SOL    HW215139   6.727   4.080   2.949  0.3858  0.6518 -1.4840
 4769SOL     OW15140   2.192   1.272   5.084 -0.5486  0.2587 -0.3052
 4769SOL    HW115141   2.271   1.232   5.049  0.8914  0.2613  2.6094
 4769SOL    HW215142   2.123   1.208   5.069  0.5342 -0.8344 -0.7668
 4770SOL     OW15143   4.836   5.792   7.073  0.1625  0.0153  0.3979
 4770SOL    HW115144   4.893   5.851   7.024 -0.4858  1.0702  0.8776
 4770SOL    HW215145   4.772   5.762   7.010 -0.2470  0.8153  0.4211
 4771SOL     OW15146   2.863   3.719   4.939 -0.2680 -0.5923  0.0050
 4771SOL    HW115147   2.794   3.697   5.001  0.0189  1.9231  1.3857
 4771SOL    HW215148   2.944   3.706   4.988 -0.0243  1.2176  0.1525
 4772SOL     OW15149   5.911   6.851   3.337 -0.2599 -0.4203 -0.1345
 4772SOL    HW115150   5.829   6.897   3.320 -1.3842 -2.0765  0.5372
 4772SOL    HW215151   5.894   6.761   3.309  1.4730 -0.7196 -0.3273
 4773SOL     OW15152   7.817   2.482   0.685 -0.7100 -0.1714  0.1731
 4773SOL    HW115153   7.733   2.508   0.722  0.2855  2.2392  0.9328
 4773SOL    HW215154   7.820   2.525   0.600  0.4211  1.2210  0.8790
 4774SOL     OW15155   4.842   7.885   4.395 -0.1328  0.1328 -0.5817
 4774SOL    HW115156   4.799   7.926   4.320 -1.0680 -0.4777 -0.3886
 4774SOL    HW215157   4.930   7.864   4.363 -0.4252  0.1409 -1.4213
 4775SOL     OW15158   0.197   3.891   4.372  0.0170  0.0316 -0.7405
 4775SOL    HW115159   0.246   3.815   4.403 -0.7270 -0.7996 -1.5451
 4775SOL    HW215160   0.264   3.959   4.361  0.8425 -0.7715 -0.8625
 4776SOL     OW15161   6.840   1.433   1.383 -0.1871 -0.4534 -0.4282
 4776SOL    HW115162   6.866   1.515   1.425 -0.4992 -0.1014 -0.9172
 4776SOL    HW215163   6.848   1.367   1.452  0.2209 -0.0419 -0.0761
 4777SOL     OW15164   6.774   5.125   1.827  0.2970 -0.2295 -0.1643
 4777SOL    HW115165   6.694   5.162   1.864 -0.2576  0.5213 -1.9941
 4777SOL    HW215166   6.844   5.163   1.880 -0.4845  0.2086  0.5904
 4778SOL     OW15167   4.727   7.462   0.580 -0.4122  0.2794  0.6349
 4778SOL    HW115168   4.708   7.555   0.594  0.4654  0.7649 -1.1180
 4778SOL    HW215169   4.797   7.443   0.642  1.9106  1.7845 -1.3742
 4779SOL     OW15170   6.246   7.182   5.269  0.0246  0.2909 -0.0147
 4779SOL    HW115171   6.233   7.163   5.176  0.9596 -0.0674 -0.0858
 4779SOL    HW215172   6.223   7.100   5.313  0.9517  0.0008 -0.0550
 4780SOL     OW15173   7.218   2.109   4.127 -0.3767  0.6761  0.1621
 4780SOL    HW115174   7.212   2.082   4.035 -2.4482  1.3009  0.0611
 4780SOL    HW215175   7.177   2.195   4.129 -0.5981  0.5643  1.7066
 4781SOL     OW15176   5.794   5.515   2.787  0.2498  0.7926 -0.4697
 4781SOL    HW115177   5.886   5.537   2.792  0.3946  0.1142  0.0096
 4781SOL    HW215178   5.748   5.592   2.821  0.6783  0.8041  0.0879
 4782SOL     OW15179   4.170   2.077   6.615 -0.0760 -0.0723 -0.0874
 4782SOL    HW115180   4.166   2.035   6.701  1.4242 -0.0854  0.0068
 4782SOL    HW215181   4.131   2.163   6.628 -0.9981 -0.5331  0.2903
 4783SOL     OW15182   5.433   1.635   0.040 -0.0321 -0.3376 -0.4933
 4783SOL    HW115183   5.518   1.664   0.074  0.3206 -0.3537 -1.3319
 4783SOL    HW215184   5.405   1.705  -0.019 -1.3106  0.3561  0.8602
 4784SOL     OW15185   1.775   0.399   0.544  0.1303 -0.9836 -0.5376
 4784SOL    HW115186   1.763   0.304   0.542  0.0617 -0.9701 -0.7766
 4784SOL    HW215187   1.735   0.426   0.627  3.5502 -1.6219  1.5186
 4785SOL     OW15188   0.444   2.067   2.491  0.4022 -0.2759  0.0104
 4785SOL    HW115189   0.460   1.975   2.513  1.7816 -0.4193 -1.3439
 4785SOL    HW215190   0.449   2.069   2.395 -2.5564  0.7392 -0.2203
 4786SOL     OW15191   3.857   6.109   3.912 -0.0347  0.1684  0.5320
 4786SOL    HW115192   3.948   6.079   3.908 -0.0301  0.0085  1.6643
 4786SOL    HW215193   3.862   6.204   3.907  0.0725  0.1117 -1.0898
 4787SOL     OW15194   6.606   2.852   4.107 -0.4177  0.0957 -0.1394
 4787SOL    HW115195   6.530   2.806   4.144 -1.0192 -0.5714 -2.0392
 4787SOL    HW215196   6.585   2.859   4.014  1.7222  0.1874 -0.6538
 4788SOL     OW15197   3.584   0.558   5.612  0.2999 -0.4883  0.0235
 4788SOL    HW115198   3.623   0.545   5.698  2.6824 -0.3495 -0.9312
 4788SOL    HW215199   3.579   0.470   5.575  0.4543 -0.4336 -0.1321
 4789SOL     OW15200   1.794   5.936   1.830 -0.0807  0.4382  0.0993
 4789SOL    HW115201   1.718   5.946   1.774  0.0440 -2.0490 -0.6394
 4789SOL    HW215202   1.820   6.026   1.852 -0.6597  1.5040 -3.1053
 4790SOL     OW15203   0.527   7.351   4.318 -0.1171  0.0089  0.0312
 4790SOL    HW115204   0.611   7.335   4.277  0.3395 -1.0905  1.3238
 4790SOL    HW215205   0.463   7.330   4.250  0.6290  0.6196 -0.8835
 4791SOL     OW15206   3.886   6.748   4.600 -0.0091  0.2844 -0.2502
 4791SOL    HW115207   3.887   6.655   4.576 -0.1527  0.7005 -2.0368
 4791SOL    HW215208   3.858   6.749   4.691 -0.8873 -1.3779 -0.4633
 4792SOL     OW15209   1.289   5.472   2.691  0.0918 -0.1305 -0.4575
 4792SOL    HW115210   1.362   5.498   2.635 -1.0893  2.1555 -1.0490
 4792SOL    HW215211   1.331   5.431   2.767  2.0425  1.6353 -0.4924
 4793SOL     OW15212   0.918   5.540   4.434 -0.8056 -0.6888  0.9843
 4793SOL    HW115213   0.835   5.511   4.397 -0.2530  0.1648 -1.0926
 4793SOL    HW215214   0.967   5.459   4.449 -0.5018 -1.0907 -1.6731
 4794SOL     OW15215   3.297   1.971   1.961 -0.6194  0.0610 -0.0735
 4794SOL    HW115216   3.275   1.976   1.868  0.2021  1.4656 -0.2098
 4794SOL    HW215217   3.375   1.915   1.963  0.8056  1.9197 -0.5412
 4795SOL     OW15218   4.041   7.475   2.625 -0.0679 -0.0129  0.3607
 4795SOL    HW115219   4.052   7.504   2.534  1.8845 -0.6712  0.3348
 4795SOL    HW215220   3.970   7.529   2.659  2.1262  3.5849 -0.1801
 4796SOL     OW15221   4.784   6.165   1.535 -0.0493 -0.5272 -0.1127
 4796SOL    HW115222   4.697   6.126   1.543  0.3761 -1.6499 -0.8121
 4796SOL    HW215223   4.769   6.259   1.542 -1.4912 -0.6233 -1.5012
 4797SOL     OW15224   5.493   4.589   7.291 -0.1673  0.2712 -0.4882
 4797SOL    HW115225   5.553   4.662   7.277 -0.3392  0.5273  0.0598
 4797SOL    HW215226   5.500   4.569   7.385 -1.3817  0.7139 -0.2805
 4798SOL     OW15227   7.715   4.852   6.431 -0.5486 -0.0537 -0.5887
 4798SOL    HW115228   7.804   4.856   6.467 -0.7387  0.6768 -0.1915
 4798SOL    HW215229   7.728   4.844   6.336 -0.0471 -1.4612 -0.4336
 4799SOL     OW15230   7.452   6.156   2.767  0.2577 -0.1258 -0.2064
 4799SOL    HW115231   7.402   6.132   2.688 -0.1742  0.7440 -0.2157
 4799SOL    HW215232   7.507   6.229   2.738 -2.2046  2.3915  0.9999
 4800SOL     OW15233   1.276   4.766   7.032 -0.5239  0.0623  0.6070
 4800SOL    HW115234   1.181   4.755   7.027 -0.2963 -1.7984 -0.6257
 4800SOL    HW215235   1.306   4.690   7.082  0.3139  0.6599  1.0300
 4801SOL     OW15236   6.059   4.729   3.714  0.0940 -0.2788  0.1798
 4801SOL    HW115237   6.028   4.777   3.637  0.4191 -0.3334  0.0147
 4801SOL    HW215238   6.024   4.641   3.702 -1.0725  0.0814  0.8207
 4802SOL     OW15239   0.134   3.337   3.472  0.2764  0.1483 -0.1930
 4802SOL    HW115240   0.168   3.269   3.414 -2.1801 -0.2147 -1.3247
 4802SOL    HW215241   0.138   3.297   3.559 -0.3023 -1.1424 -0.7281
 4803SOL     OW15242   2.072   7.702   3.021  0.0730  0.0399  0.3808
 4803SOL    HW115243   2.112   7.615   3.018  0.5958  0.2701  0.5340
 4803SOL    HW215244   2.131   7.758   2.970  2.1058  1.2128  3.6313
 4804SOL     OW15245   4.693   1.554   2.218  0.1523  0.6437  0.8944
 4804SOL    HW115246   4.644   1.479   2.184 -0.0857  1.4860 -0.6934
 4804SOL    HW215247   4.715   1.529   2.308 -1.6697 -0.4724  1.0750
 4805SOL     OW15248   1.546   0.866   7.345 -0.1929 -0.6452  0.1697
 4805SOL    HW115249   1.535   0.877   7.251  1.7215 -2.0144 -0.2935
 4805SOL    HW215250   1.476   0.806   7.371 -0.0390 -1.1802 -0.6249
 4806SOL     OW15251   1.236   4.315   7.425 -0.0586 -0.2735  0.1311
 4806SOL    HW115252   1.214   4.237   7.375  0.8033  0.5938 -1.7066
 4806SOL    HW215253   1.332   4.314   7.431  0.0670  1.1609 -0.9148
 4807SOL     OW15254   2.753   0.746   4.330 -0.1988  0.4268 -0.0650
 4807SOL    HW115255   2.740   0.669   4.275 -0.0092  0.3774 -0.0408
 4807SOL    HW215256   2.671   0.754   4.380 -0.0905  0.0439  0.1795
 4808SOL     OW15257   4.854   5.660   0.409  0.9037  0.0526  0.4321
 4808SOL    HW115258   4.808   5.713   0.475  0.2963  0.1089 -0.0313
 4808SOL    HW215259   4.807   5.677   0.328  0.3972 -1.5444  0.3552
 4809SOL     OW15260   4.402   6.540   4.699 -0.0878  0.1895 -0.5030
 4809SOL    HW115261   4.393   6.620   4.752 -1.0646 -0.7827  0.8877
 4809SOL    HW215262   4.489   6.547   4.661  0.8567  0.7892  1.5873
 4810SOL     OW15263   6.511   4.705   4.598  0.5517 -0.1220  0.5112
 4810SOL    HW115264   6.491   4.767   4.528  0.7136 -1.6420 -0.9801
 4810SOL    HW215265   6.564   4.755   4.660 -0.3254  1.5209 -0.0044
 4811SOL     OW15266   1.665   3.552   1.381  0.1939  0.0540 -0.2295
 4811SOL    HW115267   1.625   3.527   1.465 -1.5419 -1.8752 -1.5366
 4811SOL    HW215268   1.743   3.497   1.375 -1.3571 -2.2005 -1.1860
 4812SOL     OW15269   2.025   4.299   2.687 -0.3039 -0.4327 -0.3001
 4812SOL    HW115270   2.070   4.384   2.689 -0.7737 -0.1544  2.0283
 4812SOL    HW215271   1.958   4.308   2.620 -1.1297  1.5122  0.7072
 4813SOL     OW15272   7.729   5.233   2.206  0.2367 -0.0465 -0.3216
 4813SOL    HW115273   7.744   5.282   2.287 -0.4006 -0.4362  0.0393
 4813SOL    HW215274   7.817   5.219   2.170  0.5421 -0.0134  0.3880
 4814SOL     OW15275   3.686   7.853   0.968  0.6277 -0.7137 -0.5274
 4814SOL    HW115276   3.641   7.768   0.976 -0.1725 -0.3459 -0.9769
 4814SOL    HW215277   3.733   7.847   0.885 -0.8494 -0.0961 -1.4506
 4815SOL     OW15278   5.574   7.914   1.973 -0.0741 -0.8968 -0.7305
 4815SOL    HW115279   5.561   7.862   2.053 -1.3084  2.3947  1.4000
 4815SOL    HW215280   5.639   7.980   1.998  0.0322 -0.1882 -2.7200
 4816SOL     OW15281   0.077   3.442   6.432  0.1483  0.1746 -0.0787
 4816SOL    HW115282   0.061   3.521   6.484  2.3128  0.3505  0.3967
 4816SOL    HW215283  -0.003   3.390   6.442 -0.6637  1.5509  0.9462
 4817SOL     OW15284   0.908   7.763   3.864  0.2190  0.0739 -0.3231
 4817SOL    HW115285   0.953   7.743   3.783  0.2975  2.6782 -1.0164
 4817SOL    HW215286   0.816   7.775   3.838  0.3611  1.6160 -0.2130
 4818SOL     OW15287   0.379   7.205   5.267  0.2372  0.6450  0.4779
 4818SOL    HW115288   0.390   7.190   5.361  0.7318 -0.6080  0.2356
 4818SOL    HW215289   0.387   7.300   5.258 -0.5375  0.8664  1.7837
 4819SOL     OW15290   3.682   0.405   3.057 -0.2639  0.1627  0.5097
 4819SOL    HW115291   3.636   0.447   2.984 -0.0857  1.1765  0.9672
 4819SOL    HW215292   3.756   0.463   3.075  0.7115 -0.9865  0.3616
 4820SOL     OW15293   5.857   4.630   3.989  0.4911  0.0753 -0.6165
 4820SOL    HW115294   5.792   4.604   4.054 -0.9371 -0.2401 -2.1040
 4820SOL    HW215295   5.806   4.652   3.911  2.0802  1.2869 -1.3842
 4821SOL     OW15296   2.917   6.854   6.909 -0.7647 -0.5009  0.3074
 4821SOL    HW115297   2.885   6.767   6.889  1.0573 -0.9409 -1.0269
 4821SOL    HW215298   2.905   6.903   6.827  0.5541 -0.2856  0.2146
 4822SOL     OW15299   7.596   5.442   4.049 -0.1661 -0.1534 -0.0532
 4822SOL    HW115300   7.503   5.424   4.032 -0.7908  1.5591  1.1945
 4822SOL    HW215301   7.615   5.519   3.995 -0.3606  1.3258  1.8652
 4823SOL     OW15302   4.833   7.533   5.437  0.2331  0.0887 -0.0181
 4823SOL    HW115303   4.811   7.626   5.427  2.3910  0.5103 -1.6778
 4823SOL    HW215304   4.917   7.534   5.483  0.9779 -0.9151 -1.2748
 4824SOL     OW15305   2.458   3.346   7.237  0.5389  0.0564  0.5517
 4824SOL    HW115306   2.422   3.270   7.283  0.9152 -0.5495 -0.1414
 4824SOL    HW215307   2.384   3.407   7.230 -0.3204 -1.0839 -0.6834
 4825SOL     OW15308   4.637   5.699   4.719 -0.0413  0.3122  0.3834
 4825SOL    HW115309   4.659   5.789   4.696 -1.2507  0.7460  0.8724
 4825SOL    HW215310   4.652   5.693   4.813 -1.7065  0.5612  0.6957
 4826SOL     OW15311   0.858   3.153   7.828  0.5803  0.1168 -0.0529
 4826SOL    HW115312   0.938   3.165   7.777 -0.5858  0.8119 -1.7961
 4826SOL    HW215313   0.813   3.080   7.786 -0.6607  1.0503 -0.4251
 4827SOL     OW15314   6.738   3.748   7.050  0.2788 -0.3823 -0.0767
 4827SOL    HW115315   6.667   3.812   7.042  0.2203 -0.2109  1.5236
 4827SOL    HW215316   6.800   3.773   6.981 -1.1765 -0.5313 -1.4925
 4828SOL     OW15317   2.899   2.383   1.508  0.3020  0.0109 -0.4412
 4828SOL    HW115318   2.957   2.420   1.575 -0.3508 -1.7255  1.1739
 4828SOL    HW215319   2.937   2.298   1.488 -0.8142 -0.4703 -0.5496
 4829SOL     OW15320   5.841   6.008   6.803 -0.1252 -0.2808 -0.7733
 4829SOL    HW115321   5.807   6.036   6.888  2.2476  0.9143 -0.1444
 4829SOL    HW215322   5.933   5.991   6.818  0.4282  0.2267 -3.1710
 4830SOL     OW15323   2.537   0.087   3.857 -0.6160 -0.5121 -0.1269
 4830SOL    HW115324   2.474   0.115   3.790 -0.9518  0.5447  0.5995
 4830SOL    HW215325   2.617   0.136   3.836 -0.2272 -1.3592 -0.6623
 4831SOL     OW15326   6.062   2.798   4.357  0.4181  0.0193  0.3227
 4831SOL    HW115327   6.117   2.720   4.351  1.0545  0.4346  0.6130
 4831SOL    HW215328   5.981   2.773   4.314 -0.0178 -1.3609  1.8412
 4832SOL     OW15329   1.048   0.660   7.071 -0.1476  0.0873 -0.3498
 4832SOL    HW115330   1.075   0.590   7.012  1.3502 -0.2347  0.6753
 4832SOL    HW215331   1.025   0.733   7.013  1.9179  0.0063 -1.3381
 4833SOL     OW15332   3.423   0.432   7.596 -0.3109  0.1202  0.0461
 4833SOL    HW115333   3.380   0.411   7.513  3.2856  1.2573 -2.3325
 4833SOL    HW215334   3.414   0.527   7.604 -0.4574  0.0438  0.8740
 4834SOL     OW15335   7.773   6.683   0.076 -0.5268 -0.2967  0.3068
 4834SOL    HW115336   7.835   6.625   0.032 -0.6927  0.0336 -0.3714
 4834SOL    HW215337   7.795   6.675   0.169 -0.1727 -0.9996  0.1718
 4835SOL     OW15338   0.350   1.271   6.196  0.2464  0.6460 -0.2506
 4835SOL    HW115339   0.281   1.299   6.136 -1.0333 -1.4542  0.0963
 4835SOL    HW215340   0.380   1.351   6.239  1.4167  2.2819 -3.7936
 4836SOL     OW15341   3.739   4.062   1.436 -0.5131 -0.3767  0.9642
 4836SOL    HW115342   3.766   4.019   1.354 -0.1393 -0.5831  1.1928
 4836SOL    HW215343   3.821   4.087   1.478 -0.6922  2.6037 -0.1938
 4837SOL     OW15344   1.917   4.727   3.855 -0.4834  0.2326  0.0073
 4837SOL    HW115345   1.888   4.706   3.766  0.5415  2.4699 -0.9148
 4837SOL    HW215346   1.939   4.820   3.853  2.7969 -0.3442  1.6872
 4838SOL     OW15347   3.678   0.693   6.790  0.1597  0.2989 -0.2092
 4838SOL    HW115348   3.702   0.786   6.788  1.1935  0.0827  0.6803
 4838SOL    HW215349   3.617   0.682   6.718  0.8114  1.4662 -0.9695
 4839SOL     OW15350   6.461   5.032   3.281  0.0443  0.0491  0.1761
 4839SOL    HW115351   6.545   5.058   3.243 -0.5775  1.8274 -0.0778
 4839SOL    HW215352   6.395   5.080   3.230 -0.9689  0.5050  1.8245
 4840SOL     OW15353   1.953   3.481   3.987  0.0388 -0.2401 -0.5289
 4840SOL    HW115354   1.928   3.558   4.038  2.2380  0.9128 -1.0550
 4840SOL    HW215355   1.925   3.502   3.897  2.7511  1.1490 -1.1619
 4841SOL     OW15356   6.655   5.867   6.479 -0.2848 -0.0067  0.2443
 4841SOL    HW115357   6.669   5.773   6.490 -0.0110  0.0009 -0.0418
 4841SOL    HW215358   6.561   5.876   6.465 -0.1113 -0.3845 -1.2698
 4842SOL     OW15359   1.356   7.719   6.448 -0.9201  0.0760  0.1528
 4842SOL    HW115360   1.321   7.720   6.359  0.4000 -0.5562 -0.4023
 4842SOL    HW215361   1.436   7.666   6.442 -1.0653 -0.4086  1.8129
 4843SOL     OW15362   3.610   1.721   5.935 -0.2852 -0.3049  1.2114
 4843SOL    HW115363   3.659   1.798   5.966 -0.5385 -0.5205  2.2020
 4843SOL    HW215364   3.578   1.680   6.016 -0.3452 -1.3242  0.6743
 4844SOL     OW15365   5.656   1.240   7.410  0.4755 -0.1286 -0.6835
 4844SOL    HW115366   5.714   1.167   7.428 -0.1535  0.0587  2.7771
 4844SOL    HW215367   5.712   1.318   7.420 -0.1876  0.0575  2.7646
 4845SOL     OW15368   0.449   5.624   2.737  0.4997 -0.2074 -0.5169
 4845SOL    HW115369   0.499   5.542   2.735 -0.8651 -1.1708  1.6605
 4845SOL    HW215370   0.484   5.671   2.813  1.4940  1.4729 -1.9236
 4846SOL     OW15371   7.829   3.490   4.927 -0.3887 -0.5695  0.5513
 4846SOL    HW115372   7.824   3.583   4.947 -0.7164  0.0676 -2.0782
 4846SOL    HW215373   7.922   3.469   4.931 -0.0693  0.4337 -0.8654
 4847SOL     OW15374   2.580   5.991   4.040 -0.6116  0.4327 -0.0084
 4847SOL    HW115375   2.655   5.989   3.981 -0.9335  0.3222 -0.4192
 4847SOL    HW215376   2.512   5.942   3.994 -0.5773 -0.4790  0.8642
 4848SOL     OW15377   3.115   1.813   1.319  0.1436 -0.4737 -0.5689
 4848SOL    HW115378   3.036   1.835   1.271  0.0096  2.4969  0.7978
 4848SOL    HW215379   3.098   1.843   1.409  2.6046 -0.2124 -0.1157
 4849SOL     OW15380   5.583   7.711   1.667 -0.2470 -0.2329 -0.1452
 4849SOL    HW115381   5.653   7.756   1.714  1.0517 -1.5097 -0.7925
 4849SOL    HW215382   5.514   7.700   1.732  0.7522 -0.2740  0.9451
 4850SOL     OW15383   0.918   6.761   4.155  0.4243  0.3243  0.4703
 4850SOL    HW115384   0.916   6.666   4.156 -1.8534  0.3190  1.0019
 4850SOL    HW215385   0.945   6.785   4.244 -0.0772  0.1567  0.6731
 4851SOL     OW15386   3.261   2.315   6.721  0.4498 -0.5439  0.2665
 4851SOL    HW115387   3.347   2.356   6.716  0.2821 -0.1254  0.7889
 4851SOL    HW215388   3.260   2.269   6.805  0.0303 -0.2467  0.4255
 4852SOL     OW15389   7.918   6.561   0.345 -0.5091 -0.3719  0.4339
 4852SOL    HW115390   7.973   6.543   0.421  0.3153 -0.3452 -0.1457
 4852SOL    HW215391   7.939   6.492   0.282 -0.5279  0.1126 -0.1163
 4853SOL     OW15392   6.263   4.753   7.041 -0.4022 -0.5152 -0.4794
 4853SOL    HW115393   6.252   4.674   6.988 -1.2805 -0.5381 -0.2879
 4853SOL    HW215394   6.287   4.721   7.128  0.8726 -0.4838 -0.7964
 4854SOL     OW15395   3.640   6.055   4.063 -0.2942 -0.1019  0.3096
 4854SOL    HW115396   3.718   6.059   4.007  0.8977  1.4849  1.9582
 4854SOL    HW215397   3.672   6.015   4.144 -0.8998  1.5085  1.3845
 4855SOL     OW15398   1.873   2.495   5.500 -0.2596  0.2205  0.1024
 4855SOL    HW115399   1.811   2.523   5.432  0.3776 -3.8342 -2.5036
 4855SOL    HW215400   1.959   2.516   5.465  0.0347 -0.4148  0.4238
 4856SOL     OW15401   3.950   5.370   3.225 -0.2011  0.2294  0.1991
 4856SOL    HW115402   3.969   5.327   3.141  0.3449  1.3392 -0.2786
 4856SOL    HW215403   3.862   5.406   3.214 -0.8796 -1.1704  0.7961
 4857SOL     OW15404   0.550   4.066   5.417  0.3703  0.1144 -0.1941
 4857SOL    HW115405   0.561   4.133   5.350  0.5649 -0.2573 -0.5394
 4857SOL    HW215406   0.628   4.072   5.471  0.8874 -0.5187 -0.8472
 4858SOL     OW15407   1.829   6.775   3.345 -0.2782  0.6091  0.5487
 4858SOL    HW115408   1.737   6.752   3.331  0.2376 -0.9757 -0.5025
 4858SOL    HW215409   1.840   6.772   3.440 -1.4436  1.4342  0.7340
 4859SOL     OW15410   3.592   2.878   3.560  0.2605  0.2202 -0.3556
 4859SOL    HW115411   3.614   2.927   3.481 -0.4534  0.3802 -0.4621
 4859SOL    HW215412   3.505   2.842   3.542  0.6767 -0.9069 -0.1888
 4860SOL     OW15413   2.744   3.930   6.064  0.2138 -0.5353  0.5149
 4860SOL    HW115414   2.729   3.919   6.158 -0.7286  0.7650  0.5444
 4860SOL    HW215415   2.828   3.976   6.058 -0.6123  1.1030  0.8524
 4861SOL     OW15416   7.568   4.437   1.641 -0.1637  0.2141  0.4786
 4861SOL    HW115417   7.512   4.481   1.578  1.9863 -1.2922 -2.7140
 4861SOL    HW215418   7.528   4.351   1.653 -1.5328  1.0757  2.7039
 4862SOL     OW15419   2.500   6.136   3.694 -0.3727  0.0274 -0.6345
 4862SOL    HW115420   2.446   6.212   3.716  1.1105  0.7014  0.8144
 4862SOL    HW215421   2.588   6.159   3.723  0.2061 -2.0796 -0.5709
 4863SOL     OW15422   6.113   4.838   1.941  0.2529 -0.3889  0.0235
 4863SOL    HW115423   6.040   4.892   1.971 -0.9709 -0.9339 -1.7612
 4863SOL    HW215424   6.174   4.836   2.014 -0.3428  2.1564  0.6864
 4864SOL     OW15425   5.833   7.861   6.906 -0.3157 -0.2565 -0.1171
 4864SOL    HW115426   5.908   7.830   6.956 -0.1185 -1.5292 -1.1424
 4864SOL    HW215427   5.757   7.830   6.956 -0.1321 -0.7561 -0.1385
 4865SOL     OW15428   1.135   1.533   1.862 -0.1642  0.1914 -0.2801
 4865SOL    HW115429   1.152   1.613   1.812 -2.3904  0.3394 -0.8892
 4865SOL    HW215430   1.054   1.552   1.910  0.1967 -1.1074  0.8948
 4866SOL     OW15431   3.569   5.238   5.796  0.1699  0.0333 -0.2233
 4866SOL    HW115432   3.555   5.203   5.884  2.6362 -2.9691 -0.8536
 4866SOL    HW215433   3.494   5.206   5.746 -0.3112  0.2173  0.3598
 4867SOL     OW15434   7.255   0.055   4.390  0.4622 -0.2477 -0.1308
 4867SOL    HW115435   7.316   0.118   4.352 -0.0880 -0.5429 -1.5537
 4867SOL    HW215436   7.311  -0.017   4.420  0.8495 -0.3981 -1.1841
 4868SOL     OW15437   3.564   3.181   0.305  0.4657  0.3503 -0.4427
 4868SOL    HW115438   3.629   3.185   0.376 -0.0119  0.3761  0.0006
 4868SOL    HW215439   3.614   3.198   0.226  0.9618  0.6102 -0.0805
 4869SOL     OW15440   0.066   5.460   0.753 -0.0825 -0.4715 -0.3317
 4869SOL    HW115441  -0.012   5.480   0.701 -0.4547 -1.6144 -0.2408
 4869SOL    HW215442   0.063   5.524   0.824 -1.4104 -0.9831  0.1220
 4870SOL     OW15443   1.945   5.227   2.575  0.3128  0.2129 -0.2118
 4870SOL    HW115444   2.040   5.242   2.566  0.3304  0.3790  0.2140
 4870SOL    HW215445   1.919   5.282   2.649 -0.8621  3.2450 -2.6700
 4871SOL     OW15446   7.562   4.953   5.684  0.5728  0.1134  0.3910
 4871SOL    HW115447   7.600   5.037   5.658 -0.6340  0.9992  1.3451
 4871SOL    HW215448   7.525   4.918   5.604  0.4793  0.8385  0.1051
 4872SOL     OW15449   4.273   0.800   2.754 -0.0696 -0.4031  0.9999
 4872SOL    HW115450   4.362   0.766   2.750  0.0798  0.0356  0.4155
 4872SOL    HW215451   4.256   0.833   2.666 -0.6692 -0.1235  1.2132
 4873SOL     OW15452   4.986   0.049   5.604 -0.2804  0.2397  0.0707
 4873SOL    HW115453   5.010   0.136   5.571 -0.8413  0.3535 -0.0479
 4873SOL    HW215454   5.068  -0.000   5.604 -0.3557 -0.0021 -2.1766
 4874SOL     OW15455   7.809   4.282   6.012 -0.5498 -0.1225 -0.1846
 4874SOL    HW115456   7.890   4.333   6.003 -0.0891 -0.7757  0.1939
 4874SOL    HW215457   7.753   4.336   6.067 -1.0363  1.1101 -1.8014
 4875SOL     OW15458   2.617   5.432   6.322 -0.1250 -0.2824  0.4788
 4875SOL    HW115459   2.688   5.372   6.344  0.4398  0.1338 -0.1963
 4875SOL    HW215460   2.614   5.432   6.227 -1.3944 -0.7154  0.4922
 4876SOL     OW15461   5.333   6.165   1.579  0.2752 -0.0783  0.2382
 4876SOL    HW115462   5.320   6.116   1.498  0.5453  1.0351 -0.5012
 4876SOL    HW215463   5.354   6.099   1.644  0.1655 -0.9849 -0.6280
 4877SOL     OW15464   4.023   1.700   5.463  0.2015 -0.1285 -0.5105
 4877SOL    HW115465   3.986   1.764   5.523 -1.6760  0.1227 -1.8414
 4877SOL    HW215466   4.111   1.732   5.444  0.2223  0.6469  0.8255
 4878SOL     OW15467   3.243   4.702   4.281 -0.2612 -0.0403  0.2912
 4878SOL    HW115468   3.311   4.675   4.219 -0.4994 -1.7010  0.7072
 4878SOL    HW215469   3.161   4.673   4.240 -0.4884 -0.4078  0.9995
 4879SOL     OW15470   5.585   4.232   3.116 -0.4719 -0.0323  0.3023
 4879SOL    HW115471   5.560   4.324   3.115 -0.0362  0.0853  0.2848
 4879SOL    HW215472   5.536   4.194   3.189  0.0405  0.4028  0.8726
 4880SOL     OW15473   6.905   5.922   7.001 -0.1404 -0.1545 -0.0698
 4880SOL    HW115474   6.950   5.839   6.987 -1.3007 -1.0286  1.1154
 4880SOL    HW215475   6.813   5.904   6.981 -0.4112  0.8380  0.1975
 4881SOL     OW15476   6.043   6.683   4.508  0.7789  0.5528  0.1840
 4881SOL    HW115477   5.956   6.720   4.490  0.8735  1.2252  1.0527
 4881SOL    HW215478   6.051   6.611   4.445 -0.7058  0.0183  0.5385
 4882SOL     OW15479   7.505   2.394   5.265  0.3833  0.1383  0.2757
 4882SOL    HW115480   7.554   2.321   5.227 -0.5567 -0.3867  0.0340
 4882SOL    HW215481   7.536   2.399   5.355  0.2782 -0.7494  0.3750
 4883SOL     OW15482   2.997   1.762   3.440 -0.4594 -0.2673  0.3656
 4883SOL    HW115483   3.068   1.751   3.377 -0.7342 -0.1580  0.0338
 4883SOL    HW215484   2.922   1.716   3.401 -0.2570 -1.4223  1.2638
 4884SOL     OW15485   5.520   3.299   2.638  0.0704  0.6708  0.2902
 4884SOL    HW115486   5.550   3.329   2.553 -3.6763  0.1578 -1.4151
 4884SOL    HW215487   5.564   3.214   2.650  0.4344  0.6006 -1.2875
 4885SOL     OW15488   0.536   7.579   3.611 -0.0888 -0.3327  0.7409
 4885SOL    HW115489   0.618   7.529   3.609  0.3007  0.2939  0.8582
 4885SOL    HW215490   0.499   7.569   3.523 -0.5224 -1.6459  1.0520
 4886SOL     OW15491   7.059   7.089   4.789  0.0880 -0.7649  0.5185
 4886SOL    HW115492   6.992   7.104   4.856 -0.3869  0.4114 -0.1771
 4886SOL    HW215493   7.026   7.015   4.739 -0.0148 -1.0606  1.0121
 4887SOL     OW15494   5.127   0.811   0.925  0.0255  0.1380 -0.1522
 4887SOL    HW115495   5.123   0.728   0.878  0.0007  0.1125 -0.1051
 4887SOL    HW215496   5.137   0.786   1.017 -0.8930  0.1643 -0.0284
 4888SOL     OW15497   5.299   1.367   3.631 -0.4932  0.1673 -0.0663
 4888SOL    HW115498   5.380   1.324   3.602 -1.5661 -1.5711 -0.6313
 4888SOL    HW215499   5.258   1.304   3.690 -0.7674  1.6293  1.3793
 4889SOL     OW15500   5.497   3.633   1.159  0.7237 -0.2481  0.2069
 4889SOL    HW115501   5.559   3.560   1.167  1.5125  0.3876 -0.0889
 4889SOL    HW215502   5.512   3.686   1.237  0.8985  0.1786 -0.1196
 4890SOL     OW15503   1.823   7.943   2.265 -0.5057  0.4511 -0.0576
 4890SOL    HW115504   1.911   7.981   2.271 -0.7379  0.8520  0.9694
 4890SOL    HW215505   1.783   7.962   2.350 -0.3237 -2.9095  0.9156
 4891SOL     OW15506   3.537   2.179   0.023 -0.2792 -0.0128  0.4781
 4891SOL    HW115507   3.559   2.134   0.105 -0.4392 -0.8769  0.0648
 4891SOL    HW215508   3.467   2.126  -0.014 -0.9864  1.0073  0.3198
 4892SOL     OW15509   6.575   6.664   0.142  0.1944 -0.4147 -0.2102
 4892SOL    HW115510   6.655   6.638   0.096 -0.5881 -1.1859 -1.1909
 4892SOL    HW215511   6.578   6.760   0.143  1.7494 -0.4485  0.9376
 4893SOL     OW15512   2.130   0.901   5.693  0.0427  0.2507 -0.2940
 4893SOL    HW115513   2.154   0.810   5.677  0.5280  0.2488  0.4028
 4893SOL    HW215514   2.046   0.896   5.738 -0.0633  0.1632 -0.4980
 4894SOL     OW15515   5.556   6.573   7.752  0.3621 -0.1384  0.1622
 4894SOL    HW115516   5.608   6.641   7.794  1.3953 -1.4758  1.1563
 4894SOL    HW215517   5.561   6.499   7.813 -1.5160 -0.7927 -0.4250
 4895SOL     OW15518   6.079   7.407   3.089  0.7023 -0.0754 -0.9046
 4895SOL    HW115519   6.005   7.467   3.103 -0.2882 -1.2760 -0.8100
 4895SOL    HW215520   6.155   7.456   3.120 -0.5360 -0.2024  2.8342
 4896SOL     OW15521   3.827   3.385   1.692  0.7837  0.1213 -0.1375
 4896SOL    HW115522   3.872   3.306   1.662  0.6329 -0.0094 -0.0288
 4896SOL    HW215523   3.883   3.420   1.761  1.4032  0.7251 -0.9319
 4897SOL     OW15524   2.163   2.916   2.447 -0.2947  0.3078  0.3004
 4897SOL    HW115525   2.234   2.852   2.441  0.4003  0.8796  1.8316
 4897SOL    HW215526   2.096   2.873   2.500 -0.9550 -0.0786 -0.8069
 4898SOL     OW15527   1.316   0.729   7.404 -0.7342  0.2586  0.4964
 4898SOL    HW115528   1.298   0.706   7.495 -1.0654  0.5544  0.5068
 4898SOL    HW215529   1.245   0.789   7.379  0.1455  1.3140  0.4886
 4899SOL     OW15530   5.488   4.785   3.968  0.0168 -0.2658 -0.1404
 4899SOL    HW115531   5.507   4.876   3.946  1.0862 -1.0059 -2.4995
 4899SOL    HW215532   5.480   4.740   3.884 -2.9417 -1.9262  0.8802
 4900SOL     OW15533   2.169   1.070   7.594  0.0759  0.2768  0.5997
 4900SOL    HW115534   2.176   1.135   7.663  0.8870 -0.4450  1.2113
 4900SOL    HW215535   2.253   1.025   7.593 -0.9853 -1.9095  1.3517
 4901SOL     OW15536   5.813   2.779   0.217 -0.0612  0.1005  0.4159
 4901SOL    HW115537   5.795   2.858   0.165  0.3090  1.0158  1.6229
 4901SOL    HW215538   5.872   2.809   0.286  0.3604 -1.3244  0.7042
 4902SOL     OW15539   3.361   2.984   7.443  0.1095 -0.0146  0.0139
 4902SOL    HW115540   3.303   2.920   7.402  0.2216 -1.9966  2.6603
 4902SOL    HW215541   3.301   3.044   7.488  0.0352  1.2241 -1.6619
 4903SOL     OW15542   1.560   6.614   7.239 -0.1172 -0.0932  0.3166
 4903SOL    HW115543   1.490   6.654   7.187 -0.5262  0.7229  1.4549
 4903SOL    HW215544   1.637   6.669   7.223  0.2931 -0.9743 -0.9129
 4904SOL     OW15545   2.912   6.121   1.739  0.0252  0.3056 -0.1229
 4904SOL    HW115546   2.873   6.201   1.705 -0.3528  0.2445  0.1628
 4904SOL    HW215547   2.876   6.051   1.684  1.3094  0.4365 -1.1857
 4905SOL     OW15548   3.695   4.744   2.413  0.0792 -0.2202  1.1688
 4905SOL    HW115549   3.670   4.656   2.385  1.9282 -0.5465  0.3630
 4905SOL    HW215550   3.783   4.756   2.376 -0.5752  2.4276  0.2497
 4906SOL     OW15551   5.241   4.530   4.740  0.0627 -0.3114 -0.1789
 4906SOL    HW115552   5.269   4.456   4.794  0.3610 -1.5134 -1.8647
 4906SOL    HW215553   5.187   4.583   4.797  1.1710 -0.9683  1.5589
 4907SOL     OW15554   6.876   6.574   1.947  0.1919 -0.1902 -0.3304
 4907SOL    HW115555   6.832   6.649   1.986  2.2516  1.4786 -1.0343
 4907SOL    HW215556   6.823   6.553   1.870 -2.1783 -1.5815  1.5326
 4908SOL     OW15557   5.296   4.036   0.876  0.3272 -0.3536  0.1210
 4908SOL    HW115558   5.299   4.087   0.957  1.4579  2.4774 -1.5778
 4908SOL    HW215559   5.387   4.011   0.861 -0.0704 -2.0915  0.3815
 4909SOL     OW15560   4.837   0.399   5.744  0.3120  0.0291 -0.3087
 4909SOL    HW115561   4.865   0.474   5.692  0.1607  1.4323  1.5117
 4909SOL    HW215562   4.807   0.335   5.680  4.8280 -0.4829 -2.2744
 4910SOL     OW15563   4.468   4.345   4.399  0.2145  0.1877  0.5223
 4910SOL    HW115564   4.513   4.281   4.344 -1.0479 -1.3869  1.2691
 4910SOL    HW215565   4.497   4.327   4.488 -0.2269  0.5971  0.7595
 4911SOL     OW15566   2.686   7.548   5.953  1.0331  0.1964  0.1596
 4911SOL    HW115567   2.622   7.619   5.954  1.7084  0.9326 -2.5841
 4911SOL    HW215568   2.734   7.559   5.871  2.4487 -2.3201  0.5428
 4912SOL     OW15569   4.308   3.269   3.906 -0.4670  0.4615  0.6571
 4912SOL    HW115570   4.272   3.207   3.843 -2.0129  0.2805  1.6447
 4912SOL    HW215571   4.354   3.333   3.853 -1.6721  0.2973 -0.6669
 4913SOL     OW15572   1.405   3.134   0.760  0.3890  0.2249 -0.3414
 4913SOL    HW115573   1.461   3.207   0.785  0.3867  0.3250 -0.6329
 4913SOL    HW215574   1.322   3.175   0.733 -1.0282 -0.0228  3.1037
 4914SOL     OW15575   7.064   0.236   3.823  0.0315 -0.0503 -0.6730
 4914SOL    HW115576   7.123   0.242   3.898 -1.0302 -1.0123  0.2751
 4914SOL    HW215577   7.119   0.254   3.747  1.6186 -1.2454  0.1442
 4915SOL     OW15578   5.730   4.504   7.488  0.2264 -0.3322  0.0602
 4915SOL    HW115579   5.812   4.548   7.466  0.1592  0.0028  0.4636
 4915SOL    HW215580   5.723   4.514   7.583 -0.7637  0.4922 -0.0877
 4916SOL     OW15581   3.216   4.679   0.290  0.1113  0.2273  0.3942
 4916SOL    HW115582   3.194   4.762   0.333  0.8576 -0.3116  1.8728
 4916SOL    HW215583   3.283   4.702   0.226  0.1269  0.7975  0.6064
 4917SOL     OW15584   7.264   5.561   2.985 -0.0995 -0.1386 -0.2038
 4917SOL    HW115585   7.264   5.497   3.055  0.5397  0.1338  0.0493
 4917SOL    HW215586   7.197   5.624   3.010 -1.2807 -1.1008 -0.8342
 4918SOL     OW15587   0.578   4.914   3.101 -0.3114  0.1837  0.1772
 4918SOL    HW115588   0.594   5.002   3.135 -0.7479  0.6064 -0.6817
 4918SOL    HW215589   0.590   4.921   3.007  0.7084 -0.9363  0.2018
 4919SOL     OW15590   6.614   1.157   0.052 -0.2884 -0.1030 -0.4931
 4919SOL    HW115591   6.688   1.210   0.082 -1.2728 -0.0814  2.0963
 4919SOL    HW215592   6.567   1.215  -0.009  0.9230  0.4588 -0.9194
 4920SOL     OW15593   5.551   5.237   4.450  0.4587 -0.2795  0.3031
 4920SOL    HW115594   5.579   5.153   4.415 -3.9547 -2.2594  0.8835
 4920SOL    HW215595   5.596   5.246   4.534  2.1442 -1.2547 -0.4633
 4921SOL     OW15596   1.503   3.728   5.197  0.2293 -0.0052  0.3466
 4921SOL    HW115597   1.495   3.694   5.108  0.3315 -0.0495  0.3539
 4921SOL    HW215598   1.420   3.773   5.214 -0.4879 -1.4199  0.8265
 4922SOL     OW15599   2.046   6.173   7.340 -0.1040  0.2745  0.1691
 4922SOL    HW115600   2.103   6.120   7.396  0.4720  0.6589 -0.0511
 4922SOL    HW215601   2.016   6.111   7.272 -1.1908 -0.3161  1.1467
 4923SOL     OW15602   2.091   4.005   1.338  0.3843 -0.2173  0.1447
 4923SOL    HW115603   2.142   3.928   1.365  0.1735 -0.1848  0.6408
 4923SOL    HW215604   2.130   4.031   1.255  1.4482  0.0399  0.7056
 4924SOL     OW15605   3.186   4.197   3.570 -0.0699  0.3953  0.8452
 4924SOL    HW115606   3.203   4.109   3.536  0.1383  0.3963  0.9416
 4924SOL    HW215607   3.235   4.255   3.511 -0.0539  0.4309  0.8934
 4925SOL     OW15608   3.281   2.560   1.597 -0.4178 -0.6557 -0.1658
 4925SOL    HW115609   3.251   2.615   1.525 -1.3392  1.6209  1.8297
 4925SOL    HW215610   3.376   2.555   1.585 -0.3551  1.1158 -0.5798
 4926SOL     OW15611   6.099   2.013   4.560  0.5799  0.5819 -0.0491
 4926SOL    HW115612   6.181   2.037   4.602  0.7722  1.6812 -0.9818
 4926SOL    HW215613   6.117   1.928   4.520  1.6480  1.2934 -1.1614
 4927SOL     OW15614   7.906   6.498   2.002 -0.4381 -0.0165  0.0310
 4927SOL    HW115615   7.975   6.476   2.066 -2.3920  1.8116  3.0301
 4927SOL    HW215616   7.841   6.428   2.013 -0.5116 -0.0199 -0.4271
 4928SOL     OW15617   1.391   0.152   3.216 -0.0845  0.5349  0.4193
 4928SOL    HW115618   1.470   0.099   3.209 -0.4164  0.1066 -0.1977
 4928SOL    HW215619   1.364   0.144   3.308 -0.4710 -0.8726  0.2030
 4929SOL     OW15620   5.093   7.264   3.279 -0.6869  0.2780  0.5699
 4929SOL    HW115621   5.164   7.236   3.337  0.0355  0.6110 -0.1240
 4929SOL    HW215622   5.100   7.360   3.278  1.0098  0.2244 -2.0627
 4930SOL     OW15623   0.238   5.952   0.110  0.1534 -0.5986  0.1796
 4930SOL    HW115624   0.151   5.964   0.146 -1.2518 -0.5372 -2.8810
 4930SOL    HW215625   0.266   5.866   0.141 -1.9888 -1.5943 -0.4974
 4931SOL     OW15626   0.380   0.845   1.944 -0.1540  0.2056  0.5080
 4931SOL    HW115627   0.468   0.870   1.973  0.3614 -0.9029 -0.0326
 4931SOL    HW215628   0.394   0.802   1.859 -1.4187  1.7498 -0.5388
 4932SOL     OW15629   4.066   2.400   6.068  0.0983  0.2848  0.0337
 4932SOL    HW115630   4.148   2.403   6.020  0.8401  1.0000  1.2786
 4932SOL    HW215631   4.046   2.492   6.088 -1.8886  0.2809 -1.6460
 4933SOL     OW15632   3.470   6.394   0.622 -0.5918  0.7257 -0.3243
 4933SOL    HW115633   3.447   6.422   0.534 -0.1433  0.3412 -0.5681
 4933SOL    HW215634   3.527   6.464   0.655  0.9944 -0.1226 -1.1430
 4934SOL     OW15635   0.431   0.493   2.176  0.0546  0.2595 -0.3439
 4934SOL    HW115636   0.451   0.400   2.175 -3.2491 -0.5604 -0.8784
 4934SOL    HW215637   0.489   0.531   2.110  1.3236 -1.3993 -0.2537
 4935SOL     OW15638   5.581   0.890   4.346 -0.5488  0.3016 -0.0330
 4935SOL    HW115639   5.498   0.894   4.394 -0.9063 -0.1360 -0.6019
 4935SOL    HW215640   5.584   0.801   4.311 -0.0766  0.4763 -0.4423
 4936SOL     OW15641   6.010   3.678   5.346  0.3238  0.1813  0.4726
 4936SOL    HW115642   5.937   3.719   5.300  2.0043  1.0879 -1.5446
 4936SOL    HW215643   5.971   3.603   5.392 -2.0405  1.3416  0.4760
 4937SOL     OW15644   5.303   4.785   6.410 -0.0237 -0.2397 -0.1302
 4937SOL    HW115645   5.325   4.714   6.350 -1.1184 -0.6097 -0.1184
 4937SOL    HW215646   5.258   4.741   6.483  2.0720  0.0686  1.4518
 4938SOL     OW15647   4.844   4.473   7.085  0.3740 -0.1341  0.1920
 4938SOL    HW115648   4.837   4.402   7.021 -0.5599 -1.0012  1.2181
 4938SOL    HW215649   4.862   4.429   7.168  4.1327  1.1080  0.2001
 4939SOL     OW15650   1.971   2.844   4.814  0.1024 -0.9131  0.2463
 4939SOL    HW115651   2.057   2.873   4.782 -0.6854  0.0644 -1.0554
 4939SOL    HW215652   1.971   2.749   4.800  0.7184 -0.8321 -0.3601
 4940SOL     OW15653   6.986   7.642   6.475  0.3256  0.4102  0.1127
 4940SOL    HW115654   6.914   7.579   6.477  0.3812  0.3501  0.2743
 4940SOL    HW215655   7.039   7.616   6.399 -0.7794  1.5408 -1.0893
 4941SOL     OW15656   3.690   7.427   0.697 -0.0038  0.3865 -0.4198
 4941SOL    HW115657   3.596   7.421   0.678 -0.0685 -0.0074  0.0001
 4941SOL    HW215658   3.712   7.518   0.677 -0.7360  0.8120  0.5807
 4942SOL     OW15659   0.871   2.848   6.074 -0.3835 -0.5163  0.1017
 4942SOL    HW115660   0.814   2.858   5.998  1.3921  0.9410 -1.1455
 4942SOL    HW215661   0.838   2.913   6.136 -0.7725 -0.4701 -0.1455
 4943SOL     OW15662   7.474   2.628   1.566 -0.4377  0.9654  0.3423
 4943SOL    HW115663   7.490   2.561   1.633 -2.2975 -0.6585 -0.7238
 4943SOL    HW215664   7.538   2.696   1.585  1.5565 -1.0724  1.5404
 4944SOL     OW15665   7.467   0.105   6.165  0.6188 -0.0879 -0.4312
 4944SOL    HW115666   7.518   0.079   6.088  0.5265 -2.5744  0.2555
 4944SOL    HW215667   7.378   0.116   6.132  0.4533 -1.7696 -0.6119
 4945SOL     OW15668   7.816   2.097   2.389  0.0457  0.1355 -0.1467
 4945SOL    HW115669   7.747   2.086   2.322  0.8215  1.2838 -1.1884
 4945SOL    HW215670   7.802   2.185   2.423 -0.1335 -0.3218  0.9981
 4946SOL     OW15671   6.625   1.682   2.277 -0.2897 -0.0240 -0.2965
 4946SOL    HW115672   6.695   1.644   2.330  0.4227  0.3720 -0.9332
 4946SOL    HW215673   6.574   1.735   2.338  1.3165  1.5378 -0.2416
 4947SOL     OW15674   1.053   1.985   0.131 -0.3259  0.1502 -0.8048
 4947SOL    HW115675   1.106   2.060   0.159 -1.2097  0.6979 -0.5596
 4947SOL    HW215676   1.070   1.918   0.197 -0.5163  0.5902 -0.2993
 4948SOL     OW15677   6.407   4.128   7.653  0.2170 -0.3392 -0.4905
 4948SOL    HW115678   6.320   4.090   7.660 -0.2835  0.6908 -0.8470
 4948SOL    HW215679   6.393   4.222   7.666  1.2636 -0.1508 -0.6298
 4949SOL     OW15680   4.797   2.616   6.590 -0.0015 -0.1771 -0.3587
 4949SOL    HW115681   4.760   2.529   6.597  2.0123 -1.0419  0.3176
 4949SOL    HW215682   4.782   2.641   6.499 -0.3363 -1.3568 -0.6439
 4950SOL     OW15683   3.383   3.706   2.229  0.0311 -0.4144 -0.4752
 4950SOL    HW115684   3.457   3.698   2.169 -0.7043 -0.5869 -1.3863
 4950SOL    HW215685   3.308   3.675   2.178 -0.4457 -1.6443  0.9043
 4951SOL     OW15686   4.361   4.087   0.145  0.4579  0.1505 -0.0530
 4951SOL    HW115687   4.351   3.994   0.127 -0.4776  0.1615  0.3461
 4951SOL    HW215688   4.446   4.110   0.107  0.1695 -0.6003 -1.2152
 4952SOL     OW15689   2.552   6.646   2.393  0.0288  0.0990 -1.0258
 4952SOL    HW115690   2.556   6.741   2.383  0.8838  0.2025  0.1121
 4952SOL    HW215691   2.460   6.628   2.412  0.2534  0.9936  1.1756
 4953SOL     OW15692   4.402   1.619   4.502  0.3044 -0.7298 -0.2943
 4953SOL    HW115693   4.486   1.667   4.497  1.2995 -2.4757 -1.2706
 4953SOL    HW215694   4.338   1.687   4.522  2.0073  0.6074  1.0350
 4954SOL     OW15695   2.449   3.177   5.238 -0.2383  0.0269 -0.1693
 4954SOL    HW115696   2.503   3.230   5.179  3.1581 -0.7545  1.9797
 4954SOL    HW215697   2.482   3.196   5.325 -1.4228 -2.7946  1.0150
 4955SOL     OW15698   5.428   6.919   7.835  0.3556  0.1289  0.4197
 4955SOL    HW115699   5.357   6.920   7.771 -0.7236 -0.0895  1.5780
 4955SOL    HW215700   5.495   6.865   7.795 -0.9962 -1.4398  0.1715
 4956SOL     OW15701   1.897   3.624   4.438  0.5592  0.0312 -0.0378
 4956SOL    HW115702   1.985   3.649   4.410 -0.5492  2.0976 -2.0489
 4956SOL    HW215703   1.911   3.564   4.511  3.6079  1.0072  0.3179
 4957SOL     OW15704   2.256   6.299   4.699  0.1044 -0.0042 -0.1225
 4957SOL    HW115705   2.188   6.233   4.689  0.5129 -0.3021 -0.9372
 4957SOL    HW215706   2.291   6.284   4.787  0.1436 -0.8102 -0.2764
 4958SOL     OW15707   4.517   7.530   2.232  0.1938 -0.0791 -0.0847
 4958SOL    HW115708   4.566   7.611   2.246  1.8773 -0.7485 -1.6305
 4958SOL    HW215709   4.505   7.526   2.137  2.4454 -2.8257 -0.3875
 4959SOL     OW15710   3.756   1.463   7.003 -0.1163 -0.1088 -0.4274
 4959SOL    HW115711   3.709   1.388   7.041  0.1752 -0.4326 -0.6982
 4959SOL    HW215712   3.809   1.496   7.075 -1.1359  0.5839  0.0319
 4960SOL     OW15713   2.356   7.051   1.952  0.4649 -0.1959  0.0793
 4960SOL    HW115714   2.277   7.074   2.001  1.0854  1.6765  0.2532
 4960SOL    HW215715   2.419   7.024   2.019  1.2837  2.2766  0.3770
 4961SOL     OW15716   5.617   0.503   0.969 -0.3230 -0.0247  0.2236
 4961SOL    HW115717   5.676   0.446   0.919  2.1765 -1.4544  4.2872
 4961SOL    HW215718   5.645   0.592   0.948 -0.8016 -0.4004 -2.3331
 4962SOL     OW15719   2.098   7.472   4.832 -0.1239 -0.3493 -0.2660
 4962SOL    HW115720   2.187   7.490   4.862 -0.1102  0.9300 -0.9766
 4962SOL    HW215721   2.078   7.384   4.864  1.5815 -0.8666 -0.5360
 4963SOL     OW15722   0.053   2.898   7.152 -0.2955  0.0528  0.3145
 4963SOL    HW115723  -0.032   2.886   7.108  0.5339 -0.5859 -1.2000
 4963SOL    HW215724   0.053   2.989   7.180 -1.5058  0.0467  0.4003
 4964SOL     OW15725   6.644   7.051   3.213 -0.0597  0.5374  0.1882
 4964SOL    HW115726   6.601   6.969   3.239  0.6598  0.0067 -0.2378
 4964SOL    HW215727   6.694   7.077   3.290 -0.2035  0.5150  0.2898
 4965SOL     OW15728   3.071   7.370   7.439 -0.2170 -0.0722 -0.2588
 4965SOL    HW115729   3.131   7.440   7.463  1.7879 -1.5067 -0.8073
 4965SOL    HW215730   3.004   7.413   7.386 -0.8416  1.9187  1.9778
 4966SOL     OW15731   1.987   2.643   6.612  0.3765  0.6463 -0.1875
 4966SOL    HW115732   1.899   2.673   6.638  1.4041  1.4171  2.8209
 4966SOL    HW215733   2.012   2.702   6.541 -1.3778  0.6012 -0.9186
 4967SOL     OW15734   0.146   5.328   3.654  0.2092  0.4633 -0.2168
 4967SOL    HW115735   0.090   5.379   3.712 -0.5989  1.8819 -2.1081
 4967SOL    HW215736   0.085   5.270   3.608  0.8277 -0.6318  0.3051
 4968SOL     OW15737   6.535   0.559   0.111  0.4014 -0.0132  0.3320
 4968SOL    HW115738   6.506   0.510   0.188 -2.3950 -0.7939 -1.0821
 4968SOL    HW215739   6.490   0.643   0.117 -0.7886 -0.5140 -0.9610
 4969SOL     OW15740   2.377   1.714   6.632  0.6955 -0.0375 -0.0187
 4969SOL    HW115741   2.328   1.633   6.619 -0.1484  0.2598  1.0932
 4969SOL    HW215742   2.372   1.759   6.547 -0.8326 -0.1007  0.0033
 4970SOL     OW15743   3.842   0.274   1.950 -0.0586  0.3621 -0.4295
 4970SOL    HW115744   3.788   0.236   2.019 -0.8809  2.3334  0.0886
 4970SOL    HW215745   3.795   0.254   1.869  0.1678 -0.7488 -0.2961
 4971SOL     OW15746   5.483   6.167   7.408  0.2436  0.4246 -0.7608
 4971SOL    HW115747   5.531   6.171   7.491  0.1310 -0.1185 -0.6654
 4971SOL    HW215748   5.419   6.098   7.421 -0.5571  1.1335 -0.8952
 4972SOL     OW15749   7.826   2.560   7.130  0.5161  0.2148 -0.0527
 4972SOL    HW115750   7.904   2.545   7.183  0.2942 -1.1760 -0.1000
 4972SOL    HW215751   7.802   2.651   7.148  1.6303  0.3869  0.6395
 4973SOL     OW15752   0.800   7.793   3.555 -0.3535 -0.4859 -0.0871
 4973SOL    HW115753   0.755   7.828   3.479  0.9026  0.9296 -0.2433
 4973SOL    HW215754   0.832   7.708   3.527  1.2909  0.5765 -1.6885
 4974SOL     OW15755   3.272   7.945   5.144 -0.5228 -0.1330 -0.2362
 4974SOL    HW115756   3.212   7.930   5.070  0.2042  1.4628 -1.2000
 4974SOL    HW215757   3.324   7.865   5.149  1.6124  0.8286 -3.6214
 4975SOL     OW15758   3.098   0.357   4.218  0.0184  0.2353  0.1415
 4975SOL    HW115759   3.166   0.292   4.235  1.3970  1.8856  1.2977
 4975SOL    HW215760   3.090   0.359   4.122  2.0546  0.3805 -0.0706
 4976SOL     OW15761   7.561   4.850   1.522 -0.1264  0.1624 -0.1386
 4976SOL    HW115762   7.509   4.791   1.576 -3.1166  1.3410 -1.4876
 4976SOL    HW215763   7.537   4.938   1.552 -0.9083  0.8145 -2.4229
 4977SOL     OW15764   5.164   7.541   3.603 -0.3655 -0.2510  0.1508
 4977SOL    HW115765   5.220   7.615   3.579  0.2482 -1.3884 -2.1861
 4977SOL    HW215766   5.091   7.581   3.651  0.4077  1.7520 -0.2439
 4978SOL     OW15767   3.867   5.486   6.149 -0.2146 -0.2062 -0.4283
 4978SOL    HW115768   3.862   5.572   6.108 -0.8045  0.2938  0.6629
 4978SOL    HW215769   3.775   5.461   6.164 -0.0155 -0.2707  0.7860
 4979SOL     OW15770   3.355   7.912   6.603  0.1364 -0.2803 -0.2712
 4979SOL    HW115771   3.260   7.923   6.598  0.1358 -0.6983 -1.5449
 4979SOL    HW215772   3.372   7.887   6.694 -0.9136  0.2808  0.0922
 4980SOL     OW15773   2.352   6.522   2.125  0.0344  0.0054 -0.0305
 4980SOL    HW115774   2.322   6.538   2.215  3.1467 -1.2514  1.3776
 4980SOL    HW215775   2.326   6.432   2.107 -0.0099  0.0404 -0.1411
 4981SOL     OW15776   2.467   4.255   1.115 -0.6287  0.3503  0.0625
 4981SOL    HW115777   2.408   4.246   1.190 -2.1598  0.0005 -1.1308
 4981SOL    HW215778   2.455   4.174   1.066  2.5757 -0.7793  0.8881
 4982SOL     OW15779   4.386   7.488   3.237  0.2058  0.1113  0.1879
 4982SOL    HW115780   4.420   7.406   3.271 -0.2838 -0.7013 -1.2179
 4982SOL    HW215781   4.464   7.535   3.206  0.3397 -0.6059 -0.6175
 4983SOL     OW15782   7.231   6.870   7.909  1.2685 -0.7639  0.1536
 4983SOL    HW115783   7.257   6.819   7.833  0.5401 -0.1820 -0.4977
 4983SOL    HW215784   7.148   6.832   7.938  0.4436  0.3411 -0.6566
 4984SOL     OW15785   3.608   2.780   4.786  0.0936  0.2147  0.2531
 4984SOL    HW115786   3.541   2.824   4.838 -2.8248 -0.9406 -2.2559
 4984SOL    HW215787   3.633   2.704   4.838 -3.6620 -1.6187 -0.2999
 4985SOL     OW15788   4.219   5.687   3.206  0.4129  0.1801  0.3317
 4985SOL    HW115789   4.126   5.669   3.189  0.5203 -0.0292 -0.0469
 4985SOL    HW215790   4.219   5.738   3.287 -0.1221  1.2379 -0.3070
 4986SOL     OW15791   6.085   5.930   7.131  0.0112 -0.3434 -0.7234
 4986SOL    HW115792   6.077   6.022   7.153  2.4616 -0.2920  0.2683
 4986SOL    HW215793   6.154   5.897   7.189  1.9896 -1.8385 -3.6335
 4987SOL     OW15794   0.852   1.007   6.468 -0.3282  0.3481 -0.2214
 4987SOL    HW115795   0.757   1.017   6.475 -0.2703  1.6510 -1.0211
 4987SOL    HW215796   0.871   0.924   6.513 -1.3793  1.8043  3.1814
 4988SOL     OW15797   5.919   6.755   6.920 -0.2982  0.3246  0.6953
 4988SOL    HW115798   5.861   6.704   6.863  0.3148  2.4461 -2.0671
 4988SOL    HW215799   5.860   6.798   6.982 -1.2265 -0.5153  0.4333
 4989SOL     OW15800   7.434   1.700   4.901  0.5568 -1.0793  0.0202
 4989SOL    HW115801   7.463   1.737   4.984 -0.8431  1.7506 -0.6533
 4989SOL    HW215802   7.424   1.606   4.920 -1.3142 -0.3564  3.5425
 4990SOL     OW15803   1.895   4.987   3.013 -0.5185 -0.3680 -0.1580
 4990SOL    HW115804   1.835   4.959   2.944  0.4667 -1.4694 -0.5994
 4990SOL    HW215805   1.853   4.957   3.094 -1.6329  0.8502 -0.2523
 4991SOL     OW15806   5.412   4.750   4.457 -0.1605  0.1674 -0.1720
 4991SOL    HW115807   5.495   4.790   4.432 -0.9536  2.7173  0.9460
 4991SOL    HW215808   5.357   4.756   4.379  0.2371 -0.2672 -0.4941
 4992SOL     OW15809   7.264   5.744   2.381 -0.8042  0.5573 -0.6552
 4992SOL    HW115810   7.329   5.741   2.311 -3.1012 -1.6556 -2.9060
 4992SOL    HW215811   7.287   5.669   2.437  0.2252  1.5216  0.2692
 4993SOL     OW15812   3.296   4.950   2.202  0.1239  0.1651 -0.2315
 4993SOL    HW115813   3.312   4.867   2.157  0.3388 -0.2913  0.6652
 4993SOL    HW215814   3.317   4.932   2.293  1.7292  1.6402 -0.2570
 4994SOL     OW15815   4.411   0.172   3.123 -0.0549  0.8916 -0.3218
 4994SOL    HW115816   4.430   0.087   3.084 -2.0411  0.8988 -1.4328
 4994SOL    HW215817   4.434   0.236   3.055  0.4929  1.1948  0.1381
 4995SOL     OW15818   1.380   0.169   3.755 -0.3122  0.2718  0.8216
 4995SOL    HW115819   1.335   0.222   3.821 -0.7552 -1.5226  2.0318
 4995SOL    HW215820   1.473   0.176   3.778 -0.4366 -0.0880  1.4700
 4996SOL     OW15821   5.008   1.044   6.460  0.0755  0.0303  0.9706
 4996SOL    HW115822   4.952   1.109   6.417 -2.2721 -2.3105  0.2983
 4996SOL    HW215823   5.066   1.012   6.391 -0.1586 -0.0630  0.8189
 4997SOL     OW15824   0.577   3.732   4.233  0.1082  0.5488 -0.1509
 4997SOL    HW115825   0.652   3.702   4.181  2.1821  1.1558  2.2595
 4997SOL    HW215826   0.515   3.766   4.169  2.1748  0.6066 -2.2494
 4998SOL     OW15827   4.160   3.792   0.939  0.4987 -0.1893 -0.6970
 4998SOL    HW115828   4.110   3.728   0.989 -1.1578  1.0304 -0.7046
 4998SOL    HW215829   4.248   3.756   0.935 -0.1777 -2.0349  0.0212
 4999SOL     OW15830   5.994   2.343   7.677 -0.5587 -0.4663  0.8466
 4999SOL    HW115831   5.900   2.327   7.678 -0.9742  1.5799  0.5183
 4999SOL    HW215832   6.025   2.312   7.761 -1.9220  0.6792  1.8358
 5000SOL     OW15833   3.992   5.616   3.472 -0.1685  0.3371 -0.9052
 5000SOL    HW115834   4.080   5.589   3.495 -0.1339  1.9005  1.0592
 5000SOL    HW215835   3.941   5.535   3.472  0.8626 -0.3386 -0.1262
 5001SOL     OW15836   7.716   5.944   5.713 -0.3118  0.1543  0.8597
 5001SOL    HW115837   7.714   5.851   5.691  0.2319  0.5207 -0.9340
 5001SOL    HW215838   7.725   5.988   5.628 -1.1996  1.8739  1.6090
 5002SOL     OW15839   5.416   7.868   7.930 -0.1145  0.4225 -0.1793
 5002SOL    HW115840   5.488   7.913   7.885 -0.5020  0.4216 -0.8059
 5002SOL    HW215841   5.458   7.793   7.972  0.3630  0.7954  0.0275
 5003SOL     OW15842   1.586   1.438   1.612  0.2494 -0.3816 -0.1637
 5003SOL    HW115843   1.660   1.409   1.666  1.4465  2.3824 -0.1950
 5003SOL    HW215844   1.513   1.446   1.674  0.4094 -1.4492  0.1872
 5004SOL     OW15845   5.264   0.371   4.622 -0.3884 -0.4452  0.8006
 5004SOL    HW115846   5.192   0.316   4.589  0.4357 -0.9210 -0.2528
 5004SOL    HW215847   5.222   0.430   4.685 -1.6314 -0.9868  0.5073
 5005SOL     OW15848   4.330   5.632   1.460 -0.5248 -0.1356  0.1515
 5005SOL    HW115849   4.365   5.680   1.384 -1.7979  0.8181  0.1391
 5005SOL    HW215850   4.365   5.679   1.536  1.3901 -1.5585  0.2066
 5006SOL     OW15851   6.085   4.869   6.700 -0.4685 -0.7320 -0.1280
 5006SOL    HW115852   6.149   4.799   6.692  1.4115  0.7368  1.1238
 5006SOL    HW215853   6.001   4.826   6.691  0.5465 -3.3236  1.6456
 5007SOL     OW15854   4.074   6.450   4.779  0.2016  0.0487  0.4677
 5007SOL    HW115855   4.063   6.396   4.701 -0.3671 -1.2302  1.3990
 5007SOL    HW215856   4.166   6.439   4.803  0.6599  1.2835 -0.5759
 5008SOL     OW15857   6.013   2.507   5.557  0.0826 -0.5134 -0.2245
 5008SOL    HW115858   5.970   2.429   5.591 -1.5828  0.4527  0.0426
 5008SOL    HW215859   6.035   2.559   5.634  0.4948 -0.3951 -0.4215
 5009SOL     OW15860   6.180   5.171   3.231 -0.0142  0.1463 -0.0132
 5009SOL    HW115861   6.147   5.089   3.270  0.4779  0.6224  1.4668
 5009SOL    HW215862   6.169   5.236   3.300  1.3528  0.9320 -0.4986
 5010SOL     OW15863   1.255   6.172   3.953 -0.7047  0.1913  0.0883
 5010SOL    HW115864   1.290   6.128   4.030  0.4785  1.0394  0.0633
 5010SOL    HW215865   1.246   6.264   3.979 -0.6138  0.4283 -0.6723
 5011SOL     OW15866   3.060   2.556   3.021 -0.4742 -0.0683 -0.0197
 5011SOL    HW115867   3.093   2.489   3.081 -1.2306  0.1856  0.6959
 5011SOL    HW215868   3.138   2.608   2.998  0.6877 -2.7221 -2.7260
 5012SOL     OW15869   0.167   0.584   6.484  0.1150  0.1381 -0.4206
 5012SOL    HW115870   0.173   0.579   6.388 -0.2360 -0.4206 -0.4171
 5012SOL    HW215871   0.124   0.502   6.510 -0.7689  0.7520  0.1258
 5013SOL     OW15872   0.957   4.709   1.605 -0.0957  0.6711 -0.3504
 5013SOL    HW115873   0.862   4.711   1.593 -0.2284  0.6588  0.5940
 5013SOL    HW215874   0.992   4.676   1.522 -0.8786  1.1598 -0.8810
 5014SOL     OW15875   1.168   0.261   4.108  0.4291 -0.2173 -0.4190
 5014SOL    HW115876   1.260   0.245   4.085  0.9423 -1.3603  2.1211
 5014SOL    HW215877   1.120   0.188   4.068  0.8462 -0.4685 -0.4681
 5015SOL     OW15878   0.909   0.176   5.033  0.5757  0.1321  0.6586
 5015SOL    HW115879   0.818   0.145   5.030  1.2761 -1.9944 -1.1820
 5015SOL    HW215880   0.921   0.205   5.124 -1.8945  0.4087  0.9667
 5016SOL     OW15881   2.409   5.069   2.227 -0.2732 -0.4240 -0.1015
 5016SOL    HW115882   2.496   5.094   2.258 -0.7982 -0.3530  1.4010
 5016SOL    HW215883   2.418   4.976   2.203  0.5021 -0.0953 -1.1712
 5017SOL     OW15884   2.895   2.878   2.090 -0.0620  0.3391 -0.3084
 5017SOL    HW115885   2.847   2.909   2.166  1.2671 -0.8088  1.0819
 5017SOL    HW215886   2.842   2.806   2.056 -1.2759  1.6502 -1.2554
 5018SOL     OW15887   5.116   7.243   5.182  0.2793 -0.4832 -0.7065
 5018SOL    HW115888   5.060   7.306   5.136 -1.3313 -1.5013 -0.2430
 5018SOL    HW215889   5.196   7.291   5.200 -1.3060  1.8632  0.6842
 5019SOL     OW15890   4.515   6.141   4.024  0.0603  0.2551 -0.0784
 5019SOL    HW115891   4.504   6.234   4.041  2.1897  0.4794  0.3788
 5019SOL    HW215892   4.552   6.136   3.936  1.2507 -0.0402  0.4186
 5020SOL     OW15893   4.161   3.164   3.336 -0.0123 -0.2780  0.1826
 5020SOL    HW115894   4.215   3.085   3.328  0.0677 -0.2169  0.1147
 5020SOL    HW215895   4.225   3.236   3.340 -0.0883 -0.2060  0.1087
 5021SOL     OW15896   4.737   0.977   7.273  0.2927 -0.6110 -0.2678
 5021SOL    HW115897   4.738   0.897   7.326  0.5662 -1.9859 -2.2123
 5021SOL    HW215898   4.686   1.040   7.325  2.1121 -1.1978  2.4277
 5022SOL     OW15899   7.462   6.016   3.861  0.3435 -1.0099 -0.0957
 5022SOL    HW115900   7.467   6.093   3.805 -1.7074 -1.7185 -1.3733
 5022SOL    HW215901   7.549   5.977   3.857  0.9066  0.2809 -0.8283
 5023SOL     OW15902   5.544   7.716   2.170 -0.3675  0.1435 -0.1769
 5023SOL    HW115903   5.596   7.694   2.248 -1.3176 -0.2360  0.3647
 5023SOL    HW215904   5.525   7.632   2.128  1.8354  0.4614 -1.9881
 5024SOL     OW15905   7.481   4.250   6.826  0.1393  0.2584 -0.0137
 5024SOL    HW115906   7.471   4.329   6.879 -1.2344  0.2675 -0.2395
 5024SOL    HW215907   7.558   4.268   6.771  0.3607  1.0759  0.5396
 5025SOL     OW15908   6.620   5.936   5.053 -0.1351  0.2978  1.0151
 5025SOL    HW115909   6.637   5.982   4.970  0.3808 -0.7289  0.5334
 5025SOL    HW215910   6.682   5.864   5.053  1.0803  1.2428  3.1132
 5026SOL     OW15911   1.457   2.266   1.829 -0.4780  0.4381  0.1189
 5026SOL    HW115912   1.499   2.188   1.865  2.4737  2.0973  0.6526
 5026SOL    HW215913   1.423   2.238   1.745 -0.9347 -1.7768  0.9654
 5027SOL     OW15914   4.089   5.173   7.903  0.4299  0.3244  0.0840
 5027SOL    HW115915   4.062   5.198   7.991 -0.1371  0.4396 -0.1171
 5027SOL    HW215916   4.147   5.098   7.915  1.7494  1.3797  0.6730
 5028SOL     OW15917   6.929   2.687   2.215 -0.3910  0.3250  0.5395
 5028SOL    HW115918   7.004   2.630   2.199  0.0937  0.5541  1.8190
 5028SOL    HW215919   6.893   2.656   2.298 -0.7465  1.2259  0.7330
 5029SOL     OW15920   1.232   0.261   1.305  0.4562 -0.6981 -0.2201
 5029SOL    HW115921   1.201   0.260   1.215 -1.7540 -2.5404  0.4673
 5029SOL    HW215922   1.217   0.351   1.334  0.2212 -0.3437 -1.3704
 5030SOL     OW15923   3.588   6.672   0.311 -0.3381  0.6425 -0.6118
 5030SOL    HW115924   3.622   6.704   0.394 -3.6314  0.1375  1.0996
 5030SOL    HW215925   3.555   6.750   0.266 -1.9318  0.5359  0.3176
 5031SOL     OW15926   5.936   7.174   3.953 -0.2144  0.3844  0.5617
 5031SOL    HW115927   5.924   7.201   4.044  1.7981  0.4455  0.8686
 5031SOL    HW215928   5.859   7.122   3.932  0.2669 -1.5116  3.0474
 5032SOL     OW15929   0.832   5.618   1.115 -0.0810  0.3267  0.4711
 5032SOL    HW115930   0.876   5.703   1.125  0.8935 -0.0870 -0.0651
 5032SOL    HW215931   0.860   5.587   1.028 -1.3323 -0.0317  0.1827
 5033SOL     OW15932   5.552   1.833   2.949 -0.0046  0.3468 -0.1374
 5033SOL    HW115933   5.465   1.833   2.989  0.6482  1.1498  1.3922
 5033SOL    HW215934   5.563   1.923   2.917  0.6714  0.5792  0.6991
 5034SOL     OW15935   6.404   4.958   1.959 -0.0196 -0.2746 -0.3468
 5034SOL    HW115936   6.474   4.922   2.013 -1.0872 -0.8422  0.7295
 5034SOL    HW215937   6.444   4.973   1.874  1.2563 -1.1016  0.0741
 5035SOL     OW15938   5.942   5.938   2.906  0.2700  1.1422  0.2951
 5035SOL    HW115939   6.036   5.926   2.919  0.0239 -1.3156  0.2641
 5035SOL    HW215940   5.915   5.994   2.978  1.4749  0.3921  1.3763
 5036SOL     OW15941   0.685   4.676   1.533  0.1636  0.4408 -0.0126
 5036SOL    HW115942   0.630   4.744   1.495 -0.5400  1.0754  2.0034
 5036SOL    HW215943   0.655   4.595   1.492 -2.1186  0.8124  0.7958
 5037SOL     OW15944   3.283   3.730   1.594 -0.4732 -0.1284 -0.0172
 5037SOL    HW115945   3.251   3.684   1.672  0.9652 -1.0964  0.0357
 5037SOL    HW215946   3.239   3.688   1.521 -4.1137  2.6613  0.2931
 5038SOL     OW15947   4.205   0.004   1.017 -0.0522  0.3794 -0.0152
 5038SOL    HW115948   4.219  -0.019   1.109 -0.2796  1.8377  0.4092
 5038SOL    HW215949   4.135  -0.055   0.988 -1.2667  1.1162  1.2902
 5039SOL     OW15950   6.535   4.093   5.875  0.1132 -0.1847 -0.2097
 5039SOL    HW115951   6.513   4.018   5.820  1.0827  0.0136 -0.8817
 5039SOL    HW215952   6.497   4.169   5.830 -1.8649 -0.3327  1.0361
 5040SOL     OW15953   1.687   1.785   2.003  0.4386  0.2079  0.6162
 5040SOL    HW115954   1.746   1.738   2.062  0.0132 -0.2294  0.6964
 5040SOL    HW215955   1.714   1.758   1.915 -1.5433 -2.3565  0.7095
 5041SOL     OW15956   0.681   4.167   6.425  0.0356  0.9403 -0.3582
 5041SOL    HW115957   0.648   4.134   6.341 -1.1598 -1.6749  1.0148
 5041SOL    HW215958   0.603   4.200   6.470 -0.4133 -2.3901  1.6498
 5042SOL     OW15959   1.537   5.398   2.162 -0.1027  0.7412 -0.3267
 5042SOL    HW115960   1.509   5.455   2.090 -0.9627  1.6865  0.7054
 5042SOL    HW215961   1.463   5.339   2.177  0.3408  0.0941 -0.6504
 5043SOL     OW15962   1.174   4.827   4.720 -0.1803 -0.4498  0.3045
 5043SOL    HW115963   1.123   4.823   4.801  0.2982 -0.0209  0.6401
 5043SOL    HW215964   1.116   4.791   4.653 -1.2087  0.7602  0.5182
 5044SOL     OW15965   4.941   0.739   7.532  0.4600  0.4764  0.1883
 5044SOL    HW115966   5.006   0.749   7.462 -0.1604 -0.9178 -0.6303
 5044SOL    HW215967   4.857   0.745   7.487  0.0508 -1.2174  0.6595
 5045SOL     OW15968   6.198   1.967   0.900 -0.3666  0.7807  0.1223
 5045SOL    HW115969   6.242   1.905   0.841  0.3547  0.3490  1.0968
 5045SOL    HW215970   6.216   2.053   0.862 -1.0094  0.4452 -1.0072
 5046SOL     OW15971   1.191   0.309   7.251  0.1096  0.2608  0.1090
 5046SOL    HW115972   1.193   0.239   7.185  0.5952 -0.5070  0.9243
 5046SOL    HW215973   1.109   0.356   7.234 -0.5427 -0.9044 -0.0314
 5047SOL     OW15974   3.140   2.852   4.333  0.4547 -0.4999 -0.0745
 5047SOL    HW115975   3.166   2.868   4.242 -1.1038 -0.7189 -0.5886
 5047SOL    HW215976   3.116   2.759   4.336 -1.5563 -0.0198 -0.0110
 5048SOL     OW15977   0.488   3.824   5.502 -0.2182 -0.3805  0.1063
 5048SOL    HW115978   0.517   3.909   5.469 -2.1453 -0.5981 -2.5114
 5048SOL    HW215979   0.566   3.768   5.494  0.8824  0.9272  1.2197
 5049SOL     OW15980   2.668   1.369   0.905 -0.5523 -0.2253 -0.4115
 5049SOL    HW115981   2.627   1.446   0.944  1.7534  0.6803  0.4075
 5049SOL    HW215982   2.662   1.301   0.973 -0.8045 -0.1398 -0.3496
 5050SOL     OW15983   3.499   1.806   3.572 -0.6501 -0.5209  0.2128
 5050SOL    HW115984   3.472   1.872   3.636  0.4621 -1.1072  1.3375
 5050SOL    HW215985   3.446   1.729   3.593  1.1242 -1.4038  1.8893
 5051SOL     OW15986   7.680   1.867   6.358 -0.9265  0.7283 -0.6732
 5051SOL    HW115987   7.702   1.944   6.412 -1.3770  0.5161 -0.1704
 5051SOL    HW215988   7.758   1.850   6.307 -0.7652  1.4325 -0.6730
 5052SOL     OW15989   0.011   3.590   1.386  0.5336 -0.2845 -0.0583
 5052SOL    HW115990   0.042   3.657   1.325  2.3165 -0.0351  1.0590
 5052SOL    HW215991  -0.076   3.621   1.412  0.1636  0.1277 -1.6511
 5053SOL     OW15992   0.210   5.760   0.508  0.2426  0.2661  0.2406
 5053SOL    HW115993   0.237   5.844   0.471  0.0859  0.2624  0.1171
 5053SOL    HW215994   0.155   5.784   0.583 -0.4003  0.2808 -0.2231
 5054SOL     OW15995   5.484   7.699   0.216 -0.0262  0.3336  0.4497
 5054SOL    HW115996   5.493   7.694   0.311 -1.9333 -0.1598  0.6324
 5054SOL    HW215997   5.398   7.662   0.197  0.1307  0.8047 -1.4427
 5055SOL     OW15998   4.361   5.672   2.359  0.2289 -0.5837 -0.5648
 5055SOL    HW115999   4.389   5.583   2.338  0.1827 -0.9054  0.6358
 5055SOL    HW216000   4.265   5.668   2.354  0.2845 -0.0747 -2.4407
 5056SOL     OW16001   2.694   5.264   5.767 -0.0262 -0.6376  0.6700
 5056SOL    HW116002   2.693   5.174   5.798 -1.5017 -0.4284  1.3278
 5056SOL    HW216003   2.741   5.312   5.836  0.7496 -0.8801  0.3242
 5057SOL     OW16004   0.573   3.036   5.891 -0.1558  0.2585  0.0313
 5057SOL    HW116005   0.559   2.965   5.954  0.9251  0.7032  0.7887
 5057SOL    HW216006   0.486   3.051   5.852 -0.2953 -1.8878 -0.6177
 5058SOL     OW16007   0.542   1.124   6.056  0.6002  0.0011  0.0475
 5058SOL    HW116008   0.564   1.194   5.994  0.1787 -1.2775 -1.6493
 5058SOL    HW216009   0.469   1.158   6.107  0.3075  0.7606 -0.8536
 5059SOL     OW16010   4.225   7.869   0.301 -0.2608  0.3411  0.3022
 5059SOL    HW116011   4.277   7.812   0.244 -3.2290  0.2579 -2.6494
 5059SOL    HW216012   4.263   7.956   0.289  0.3806 -0.0146 -0.3153
 5060SOL     OW16013   2.006   1.797   0.207 -0.0592 -0.5490  0.0730
 5060SOL    HW116014   1.957   1.877   0.228 -0.2067 -0.8921  1.0490
 5060SOL    HW216015   2.098   1.823   0.213 -0.1034 -0.5800  0.8904
 5061SOL     OW16016   7.915   5.594   4.707  0.7297 -0.2496  0.0743
 5061SOL    HW116017   7.989   5.638   4.665  0.4332 -0.7800 -1.0235
 5061SOL    HW216018   7.896   5.649   4.783  1.8963  0.1980  0.0728
 5062SOL     OW16019   4.537   3.347   1.738  0.0765 -0.0829  0.0440
 5062SOL    HW116020   4.575   3.266   1.706 -0.0353 -0.3243  0.5127
 5062SOL    HW216021   4.478   3.376   1.668 -0.3002 -0.6946  0.1054
 5063SOL     OW16022   5.777   1.915   3.561  0.2081 -0.3740  0.3131
 5063SOL    HW116023   5.845   1.888   3.622  0.1008 -0.4039  0.4192
 5063SOL    HW216024   5.782   1.850   3.490 -0.3110 -0.9120  0.7589
 5064SOL     OW16025   4.678   7.424   1.087  0.2659 -0.1289 -0.3727
 5064SOL    HW116026   4.623   7.469   1.024 -1.7827 -0.4850  1.0721
 5064SOL    HW216027   4.633   7.341   1.104  2.2538 -1.3088 -0.5292
 5065SOL     OW16028   7.812   6.858   4.518  0.4410 -0.0031 -0.1297
 5065SOL    HW116029   7.850   6.777   4.552 -0.7855 -0.0767  1.1759
 5065SOL    HW216030   7.859   6.875   4.436  1.5346 -1.3811  0.1803
 5066SOL     OW16031   1.539   5.958   6.683 -0.1507  0.6769 -0.1065
 5066SOL    HW116032   1.616   5.966   6.739  0.2761  0.3774 -0.6380
 5066SOL    HW216033   1.569   5.990   6.597  0.2935 -2.2703 -1.1411
 5067SOL     OW16034   0.923   7.393   1.249  0.0428 -0.0842 -0.0339
 5067SOL    HW116035   0.980   7.407   1.325 -0.6755 -0.2189  0.5358
 5067SOL    HW216036   0.947   7.306   1.217 -1.0392 -0.9059  1.2783
 5068SOL     OW16037   1.886   7.595   0.475  0.7054 -0.0906  0.1782
 5068SOL    HW116038   1.915   7.566   0.389  2.0224 -1.9601  1.1943
 5068SOL    HW216039   1.870   7.514   0.524 -0.4670  0.9206  1.5753
 5069SOL     OW16040   4.435   1.488   0.689 -1.1340 -0.3434  0.7144
 5069SOL    HW116041   4.518   1.474   0.643 -2.0613 -3.4905 -0.2840
 5069SOL    HW216042   4.415   1.580   0.676  1.3295  0.0889 -0.5368
 5070SOL     OW16043   2.925   2.291   7.557 -0.4451 -0.1068  0.1113
 5070SOL    HW116044   2.932   2.362   7.494  1.3640 -0.6975 -0.4232
 5070SOL    HW216045   2.950   2.213   7.508  0.4719 -0.6626  1.4127
 5071SOL     OW16046   1.901   3.464   2.063 -0.4900  0.2456 -0.4611
 5071SOL    HW116047   1.956   3.386   2.073 -0.9660 -0.0250  0.1468
 5071SOL    HW216048   1.843   3.462   2.140 -0.8444  0.9253 -0.7027
 5072SOL     OW16049   0.342   2.110   5.323 -0.1557  0.2914  0.5651
 5072SOL    HW116050   0.405   2.038   5.316 -0.9480 -0.3700  0.0365
 5072SOL    HW216051   0.337   2.129   5.417  0.3083 -0.1092  0.6739
 5073SOL     OW16052   6.490   5.575   7.158 -0.0293 -0.0662  0.1502
 5073SOL    HW116053   6.396   5.585   7.173 -0.1531 -0.8053 -0.0857
 5073SOL    HW216054   6.530   5.646   7.209 -0.6923  0.0231  0.5610
 5074SOL     OW16055   6.775   6.980   0.059 -0.2929 -0.5598 -0.0600
 5074SOL    HW116056   6.742   6.941  -0.022  1.0490 -1.7901 -0.0518
 5074SOL    HW216057   6.717   6.944   0.127  0.7879 -2.4643 -0.0787
 5075SOL     OW16058   7.114   3.529   3.028  0.5027  0.0083 -0.2325
 5075SOL    HW116059   7.125   3.625   3.026 -2.1077  0.3699 -0.7617
 5075SOL    HW216060   7.071   3.511   3.111  0.1103 -0.5889 -0.5591
 5076SOL     OW16061   4.908   7.384   0.767 -0.0028  0.5617  0.0746
 5076SOL    HW116062   4.921   7.352   0.856 -1.9877 -2.0332 -0.4493
 5076SOL    HW216063   4.986   7.356   0.719 -0.0785 -0.2981  0.4435
 5077SOL     OW16064   6.177   5.271   2.118 -0.3777 -0.1339 -0.1280
 5077SOL    HW116065   6.122   5.338   2.158  0.0978  1.2937 -1.7406
 5077SOL    HW216066   6.222   5.229   2.192 -0.8809  1.1518  0.9404
 5078SOL     OW16067   1.189   1.889   1.907 -0.1393  0.6294 -0.5147
 5078SOL    HW116068   1.247   1.912   1.980 -0.8589  1.4064 -0.1661
 5078SOL    HW216069   1.106   1.932   1.928 -0.3886  0.7941 -1.7463
 5079SOL     OW16070   3.680   2.060   6.234  0.2654 -0.3874  0.2674
 5079SOL    HW116071   3.638   2.142   6.258  2.2720  0.3164  1.5825
 5079SOL    HW216072   3.655   1.998   6.303  0.0841 -0.4453  0.1527
 5080SOL     OW16073   3.550   5.389   1.647  0.2000 -0.1390 -0.3540
 5080SOL    HW116074   3.610   5.464   1.648 -0.5261  0.4491  0.0874
 5080SOL    HW216075   3.519   5.381   1.737 -3.0503  1.8043 -1.1429
 5081SOL     OW16076   4.967   5.503   3.964  0.3299  0.1818 -0.3209
 5081SOL    HW116077   4.954   5.421   3.917 -0.0886  0.3250 -0.4685
 5081SOL    HW216078   5.060   5.506   3.983  0.9356  1.0580 -2.9357
 5082SOL     OW16079   2.905   3.696   2.690 -0.0337 -0.7214 -0.5083
 5082SOL    HW116080   2.942   3.658   2.611  0.3398  0.8171 -1.0997
 5082SOL    HW216081   2.957   3.658   2.761 -0.0266 -1.7034 -1.0166
 5083SOL     OW16082   7.105   3.838   5.137  0.2768 -0.2336 -0.1005
 5083SOL    HW116083   7.127   3.899   5.208  1.4249 -1.1958  0.4083
 5083SOL    HW216084   7.130   3.885   5.057  0.2561  0.3356  0.2171
 5084SOL     OW16085   0.376   6.514   5.043  0.6076 -0.2071 -0.4982
 5084SOL    HW116086   0.325   6.593   5.025 -0.2799 -0.6536 -0.0036
 5084SOL    HW216087   0.463   6.534   5.009  0.0112  0.4138 -1.7607
 5085SOL     OW16088   0.674   5.121   7.856 -0.0911  0.2723  0.4458
 5085SOL    HW116089   0.740   5.179   7.895 -1.0421  0.8492  1.2283
 5085SOL    HW216090   0.723   5.041   7.835  0.8512  0.6625  1.0712
 5086SOL     OW16091   6.810   4.631   7.334  0.0691 -0.0675  0.2601
 5086SOL    HW116092   6.875   4.595   7.395  1.9766 -0.1448 -1.6783
 5086SOL    HW216093   6.811   4.725   7.351 -0.2640 -0.2104  1.1005
 5087SOL     OW16094   7.712   7.447   6.938 -0.2398 -0.0550 -0.0156
 5087SOL    HW116095   7.709   7.456   7.033  0.8208 -0.3897  0.0550
 5087SOL    HW216096   7.622   7.423   6.914 -0.8175  1.2213  0.7560
 5088SOL     OW16097   3.336   1.032   1.249 -0.8266 -0.0833 -0.3975
 5088SOL    HW116098   3.342   1.067   1.338  0.1930 -0.1546 -0.4249
 5088SOL    HW216099   3.253   0.985   1.248  0.0959 -1.9254  1.2064
 5089SOL     OW16100   2.931   2.235   3.792  0.5639  0.0617  0.5087
 5089SOL    HW116101   2.858   2.181   3.765  0.3047 -0.0108  1.3173
 5089SOL    HW216102   3.006   2.175   3.795  0.9107  0.3416 -1.3050
 5090SOL     OW16103   3.268   1.439   5.890 -0.3702  0.0197  0.5077
 5090SOL    HW116104   3.351   1.469   5.926 -0.9252  0.0401  1.8026
 5090SOL    HW216105   3.283   1.346   5.870  0.1111  0.1512  0.2426
 5091SOL     OW16106   0.899   1.575   0.223 -0.1451 -0.0661  0.1609
 5091SOL    HW116107   0.937   1.488   0.231  0.8523  0.4365  1.0091
 5091SOL    HW216108   0.856   1.591   0.307  0.8164  0.7791  0.5152
 5092SOL     OW16109   7.120   7.477   6.260 -0.0033 -0.2112 -1.0385
 5092SOL    HW116110   7.103   7.383   6.260 -0.4361 -0.1528 -2.4600
 5092SOL    HW216111   7.194   7.488   6.320  0.5579 -1.5441 -1.4498
 5093SOL     OW16112   5.315   5.831   3.081  0.5187  0.3532 -0.5353
 5093SOL    HW116113   5.256   5.772   3.128  0.6210 -0.2416 -1.1301
 5093SOL    HW216114   5.264   5.911   3.069  0.5112  0.5392  0.6225
 5094SOL     OW16115   4.327   1.268   0.092  0.1635 -0.0353 -0.3834
 5094SOL    HW116116   4.396   1.205   0.070  1.1555  0.8658  0.0697
 5094SOL    HW216117   4.358   1.351   0.056 -0.1346  0.6153  0.8231
 5095SOL     OW16118   1.942   6.712   4.517  0.1287  0.0411 -0.5899
 5095SOL    HW116119   1.968   6.622   4.538  1.2087  0.1711 -1.2603
 5095SOL    HW216120   1.854   6.721   4.552 -0.0178 -1.3067 -0.5694
 5096SOL     OW16121   5.110   7.510   6.177  0.3419 -0.3211 -0.0572
 5096SOL    HW116122   5.015   7.518   6.171  0.4338 -0.1273 -2.0833
 5096SOL    HW216123   5.127   7.416   6.176  0.2265 -0.3729 -2.4409
 5097SOL     OW16124   4.960   6.269   5.305  0.3571 -0.7338  0.2458
 5097SOL    HW116125   4.935   6.231   5.389  0.6242 -1.4221  0.0187
 5097SOL    HW216126   4.955   6.196   5.243 -2.2850  0.2512 -0.8611
 5098SOL     OW16127   5.476   2.696   0.850  0.3863 -0.0699 -0.0172
 5098SOL    HW116128   5.478   2.784   0.887  0.2591  0.2823 -0.8115
 5098SOL    HW216129   5.445   2.640   0.921  0.4693  0.5247  0.4977
 5099SOL     OW16130   7.471   3.485   5.273  0.1223 -0.0678  0.0643
 5099SOL    HW116131   7.458   3.403   5.321 -0.7149  0.4400  0.7394
 5099SOL    HW216132   7.414   3.478   5.197 -2.3830  1.1135  1.7166
 5100SOL     OW16133   4.105   6.867   4.489 -0.0932 -0.1383 -0.3723
 5100SOL    HW116134   4.120   6.809   4.415  1.2937 -0.9443  0.4981
 5100SOL    HW216135   4.021   6.839   4.526 -1.0820  0.6286 -1.9026
 5101SOL     OW16136   7.423   5.438   3.368  0.3812  0.2070 -1.0249
 5101SOL    HW116137   7.456   5.448   3.457  1.2743  0.4008 -1.3620
 5101SOL    HW216138   7.501   5.417   3.316 -0.0275  0.6603 -1.8455
 5102SOL     OW16139   4.199   5.117   2.256 -0.0427  0.1866 -0.5414
 5102SOL    HW116140   4.105   5.098   2.249 -0.3112  0.8552  0.9572
 5102SOL    HW216141   4.229   5.062   2.328  0.0647  2.1709  1.0045
 5103SOL     OW16142   4.935   5.958   4.727  0.1379 -0.0540  0.1157
 5103SOL    HW116143   4.844   5.961   4.756  0.4573  0.4863  1.1099
 5103SOL    HW216144   4.985   5.995   4.800  0.8912  2.2540 -1.4602
 5104SOL     OW16145   0.103   7.647   2.527 -0.9191 -0.4619  0.2706
 5104SOL    HW116146   0.177   7.588   2.539  0.0978  0.4045 -1.3106
 5104SOL    HW216147   0.139   7.734   2.543 -1.5459 -0.0110 -0.6556
 5105SOL     OW16148   0.938   1.846   2.619  0.1475  0.6840 -0.5979
 5105SOL    HW116149   0.865   1.888   2.572 -1.0307  0.7926  1.1989
 5105SOL    HW216150   0.991   1.806   2.551 -0.2301  2.7204 -2.1735
 5106SOL     OW16151   7.257   4.896   4.222 -0.0299 -0.1376  0.3199
 5106SOL    HW116152   7.276   4.960   4.291  0.4776 -2.1749  2.1752
 5106SOL    HW216153   7.251   4.948   4.142 -0.9921  2.3754  1.9155
 5107SOL     OW16154   4.309   1.998   5.043 -0.2979 -0.0693 -0.7916
 5107SOL    HW116155   4.327   2.078   4.994  0.8933 -0.7563 -1.5033
 5107SOL    HW216156   4.316   1.928   4.979 -1.8042 -0.7318 -0.2799
 5108SOL     OW16157   5.479   2.649   0.563  0.1781  0.4945  0.4952
 5108SOL    HW116158   5.564   2.633   0.603  0.3518 -1.0151 -0.3948
 5108SOL    HW216159   5.422   2.674   0.636  1.2479  0.9579  1.1789
 5109SOL     OW16160   1.531   0.982   3.026  0.1324  0.1473  0.1210
 5109SOL    HW116161   1.590   0.992   2.952  0.1256 -1.5214 -0.1473
 5109SOL    HW216162   1.506   0.890   3.025 -3.0343  0.8934 -0.1802
 5110SOL     OW16163   4.782   1.114   6.795  0.0506  0.2688  0.0437
 5110SOL    HW116164   4.851   1.050   6.778  1.0680  1.4844 -0.6247
 5110SOL    HW216165   4.772   1.113   6.890  0.5491 -0.3691  0.0982
 5111SOL     OW16166   4.399   0.522   2.203  0.2402  0.1111  0.2470
 5111SOL    HW116167   4.348   0.577   2.263  0.2766 -0.1239  0.4956
 5111SOL    HW216168   4.420   0.444   2.254  0.2850 -0.0855 -0.0679
 5112SOL     OW16169   7.944   6.673   1.798  0.5995  0.3921  0.0450
 5112SOL    HW116170   7.968   6.602   1.858  2.4640  0.8097 -0.1390
 5112SOL    HW216171   7.872   6.638   1.747  2.1619 -1.8307 -0.7820
 5113SOL     OW16172   7.579   7.230   7.670  0.5874  0.1795 -0.1890
 5113SOL    HW116173   7.595   7.321   7.696  0.6237  0.2439 -0.4338
 5113SOL    HW216174   7.523   7.195   7.740  0.3701  0.4616 -0.2183
 5114SOL     OW16175   4.488   5.930   7.855  0.0786 -0.1321 -0.1067
 5114SOL    HW116176   4.513   5.840   7.877  0.0622  0.2178  1.4917
 5114SOL    HW216177   4.556   5.961   7.796 -0.1246 -1.3119 -0.9973
 5115SOL     OW16178   7.599   6.739   7.715  0.1348 -0.1548 -0.3656
 5115SOL    HW116179   7.558   6.658   7.686  0.1964  0.3517 -1.9510
 5115SOL    HW216180   7.561   6.756   7.801 -2.7893  0.1366 -1.6276
 5116SOL     OW16181   4.451   2.861   2.884 -0.3405  0.7382 -0.4367
 5116SOL    HW116182   4.535   2.816   2.897 -1.6016 -1.3772  0.9947
 5116SOL    HW216183   4.471   2.953   2.898  2.0500  0.5378 -1.8130
 5117SOL     OW16184   1.433   4.594   7.285  0.3706  0.3301 -0.1109
 5117SOL    HW116185   1.434   4.654   7.359  0.8428  2.1936 -1.5750
 5117SOL    HW216186   1.340   4.579   7.268  0.1844  2.1269 -0.8451
 5118SOL     OW16187   1.420   4.096   1.658 -0.4585  0.0006 -0.4221
 5118SOL    HW116188   1.434   4.090   1.752  0.4733  1.3919 -0.4388
 5118SOL    HW216189   1.336   4.053   1.643 -0.0113 -1.3881  0.8540
 5119SOL     OW16190   4.134   3.558   6.933  0.5891 -0.2126 -0.1392
 5119SOL    HW116191   4.055   3.504   6.938  1.6948 -1.8904 -0.0906
 5119SOL    HW216192   4.138   3.603   7.018  0.2846 -0.9806  0.2894
 5120SOL     OW16193   0.669   0.339   4.092  0.8055  0.3083  0.3199
 5120SOL    HW116194   0.584   0.372   4.063  0.2026 -0.9822  0.5552
 5120SOL    HW216195   0.733   0.393   4.045 -0.1432  0.2693 -1.0688
 5121SOL     OW16196   7.740   1.146   3.996 -0.3427 -0.6757  0.2470
 5121SOL    HW116197   7.793   1.085   3.944  0.4345 -0.6721  1.0215
 5121SOL    HW216198   7.719   1.098   4.076  0.4237  0.1104  0.9383
 5122SOL     OW16199   1.766   2.379   1.304  0.2403  0.5091  0.1439
 5122SOL    HW116200   1.708   2.323   1.252 -1.1066  1.3708  0.6392
 5122SOL    HW216201   1.770   2.336   1.389  3.2014 -1.4064 -0.8317
 5123SOL     OW16202   5.572   5.769   1.799 -0.3453 -0.1777 -0.3497
 5123SOL    HW116203   5.503   5.713   1.836  1.1599 -2.4167 -0.7056
 5123SOL    HW216204   5.634   5.782   1.870  0.0523 -0.2299 -0.6811
 5124SOL     OW16205   7.427   2.287   5.934 -0.0015 -0.7292 -0.4194
 5124SOL    HW116206   7.430   2.344   6.011  0.7486 -0.5863 -0.5525
 5124SOL    HW216207   7.368   2.216   5.960  0.9486 -1.1754  0.6392
 5125SOL     OW16208   7.893   4.052   4.401 -0.4757 -0.6055  0.6766
 5125SOL    HW116209   7.898   4.113   4.327 -1.8648 -1.0595  0.1634
 5125SOL    HW216210   7.977   4.006   4.400  0.4806  1.0636  0.8940
 5126SOL     OW16211   5.402   0.386   0.188  0.1034  0.0457 -0.2982
 5126SOL    HW116212   5.474   0.441   0.219  1.2632 -2.2253  1.3964
 5126SOL    HW216213   5.438   0.340   0.112  0.2685 -0.6079  0.1590
 5127SOL     OW16214   0.714   3.244   6.537 -0.5790  0.2503 -0.6843
 5127SOL    HW116215   0.805   3.267   6.519 -0.0406 -1.8992 -0.9466
 5127SOL    HW216216   0.664   3.322   6.514  1.2611  1.8217  0.3891
 5128SOL     OW16217   5.996   1.070   0.782 -0.1396 -0.0742  0.4692
 5128SOL    HW116218   5.913   1.036   0.814 -0.1257  0.6910  1.3725
 5128SOL    HW216219   6.012   1.148   0.835  0.9788 -0.0065  0.0626
 5129SOL     OW16220   5.841   1.491   0.214  0.1389  0.2390  0.2496
 5129SOL    HW116221   5.857   1.456   0.126  0.1164  1.9072 -0.4666
 5129SOL    HW216222   5.787   1.425   0.257  2.2179 -1.7975 -0.0858
 5130SOL     OW16223   0.483   6.668   0.391  0.9366  0.5219  0.0498
 5130SOL    HW116224   0.536   6.736   0.433  1.5935  0.4069 -0.5885
 5130SOL    HW216225   0.440   6.712   0.318  0.9781  0.3694 -0.0681
 5131SOL     OW16226   1.507   7.361   3.916 -0.2057  0.0142  0.4817
 5131SOL    HW116227   1.429   7.313   3.944  1.5663 -2.2073  1.9885
 5131SOL    HW216228   1.562   7.365   3.994  0.6130  2.8774 -0.1305
 5132SOL     OW16229   1.132   0.959   7.556 -0.1547 -0.4911  0.1851
 5132SOL    HW116230   1.148   1.039   7.507  1.0259 -0.3738  0.7326
 5132SOL    HW216231   1.036   0.950   7.558 -0.2426 -0.7170 -2.4506
 5133SOL     OW16232   0.472   3.445   2.689 -0.0920 -0.2323 -0.4972
 5133SOL    HW116233   0.416   3.382   2.645  0.8065 -2.9813  2.0049
 5133SOL    HW216234   0.413   3.492   2.749 -0.2153 -1.0638  0.0387
 5134SOL     OW16235   6.250   2.546   0.628  0.0322 -0.0495 -0.3361
 5134SOL    HW116236   6.303   2.603   0.574 -0.5026 -0.0755 -0.8964
 5134SOL    HW216237   6.161   2.579   0.618 -0.0535  0.0820  0.7019
 5135SOL     OW16238   3.659   5.979   6.047  0.0217 -0.1289  0.1107
 5135SOL    HW116239   3.710   6.039   5.991  1.0186 -0.5869  0.5010
 5135SOL    HW216240   3.697   5.893   6.030 -0.8415 -0.5307  0.1879
 5136SOL     OW16241   1.430   1.181   0.683 -0.4437  0.2127  0.0759
 5136SOL    HW116242   1.450   1.234   0.760  0.8153  1.1019 -0.8254
 5136SOL    HW216243   1.395   1.243   0.619 -1.1157 -0.4529 -0.2235
 5137SOL     OW16244   0.258   5.124   4.368  0.2464 -0.0742  0.4703
 5137SOL    HW116245   0.295   5.119   4.456  1.4197  1.5314  0.1207
 5137SOL    HW216246   0.181   5.180   4.378  0.8071  0.7382  0.3856
 5138SOL     OW16247   4.625   6.412   2.495  0.3240  0.5693 -0.1017
 5138SOL    HW116248   4.646   6.366   2.577  0.6819 -0.0669 -0.5472
 5138SOL    HW216249   4.671   6.496   2.503  0.6784  0.3524  0.1846
 5139SOL     OW16250   3.841   7.319   6.901  0.1968 -0.2249  0.2504
 5139SOL    HW116251   3.792   7.400   6.889  0.8120 -0.1446 -2.2313
 5139SOL    HW216252   3.932   7.347   6.910  0.3773 -0.6190 -0.3126
 5140SOL     OW16253   3.992   2.333   5.077 -0.0530 -0.2758  0.3200
 5140SOL    HW116254   3.966   2.302   5.163  0.5998  0.6849  0.8754
 5140SOL    HW216255   3.968   2.261   5.018 -0.1545 -1.1072  1.3365
 5141SOL     OW16256   3.568   3.236   4.106 -0.1701  0.2721  0.2260
 5141SOL    HW116257   3.595   3.176   4.037 -0.1009 -0.2053  0.6575
 5141SOL    HW216258   3.615   3.205   4.184 -0.5457  0.5601  0.5704
 5142SOL     OW16259   5.121   3.476   3.990  0.2191  0.7077  0.0460
 5142SOL    HW116260   5.038   3.461   4.035 -0.8353  3.6727 -0.6394
 5142SOL    HW216261   5.098   3.480   3.897  1.8106 -1.9994 -0.5644
 5143SOL     OW16262   7.349   4.035   7.685 -0.4326  0.3641 -0.1746
 5143SOL    HW116263   7.316   4.011   7.771 -0.2644  0.5766 -0.0492
 5143SOL    HW216264   7.273   4.029   7.627 -0.1200 -1.8574 -0.4448
 5144SOL     OW16265   1.999   6.579   5.976  0.3169 -0.2650  0.3174
 5144SOL    HW116266   2.011   6.652   5.914  0.0351 -0.0033  0.5646
 5144SOL    HW216267   2.019   6.501   5.925 -1.9166 -0.2346 -0.7228
 5145SOL     OW16268   3.059   1.551   0.568  0.5936  0.1876  0.5422
 5145SOL    HW116269   3.069   1.515   0.479 -0.8810  0.1897  0.3511
 5145SOL    HW216270   3.046   1.474   0.623  0.0243  0.2751  0.5294
 5146SOL     OW16271   1.685   5.007   2.823  0.0169 -0.0779 -0.3531
 5146SOL    HW116272   1.624   4.948   2.867  0.7246  0.2078  1.0707
 5146SOL    HW216273   1.643   5.027   2.739 -0.7226 -1.7467 -0.4143
 5147SOL     OW16274   2.242   7.310   6.755 -0.1239  0.8195 -0.5834
 5147SOL    HW116275   2.298   7.326   6.680  0.1386  1.3049 -0.2945
 5147SOL    HW216276   2.288   7.352   6.828 -0.9419  1.3755 -0.3766
 5148SOL     OW16277   6.786   0.994   2.999 -0.0097 -0.1472 -0.3300
 5148SOL    HW116278   6.840   0.932   3.048  0.9454 -0.2618 -1.4825
 5148SOL    HW216279   6.802   1.078   3.041 -1.3120 -0.6300  1.2484
 5149SOL     OW16280   6.741   6.424   3.714  0.4235 -0.1161 -0.3149
 5149SOL    HW116281   6.712   6.411   3.804 -0.5022 -1.5590 -0.7837
 5149SOL    HW216282   6.717   6.514   3.694  2.1945  0.8186  1.3972
 5150SOL     OW16283   3.607   2.337   6.241 -0.5201 -0.0442 -0.5616
 5150SOL    HW116284   3.663   2.414   6.242  0.6872 -0.8821  0.4697
 5150SOL    HW216285   3.559   2.341   6.324 -2.1116  0.7089 -1.4697
 5151SOL     OW16286   4.188   4.837   1.161 -0.0802  0.4441  1.0211
 5151SOL    HW116287   4.119   4.779   1.195  0.2445 -0.6950 -0.2102
 5151SOL    HW216288   4.177   4.835   1.066  1.5854  0.3329  0.8089
 5152SOL     OW16289   3.730   7.367   3.686 -0.0278 -0.1030 -0.2108
 5152SOL    HW116290   3.695   7.297   3.742 -1.4557  0.5853 -0.1885
 5152SOL    HW216291   3.671   7.370   3.611 -0.2608  1.3362 -0.0080
 5153SOL     OW16292   3.961   3.158   3.847 -0.6329 -0.0077  0.0978
 5153SOL    HW116293   4.026   3.102   3.804  1.7638  2.2759  0.4427
 5153SOL    HW216294   3.878   3.135   3.805  0.5145 -2.3429 -1.1391
 5154SOL     OW16295   6.201   4.521   5.871  0.0205 -0.6681 -0.7225
 5154SOL    HW116296   6.106   4.533   5.876 -0.0876 -0.8826 -1.8526
 5154SOL    HW216297   6.213   4.444   5.815  0.8540 -0.7594 -0.4307
 5155SOL     OW16298   3.893   6.242   2.465  0.1074 -0.2209  0.7739
 5155SOL    HW116299   3.885   6.337   2.450  1.4757 -0.0765  0.8555
 5155SOL    HW216300   3.985   6.229   2.488 -0.7188 -1.1533  3.9468
 5156SOL     OW16301   4.446   4.551   7.941  0.3456  0.1165 -0.2447
 5156SOL    HW116302   4.537   4.541   7.969  0.0301  0.3753  0.9327
 5156SOL    HW216303   4.435   4.488   7.870  1.4286  0.0564 -0.3689
 5157SOL     OW16304   3.204   2.321   1.457 -0.0186 -0.1434  0.2211
 5157SOL    HW116305   3.234   2.392   1.513  1.0429 -1.0534  0.8309
 5157SOL    HW216306   3.160   2.260   1.516 -1.5004  0.2711 -0.3911
 5158SOL     OW16307   2.224   6.008   0.294 -0.2520 -0.0666  0.3977
 5158SOL    HW116308   2.136   6.044   0.286  0.1072  0.4109 -1.9898
 5158SOL    HW216309   2.281   6.084   0.305 -0.1618 -0.4188  2.8902
 5159SOL     OW16310   0.359   2.791   0.780  0.2375  0.0443 -0.3335
 5159SOL    HW116311   0.415   2.745   0.719 -0.0583 -0.3169 -0.3372
 5159SOL    HW216312   0.396   2.879   0.786  0.6438 -0.1124 -0.5352
 5160SOL     OW16313   2.704   6.849   5.239  0.1964  0.7019  0.2241
 5160SOL    HW116314   2.617   6.886   5.249 -0.2421 -0.3559  0.4635
 5160SOL    HW216315   2.760   6.924   5.220 -0.7696  1.3884  0.0033
 5161SOL     OW16316   1.094   0.459   0.586  0.3415 -0.3230 -0.1754
 5161SOL    HW116317   1.004   0.486   0.604  0.2033 -0.2834 -0.9227
 5161SOL    HW216318   1.107   0.477   0.493  1.4215  0.5311  0.1249
 5162SOL     OW16319   7.832   4.153   0.528  0.7231  0.0947  0.4148
 5162SOL    HW116320   7.798   4.178   0.614 -0.4354  1.4604 -0.3877
 5162SOL    HW216321   7.799   4.065   0.514 -0.3069  0.4013  0.7900
 5163SOL     OW16322   2.532   3.861   2.235 -0.2295  0.0214  0.4415
 5163SOL    HW116323   2.464   3.898   2.292  0.3885  0.2943  1.0177
 5163SOL    HW216324   2.545   3.772   2.268 -0.5596 -0.1591  0.0961
 5164SOL     OW16325   7.223   4.961   7.864 -0.1414  0.0344 -0.3621
 5164SOL    HW116326   7.305   4.995   7.829  0.3436 -1.0965 -0.3701
 5164SOL    HW216327   7.248   4.887   7.918 -1.1440 -0.2113 -0.2019
 5165SOL     OW16328   4.073   5.668   5.669 -0.5843  0.0017 -0.2493
 5165SOL    HW116329   4.018   5.726   5.616 -0.6188 -0.2836 -0.5274
 5165SOL    HW216330   4.162   5.693   5.648 -0.5636 -0.9924 -1.4583
 5166SOL     OW16331   6.340   5.071   5.064 -0.1533  0.7091 -0.5405
 5166SOL    HW116332   6.389   5.032   5.137 -1.0641  1.3167  0.4248
 5166SOL    HW216333   6.264   5.113   5.106  0.3077  2.7523 -1.6224
 5167SOL     OW16334   1.106   5.612   7.358 -0.3031 -0.3014 -0.4605
 5167SOL    HW116335   1.052   5.691   7.347  1.7829  1.0315 -1.8032
 5167SOL    HW216336   1.119   5.605   7.452 -3.0840 -0.9445 -0.0119
 5168SOL     OW16337   7.325   0.878   7.865 -0.1495  0.3301  0.1224
 5168SOL    HW116338   7.274   0.912   7.940 -1.1287  0.0578 -0.4010
 5168SOL    HW216339   7.261   0.830   7.813  0.5227  0.5189 -0.9000
 5169SOL     OW16340   1.900   5.811   0.703  0.8224  0.4531 -0.2255
 5169SOL    HW116341   1.852   5.831   0.782 -1.0920  1.6452 -1.6068
 5169SOL    HW216342   1.897   5.716   0.695 -2.3459  0.5074 -0.7897
 5170SOL     OW16343   6.539   7.553   6.640 -0.2664 -0.1904  0.3340
 5170SOL    HW116344   6.507   7.536   6.552  0.3923  0.1774  0.0103
 5170SOL    HW216345   6.588   7.475   6.664 -0.3494 -0.2442  0.3289
 5171SOL     OW16346   0.286   0.734   2.185  0.3313 -0.2258  0.0664
 5171SOL    HW116347   0.316   0.643   2.181 -0.9113 -0.6230 -0.9462
 5171SOL    HW216348   0.324   0.774   2.106  0.3047 -0.0441  0.1461
 5172SOL     OW16349   3.580   0.293   1.609 -0.1061 -0.4478 -0.0043
 5172SOL    HW116350   3.651   0.334   1.658  0.2332 -2.1400  0.9829
 5172SOL    HW216351   3.500   0.330   1.647  0.1507 -1.7352  1.8691
 5173SOL     OW16352   5.345   6.296   6.116  0.1742  0.0974  0.1090
 5173SOL    HW116353   5.410   6.229   6.138 -0.9006 -0.4142  1.9602
 5173SOL    HW216354   5.388   6.379   6.136 -0.0042 -0.2728  2.2208
 5174SOL     OW16355   4.173   0.243   3.173  0.2359  0.7392 -0.3812
 5174SOL    HW116356   4.121   0.177   3.218 -0.7798  1.7011 -0.0823
 5174SOL    HW216357   4.263   0.210   3.175 -0.1295 -0.2296  0.4718
 5175SOL     OW16358   7.028   4.745   5.437 -0.2174 -0.0414 -0.2953
 5175SOL    HW116359   7.112   4.760   5.392  0.3550  0.1308  0.7962
 5175SOL    HW216360   6.966   4.729   5.366  1.1055 -2.1630 -1.0896
 5176SOL     OW16361   4.645   5.120   3.726 -0.0630  0.2836 -0.0932
 5176SOL    HW116362   4.557   5.159   3.724 -0.6895 -1.0558 -2.0771
 5176SOL    HW216363   4.704   5.195   3.712 -1.0333  0.9401 -0.8620
 5177SOL     OW16364   3.191   0.601   6.164  0.2285 -0.2290 -0.2405
 5177SOL    HW116365   3.169   0.627   6.074 -4.1595  2.7004  1.3522
 5177SOL    HW216366   3.254   0.667   6.193  0.2332 -0.0688 -0.5989
 5178SOL     OW16367   0.756   2.691   4.531  0.4079  0.4095  0.8757
 5178SOL    HW116368   0.677   2.683   4.477 -0.2381  3.7908  1.0821
 5178SOL    HW216369   0.766   2.605   4.572 -1.6121 -0.9382 -1.1951
 5179SOL     OW16370   5.181   5.290   2.798 -0.1651 -0.6112  0.5641
 5179SOL    HW116371   5.212   5.294   2.708  1.0724 -0.1883  0.9848
 5179SOL    HW216372   5.087   5.305   2.792  0.2295  1.9432 -0.4672
 5180SOL     OW16373   3.768   5.792   5.326 -0.4412  0.3857 -0.4986
 5180SOL    HW116374   3.795   5.720   5.268 -1.3172  1.1379 -1.8847
 5180SOL    HW216375   3.679   5.769   5.353 -0.4023  0.5299 -0.2456
 5181SOL     OW16376   7.308   2.093   2.859 -0.1862  0.3190 -0.0151
 5181SOL    HW116377   7.383   2.047   2.821  0.0033  1.1027 -0.6249
 5181SOL    HW216378   7.239   2.027   2.863 -0.2085  0.1754 -1.7291
 5182SOL     OW16379   3.019   0.271   3.695 -0.4505 -0.1866 -0.1339
 5182SOL    HW116380   3.113   0.285   3.696 -0.5608  0.6184 -0.0142
 5182SOL    HW216381   2.999   0.246   3.605 -0.0873 -0.6255 -0.0935
 5183SOL     OW16382   7.403   5.784   7.061  0.4531 -0.9557 -0.4192
 5183SOL    HW116383   7.443   5.700   7.082  0.9826 -0.3516  1.1386
 5183SOL    HW216384   7.466   5.850   7.091 -0.4687 -0.0044 -0.4783
 5184SOL     OW16385   5.251   2.481   0.501 -0.3891 -0.1713 -0.6615
 5184SOL    HW116386   5.288   2.489   0.589  1.4053  1.0212 -1.4678
 5184SOL    HW216387   5.173   2.427   0.513  0.9116 -1.7530  1.3350
 5185SOL     OW16388   6.567   4.195   6.113  0.2265  0.4936  0.1554
 5185SOL    HW116389   6.661   4.182   6.099  0.2300  1.0767 -0.4100
 5185SOL    HW216390   6.528   4.177   6.027 -0.1634  0.4417  0.3432
 5186SOL     OW16391   1.035   5.099   5.573  0.4602  0.5460 -0.1896
 5186SOL    HW116392   1.073   5.183   5.598  0.9250 -0.3457  2.4692
 5186SOL    HW216393   0.941   5.110   5.586  0.5129  0.6877  0.0793
 5187SOL     OW16394   6.289   2.604   2.316  0.2043  0.2496  0.1267
 5187SOL    HW116395   6.266   2.536   2.379 -3.0034  1.2112  0.1756
 5187SOL    HW216396   6.276   2.563   2.230  2.7819 -0.4896 -0.0069
 5188SOL     OW16397   7.554   3.622   1.853 -0.3304  0.1172  0.0054
 5188SOL    HW116398   7.574   3.652   1.941 -1.0793  0.1860  0.1602
 5188SOL    HW216399   7.589   3.533   1.849 -0.2612  0.1290  0.3614
 5189SOL     OW16400   7.394   5.544   0.058  0.0682  0.4703  0.1122
 5189SOL    HW116401   7.402   5.494  -0.023  0.3105 -1.3284  1.1997
 5189SOL    HW216402   7.302   5.569   0.063 -0.6379 -1.9655  0.6715
 5190SOL     OW16403   4.907   7.688   2.536  0.5756  0.7051  0.1184
 5190SOL    HW116404   4.898   7.614   2.596  1.5082 -1.8588 -2.6672
 5190SOL    HW216405   5.001   7.704   2.529  0.7076 -0.6574 -2.3186
 5191SOL     OW16406   0.852   6.432   4.625 -0.2819  0.1839  0.0020
 5191SOL    HW116407   0.885   6.516   4.657 -2.6781  2.1732 -2.2628
 5191SOL    HW216408   0.908   6.412   4.550  0.3025 -0.2968  0.5546
 5192SOL     OW16409   7.281   0.756   4.214  0.8981 -0.3329  0.3852
 5192SOL    HW116410   7.368   0.785   4.185  1.5896 -1.2782  1.4239
 5192SOL    HW216411   7.270   0.795   4.301 -0.1343  0.5344 -0.1090
 5193SOL     OW16412   4.097   1.306   4.334  0.1268 -0.0837 -0.3418
 5193SOL    HW116413   4.067   1.345   4.416  0.4556 -0.2710 -0.1290
 5193SOL    HW216414   4.017   1.289   4.285 -0.2454 -1.6689  0.7060
 5194SOL     OW16415   2.755   6.762   5.997  0.3390  0.1540  0.0779
 5194SOL    HW116416   2.732   6.854   5.985 -2.3774 -0.3384  0.8459
 5194SOL    HW216417   2.763   6.727   5.908 -1.4114  0.5656 -0.2870
 5195SOL     OW16418   0.480   4.100   0.753  0.1586  0.7238  0.2643
 5195SOL    HW116419   0.459   4.024   0.700 -0.3857  0.6212  0.6184
 5195SOL    HW216420   0.557   4.139   0.711  1.2719 -0.7659  0.8455
 5196SOL     OW16421   2.302   1.085   1.681 -0.4128  0.4215  0.4692
 5196SOL    HW116422   2.285   1.054   1.770 -1.5904  0.8781  0.4342
 5196SOL    HW216423   2.227   1.142   1.662 -0.6890 -0.4636 -1.1911
 5197SOL     OW16424   2.206   4.754   2.432  0.3197  0.0889 -0.1656
 5197SOL    HW116425   2.223   4.812   2.506  1.2298  1.8059 -1.6411
 5197SOL    HW216426   2.115   4.726   2.443  0.3368  0.5594  1.3950
 5198SOL     OW16427   2.153   6.241   5.055  0.6802 -0.0939  0.0893
 5198SOL    HW116428   2.122   6.173   4.995  2.2989 -0.4946 -0.3347
 5198SOL    HW216429   2.213   6.294   5.003  0.5126  0.8231  0.8032
 5199SOL     OW16430   3.720   0.704   1.524 -0.5283  0.4006 -0.5862
 5199SOL    HW116431   3.642   0.715   1.577 -0.3988  0.7445 -0.4626
 5199SOL    HW216432   3.692   0.653   1.448 -0.4603 -1.1999  0.4158
 5200SOL     OW16433   1.476   7.766   1.471  0.9634  0.2481 -0.3072
 5200SOL    HW116434   1.476   7.860   1.453  0.4272  0.0902 -1.2446
 5200SOL    HW216435   1.383   7.743   1.478  1.1114 -0.1067  0.5289
 5201SOL     OW16436   3.633   6.215   2.489  0.3593  0.3916  0.1484
 5201SOL    HW116437   3.617   6.170   2.572 -1.1872  1.9449  0.7313
 5201SOL    HW216438   3.728   6.218   2.482  0.5110 -0.4396  1.4870
 5202SOL     OW16439   3.101   0.899   1.302  0.2364 -0.7975 -0.2289
 5202SOL    HW116440   3.011   0.868   1.291 -0.7404  0.9469  1.8788
 5202SOL    HW216441   3.116   0.893   1.397  0.8176  2.6738  0.0029
 5203SOL     OW16442   6.211   5.047   4.107  0.4032 -0.2047 -0.3655
 5203SOL    HW116443   6.197   5.130   4.061  1.3396 -0.6438 -1.4971
 5203SOL    HW216444   6.146   4.987   4.071 -1.3201  0.3893  1.5549
 5204SOL     OW16445   0.928   4.141   0.783 -0.5416 -0.0274  0.0442
 5204SOL    HW116446   0.988   4.198   0.735  0.1711 -0.4982  0.3566
 5204SOL    HW216447   0.956   4.148   0.874 -0.4010 -0.9166  0.0769
 5205SOL     OW16448   6.654   6.847   3.731 -0.0943 -0.4471  0.2536
 5205SOL    HW116449   6.709   6.914   3.770  2.0198 -2.6009  1.2502
 5205SOL    HW216450   6.684   6.840   3.640 -1.8044  1.3244 -0.5280
 5206SOL     OW16451   2.787   5.730   0.454  0.2782  0.0339 -0.1892
 5206SOL    HW116452   2.696   5.734   0.484  0.2760 -1.4299  0.1001
 5206SOL    HW216453   2.805   5.817   0.419 -1.0119  0.5570  0.3809
 5207SOL     OW16454   4.624   6.017   4.278  0.5220 -0.1349 -0.2675
 5207SOL    HW116455   4.557   6.065   4.327  0.4118 -1.5519  1.0193
 5207SOL    HW216456   4.616   6.051   4.188 -1.5944  0.0855 -0.0503
 5208SOL     OW16457   6.656   6.683   0.617 -0.4557 -0.2954 -0.2666
 5208SOL    HW116458   6.658   6.728   0.702 -0.0126 -2.6369  1.0321
 5208SOL    HW216459   6.593   6.734   0.565 -1.6319  0.5434  1.8446
 5209SOL     OW16460   5.985   6.947   4.173  0.0461  0.0021  0.0637
 5209SOL    HW116461   6.000   6.915   4.084  0.0988  0.7452 -0.2033
 5209SOL    HW216462   5.898   6.986   4.170  0.2574  0.4933  0.1977
 5210SOL     OW16463   2.847   6.585   2.456 -0.2427  0.1882  0.0670
 5210SOL    HW116464   2.858   6.672   2.494 -0.4895  0.2481  0.0022
 5210SOL    HW216465   2.753   6.575   2.444 -0.4723 -1.0011  2.2070
 5211SOL     OW16466   1.132   7.513   7.578 -0.1577 -0.3385 -0.8977
 5211SOL    HW116467   1.162   7.596   7.615  2.0702 -1.8157  0.9384
 5211SOL    HW216468   1.153   7.520   7.485  0.0058  1.1351 -0.7737
 5212SOL     OW16469   0.030   1.580   6.194 -0.4662 -0.0445 -0.3854
 5212SOL    HW116470   0.117   1.542   6.209  0.0574  0.5276 -1.7993
 5212SOL    HW216471  -0.015   1.515   6.140 -0.4801  0.1958 -0.6649
 5213SOL     OW16472   3.648   1.660   2.751 -0.5026 -0.3654 -0.0075
 5213SOL    HW116473   3.647   1.747   2.712 -1.1976 -0.2601  0.2359
 5213SOL    HW216474   3.564   1.621   2.728 -0.5139 -0.6776  0.5284
 5214SOL     OW16475   3.050   6.418   3.702 -0.6703 -0.1040  0.1450
 5214SOL    HW116476   3.115   6.443   3.767 -0.4720 -1.1716  0.3788
 5214SOL    HW216477   3.094   6.353   3.647 -1.0804  0.2200 -0.5833
 5215SOL     OW16478   1.396   6.750   0.362 -0.5140 -0.0047  0.2120
 5215SOL    HW116479   1.423   6.842   0.366  1.8479 -0.6508  0.7283
 5215SOL    HW216480   1.477   6.701   0.371 -1.7493 -2.1724  0.2212
 5216SOL     OW16481   4.595   1.845   1.792 -0.5369 -0.5790 -0.3778
 5216SOL    HW116482   4.535   1.824   1.864 -1.8191 -2.1510 -1.8215
 5216SOL    HW216483   4.681   1.821   1.826 -0.8837  0.2926  1.2117
 5217SOL     OW16484   6.229   3.619   5.142 -0.6857  0.2861  0.2736
 5217SOL    HW116485   6.188   3.632   5.228 -0.4968  3.1996  0.0011
 5217SOL    HW216486   6.157   3.626   5.080 -0.3375  1.8610  0.0131
 5218SOL     OW16487   4.386   0.755   3.659  0.1442  0.0691  0.0154
 5218SOL    HW116488   4.349   0.689   3.718  0.3187  0.2453  0.3199
 5218SOL    HW216489   4.458   0.794   3.708  0.1650  0.3534 -0.2393
 5219SOL     OW16490   1.241   1.920   7.267  0.8188  0.5032 -0.2361
 5219SOL    HW116491   1.277   1.853   7.325 -0.7867 -1.2276 -1.1399
 5219SOL    HW216492   1.302   1.925   7.194  0.4702 -0.6995 -0.6235
 5220SOL     OW16493   5.352   5.442   5.754 -0.5929  0.0393 -0.0269
 5220SOL    HW116494   5.308   5.523   5.729  1.0349  0.5384 -1.4363
 5220SOL    HW216495   5.363   5.449   5.849 -0.1399  1.6519 -0.1729
 5221SOL     OW16496   7.442   0.261   4.293  0.1408 -0.2499  0.3290
 5221SOL    HW116497   7.519   0.284   4.345  0.4436 -0.2050 -0.1333
 5221SOL    HW216498   7.392   0.342   4.287  0.2763 -0.1699  0.2659
 5222SOL     OW16499   3.298   4.594   5.604  0.7633 -0.4657  0.0619
 5222SOL    HW116500   3.261   4.637   5.527  0.7395 -0.5985 -0.0013
 5222SOL    HW216501   3.362   4.532   5.568  1.5975  0.2901  0.2049
 5223SOL     OW16502   2.948   4.700   5.611  0.1286 -0.7809 -0.2333
 5223SOL    HW116503   2.873   4.707   5.552  0.5897 -1.7241 -0.9551
 5223SOL    HW216504   3.022   4.681   5.554  0.8177 -0.4518  0.5288
 5224SOL     OW16505   0.194   3.696   6.954 -0.3726 -0.1605  0.4667
 5224SOL    HW116506   0.221   3.788   6.943 -2.2223  0.4016  0.2418
 5224SOL    HW216507   0.273   3.652   6.986  1.0401  1.1617 -0.9904
 5225SOL     OW16508   1.962   6.051   0.334 -0.0142 -0.1234 -0.0369
 5225SOL    HW116509   1.890   6.079   0.277 -0.9796 -1.6207  0.4064
 5225SOL    HW216510   1.936   6.081   0.421  1.1962  1.6690 -0.2339
 5226SOL     OW16511   4.886   3.486   4.108 -0.3362  1.1854 -0.4107
 5226SOL    HW116512   4.806   3.438   4.089 -0.2892  0.8155  0.3145
 5226SOL    HW216513   4.874   3.519   4.197  0.1211  1.5259 -0.4719
 5227SOL     OW16514   6.425   5.086   6.603  0.2742 -0.2470  0.0409
 5227SOL    HW116515   6.411   5.112   6.511 -0.4074  3.1001  0.9584
 5227SOL    HW216516   6.511   5.123   6.624  0.1132 -0.3884  0.9453
 5228SOL     OW16517   4.644   2.303   6.853  0.3359  0.2377  0.1400
 5228SOL    HW116518   4.657   2.341   6.766  0.3413  3.0371  1.2455
 5228SOL    HW216519   4.558   2.263   6.850  0.1745  0.6534 -1.0589
 5229SOL     OW16520   4.613   4.813   7.377  0.4329  0.1632  0.3034
 5229SOL    HW116521   4.618   4.735   7.322  0.1173 -0.5993  1.3149
 5229SOL    HW216522   4.569   4.879   7.323  0.6425 -0.3781 -0.5399
 5230SOL     OW16523   1.037   7.606   1.681 -0.3249 -0.1107 -0.1497
 5230SOL    HW116524   0.987   7.688   1.680  0.4908  0.4012 -2.0522
 5230SOL    HW216525   1.122   7.630   1.716 -0.1387 -0.1757 -0.5538
 5231SOL     OW16526   0.138   6.171   4.922  0.1399 -0.1855 -0.0430
 5231SOL    HW116527   0.142   6.266   4.907 -0.4904 -0.1938 -0.2877
 5231SOL    HW216528   0.225   6.148   4.953  0.0636  0.6201  0.8391
 5232SOL     OW16529   3.252   4.076   5.336 -0.1274 -0.0233 -0.1215
 5232SOL    HW116530   3.218   4.044   5.252  0.9147  0.2928 -0.6789
 5232SOL    HW216531   3.341   4.041   5.341 -0.3380 -0.4409  1.0904
 5233SOL     OW16532   0.372   1.686   4.262  0.0393  0.4838 -0.1615
 5233SOL    HW116533   0.415   1.668   4.179  0.7075 -1.3026  0.5093
 5233SOL    HW216534   0.292   1.632   4.259 -0.6911  1.5398 -0.2165
 5234SOL     OW16535   5.751   3.548   2.761  0.1237  0.0707  0.2338
 5234SOL    HW116536   5.802   3.510   2.689 -0.2144  0.0789 -0.0081
 5234SOL    HW216537   5.724   3.472   2.813  0.7408  0.0943  0.6050
 5235SOL     OW16538   5.224   5.202   6.570  0.1471 -0.0416 -0.1569
 5235SOL    HW116539   5.275   5.128   6.602 -0.9828 -0.9267 -0.3127
 5235SOL    HW216540   5.224   5.264   6.643 -0.2135 -0.9037  0.6080
 5236SOL     OW16541   7.309   4.225   1.895  0.4587  0.0336  0.3803
 5236SOL    HW116542   7.399   4.256   1.901  0.7221 -0.8377  1.0118
 5236SOL    HW216543   7.292   4.182   1.979 -1.2438  1.9980  1.1364
 5237SOL     OW16544   7.546   3.597   5.702  0.4803  0.4566 -0.0935
 5237SOL    HW116545   7.481   3.528   5.700 -0.1084  1.0028 -0.1106
 5237SOL    HW216546   7.591   3.585   5.786  0.8390 -0.3418 -0.3891
 5238SOL     OW16547   4.710   5.032   2.466 -0.8246 -0.0372  0.1425
 5238SOL    HW116548   4.753   4.991   2.541  0.6533 -0.1150 -0.6942
 5238SOL    HW216549   4.782   5.071   2.416 -1.8506  0.6805 -0.8388
 5239SOL     OW16550   2.176   5.148   1.580 -0.2721  0.4456 -0.1079
 5239SOL    HW116551   2.195   5.235   1.546  2.9060 -0.4445 -0.9893
 5239SOL    HW216552   2.189   5.156   1.674 -1.4845  1.2067  0.0190
 5240SOL     OW16553   2.184   0.041   5.372 -0.2268  0.2442 -0.0291
 5240SOL    HW116554   2.146  -0.010   5.301  0.3798  2.2660 -1.9261
 5240SOL    HW216555   2.136   0.124   5.371  2.2048  1.7512 -0.5921
 5241SOL     OW16556   2.229   6.565   2.918 -0.3778  0.6477  0.1763
 5241SOL    HW116557   2.249   6.475   2.941  0.3982  0.4459 -1.1758
 5241SOL    HW216558   2.152   6.560   2.861  0.1576  0.7311 -0.5827
 5242SOL     OW16559   3.654   2.074   7.168  0.0287 -0.0568  0.1802
 5242SOL    HW116560   3.605   2.156   7.160  0.2694  0.0916  0.2133
 5242SOL    HW216561   3.733   2.099   7.217  0.6757 -0.0638 -0.8466
 5243SOL     OW16562   0.165   4.754   3.982  0.0595  0.1168  0.3873
 5243SOL    HW116563   0.223   4.802   3.922  1.3923 -1.0246  0.7180
 5243SOL    HW216564   0.143   4.817   4.050 -0.1291  0.9379 -0.4155
 5244SOL     OW16565   5.327   4.668   1.279  0.5046 -0.3253  0.9918
 5244SOL    HW116566   5.234   4.657   1.301 -0.0688  2.0818  0.1019
 5244SOL    HW216567   5.372   4.662   1.363 -0.6513  0.1290  1.6696
 5245SOL     OW16568   5.314   3.055   4.077  0.2189 -0.3621  0.3848
 5245SOL    HW116569   5.313   3.149   4.062 -1.4247 -0.5734 -1.1690
 5245SOL    HW216570   5.282   3.045   4.167  1.1026  0.5628  0.8251
 5246SOL     OW16571   2.034   5.977   3.539  0.9476 -0.0670  0.4788
 5246SOL    HW116572   2.130   5.979   3.547  0.9839 -0.0767  0.0465
 5246SOL    HW216573   2.007   6.067   3.555  0.8820 -0.3768  2.3411
 5247SOL     OW16574   1.275   1.717   2.258  0.1139  0.0457 -0.3586
 5247SOL    HW116575   1.264   1.664   2.337 -0.4143  2.4359  1.2914
 5247SOL    HW216576   1.366   1.747   2.263  0.8234 -1.6612 -1.9877
 5248SOL     OW16577   4.162   0.031   2.835 -0.1061 -0.0479  0.6465
 5248SOL    HW116578   4.116   0.074   2.907 -0.2358 -0.2102  0.6636
 5248SOL    HW216579   4.094   0.010   2.772  0.1717  1.2051 -0.1061
 5249SOL     OW16580   1.025   0.889   5.913 -0.2638 -0.1817 -0.0905
 5249SOL    HW116581   0.939   0.868   5.878 -0.4427 -0.0992  0.2869
 5249SOL    HW216582   1.029   0.841   5.996 -0.1346  0.1911  0.1193
 5250SOL     OW16583   1.305   7.818   5.378 -0.2164 -0.4806 -0.0970
 5250SOL    HW116584   1.315   7.853   5.290  0.1777 -1.2889 -0.3888
 5250SOL    HW216585   1.222   7.769   5.374 -0.3808 -0.2196  0.0883
 5251SOL     OW16586   2.373   7.941   2.171 -0.2328  0.4574  0.1597
 5251SOL    HW116587   2.391   8.012   2.233 -0.4098  0.0629  0.6722
 5251SOL    HW216588   2.311   7.884   2.217  0.2974 -0.2983 -0.0291
 5252SOL     OW16589   6.569   7.108   6.074 -0.0278 -0.1244  0.0780
 5252SOL    HW116590   6.563   7.202   6.060  0.1288 -0.0141  0.7053
 5252SOL    HW216591   6.582   7.071   5.987 -1.4387  0.3140 -0.3508
 5253SOL     OW16592   7.908   4.066   1.774  0.0389 -0.3491 -0.4681
 5253SOL    HW116593   7.978   4.118   1.813 -1.2409  0.0762  1.4301
 5253SOL    HW216594   7.876   4.119   1.701  0.8343  0.0575 -0.5254
 5254SOL     OW16595   5.925   2.402   3.412 -0.0831  0.2203  0.0841
 5254SOL    HW116596   5.846   2.426   3.460 -0.5723 -0.9066 -0.1119
 5254SOL    HW216597   5.904   2.317   3.374  1.0226  0.1767 -0.4567
 5255SOL     OW16598   0.553   2.074   0.565  0.3822  0.0203 -0.5511
 5255SOL    HW116599   0.504   2.004   0.607  0.3822 -1.0050 -2.1923
 5255SOL    HW216600   0.607   2.111   0.635 -1.2317 -0.1321  0.8336
 5256SOL     OW16601   3.201   1.080   6.253 -0.0184 -0.1679  0.0537
 5256SOL    HW116602   3.252   1.039   6.183  0.0436 -0.6065  0.3500
 5256SOL    HW216603   3.154   1.152   6.210 -1.5046 -1.6204 -0.8655
 5257SOL     OW16604   6.137   6.530   3.119  0.3581 -0.1730  0.3282
 5257SOL    HW116605   6.202   6.484   3.066 -1.4083 -2.1844 -0.2335
 5257SOL    HW216606   6.129   6.616   3.078  1.4116 -0.4999 -0.6281
 5258SOL     OW16607   5.817   3.305   4.670  0.3462 -0.4402  0.2372
 5258SOL    HW116608   5.757   3.347   4.730  0.6709 -0.0351  0.2815
 5258SOL    HW216609   5.898   3.355   4.677  0.0573  0.2996 -1.3482
 5259SOL     OW16610   7.033   1.632   5.162  0.0730  0.5455  0.0007
 5259SOL    HW116611   6.978   1.577   5.219  0.0799  2.0612  1.5626
 5259SOL    HW216612   7.120   1.594   5.170 -0.3741 -0.8036 -1.0842
 5260SOL     OW16613   4.363   7.340   0.837 -0.2585  0.0514  0.0042
 5260SOL    HW116614   4.370   7.250   0.868  1.5179 -0.2252 -1.0807
 5260SOL    HW216615   4.310   7.334   0.758  0.6962 -0.2100 -0.6292
 5261SOL     OW16616   7.565   1.011   0.346 -0.4064 -0.3028 -0.1233
 5261SOL    HW116617   7.498   1.062   0.391 -0.2676 -1.9443  2.1109
 5261SOL    HW216618   7.618   1.076   0.301 -0.9018  1.4353  1.6638
 5262SOL     OW16619   4.340   3.035   7.639  0.3342  0.2012 -0.0501
 5262SOL    HW116620   4.349   3.131   7.645 -0.9464  0.4290 -1.3927
 5262SOL    HW216621   4.424   3.002   7.671  0.3901  1.7211  1.5440
 5263SOL     OW16622   7.614   2.702   7.935 -0.4030 -0.7253  0.1023
 5263SOL    HW116623   7.562   2.652   7.872 -1.8498  0.0056  0.6713
 5263SOL    HW216624   7.652   2.635   7.992  0.7594 -1.3835 -1.3624
 5264SOL     OW16625   3.818   4.379   4.224  0.5669  0.1515 -0.5443
 5264SOL    HW116626   3.750   4.361   4.289 -0.1990  0.0360 -1.3690
 5264SOL    HW216627   3.888   4.317   4.246  1.0647  1.2607  1.2246
 5265SOL     OW16628   3.409   5.288   2.261 -0.2204  0.2368  0.1526
 5265SOL    HW116629   3.378   5.247   2.342  0.3681 -0.1680  0.1809
 5265SOL    HW216630   3.455   5.217   2.215 -0.3048  0.5389 -0.4022
 5266SOL     OW16631   4.751   6.266   2.704  0.1122  0.3240 -0.2743
 5266SOL    HW116632   4.835   6.290   2.664  0.4946  1.3360  1.0760
 5266SOL    HW216633   4.766   6.178   2.739  1.2511  1.2135  1.5936
 5267SOL     OW16634   2.581   2.180   4.221  0.8017  0.1688 -0.3192
 5267SOL    HW116635   2.534   2.246   4.169 -0.8837 -0.8363 -0.1247
 5267SOL    HW216636   2.542   2.186   4.308  0.3155 -1.3388 -0.4041
 5268SOL     OW16637   6.501   5.881   7.680 -0.2616  0.6658 -0.1445
 5268SOL    HW116638   6.493   5.801   7.629 -0.8401 -0.5315  1.7141
 5268SOL    HW216639   6.552   5.940   7.625  3.4817 -2.2065 -0.1831
 5269SOL     OW16640   7.285   1.766   0.440  0.6778 -0.5075 -0.0649
 5269SOL    HW116641   7.275   1.791   0.349  1.7521  2.0310  0.4225
 5269SOL    HW216642   7.367   1.808   0.468 -0.3581  0.0739  2.4372
 5270SOL     OW16643   6.506   2.961   0.307  0.2581  0.1826  0.6041
 5270SOL    HW116644   6.507   3.056   0.316  2.2769  0.1091  1.6156
 5270SOL    HW216645   6.515   2.945   0.213 -1.3824  0.9451  0.2791
 5271SOL     OW16646   2.929   5.728   3.000 -0.3382  0.5592  0.5662
 5271SOL    HW116647   2.857   5.666   2.997 -0.7206  0.9883  0.8148
 5271SOL    HW216648   2.932   5.758   3.091 -0.8064  1.6606  0.2373
 5272SOL     OW16649   1.585   3.050   3.667 -0.1135  0.6299 -0.0309
 5272SOL    HW116650   1.609   2.959   3.681  0.4059  1.0053  1.8021
 5272SOL    HW216651   1.588   3.062   3.572  2.6181 -0.5300 -0.1910
 5273SOL     OW16652   5.750   5.133   1.912 -0.3160  0.0195 -0.1839
 5273SOL    HW116653   5.748   5.192   1.988  1.1324  1.4999 -1.2379
 5273SOL    HW216654   5.670   5.153   1.864 -0.9593 -0.5219  0.6484
 5274SOL     OW16655   6.285   3.699   1.143  0.1042 -0.1210 -0.4007
 5274SOL    HW116656   6.201   3.653   1.134 -1.4757  2.2160  1.3728
 5274SOL    HW216657   6.276   3.777   1.088  0.5310  0.8708  0.8910
 5275SOL     OW16658   3.146   2.553   2.600 -0.3091 -0.1565  0.2837
 5275SOL    HW116659   3.142   2.607   2.679  1.9415 -0.3264  0.5832
 5275SOL    HW216660   3.213   2.595   2.546  0.1011 -1.5530 -0.3305
 5276SOL     OW16661   5.212   6.493   5.972  0.6028 -0.6676 -0.1833
 5276SOL    HW116662   5.240   6.429   6.037  2.3375 -0.6135 -0.8266
 5276SOL    HW216663   5.212   6.446   5.889  1.7676  0.0990 -0.6452
 5277SOL     OW16664   3.803   2.518   6.278  0.1283  0.0121 -0.6711
 5277SOL    HW116665   3.820   2.553   6.366 -1.5562  0.6851 -0.5893
 5277SOL    HW216666   3.840   2.583   6.219  0.0506  0.2311 -0.4796
 5278SOL     OW16667   2.314   1.531   2.920 -0.6522 -0.6192  0.1165
 5278SOL    HW116668   2.397   1.496   2.887 -0.4011 -0.9681  1.1048
 5278SOL    HW216669   2.306   1.617   2.878  0.4609 -0.3617  0.4150
 5279SOL     OW16670   7.921   0.926   3.040 -0.3600  0.3269 -0.2848
 5279SOL    HW116671   7.853   0.927   3.107 -0.2325 -0.4527 -0.1358
 5279SOL    HW216672   7.967   1.009   3.051 -0.1462  0.0793  0.8071
 5280SOL     OW16673   5.359   1.330   6.809  0.7556  0.7839  0.0945
 5280SOL    HW116674   5.373   1.239   6.836  1.6251  0.1524 -2.2072
 5280SOL    HW216675   5.435   1.378   6.843  0.0463  0.7849  1.7400
 5281SOL     OW16676   1.683   7.124   2.530 -0.2529  1.0493  0.4029
 5281SOL    HW116677   1.691   7.049   2.471 -2.7651  0.0403  1.2340
 5281SOL    HW216678   1.727   7.195   2.483  3.2428 -1.0849  0.0748
 5282SOL     OW16679   0.406   2.371   5.797  0.0087 -0.1483  0.1971
 5282SOL    HW116680   0.381   2.386   5.888 -0.7672  1.4823 -0.2311
 5282SOL    HW216681   0.355   2.436   5.748  1.3241 -0.1708 -1.2734
 5283SOL     OW16682   7.293   3.295   0.978 -0.2320  0.4201  0.2906
 5283SOL    HW116683   7.246   3.262   1.055 -0.8407  0.2274 -0.1503
 5283SOL    HW216684   7.311   3.217   0.926  1.0390  0.4280  0.6844
 5284SOL     OW16685   0.180   2.597   7.726  0.7087 -0.5141  0.4089
 5284SOL    HW116686   0.244   2.607   7.656  0.8391 -2.7338  0.1302
 5284SOL    HW216687   0.115   2.536   7.691  0.3535 -1.0653  1.9345
 5285SOL     OW16688   4.651   3.424   0.757 -0.3378 -0.1482  0.0836
 5285SOL    HW116689   4.741   3.440   0.729 -0.2492 -1.4882 -0.4617
 5285SOL    HW216690   4.598   3.477   0.697  0.0103 -0.8089 -0.8356
 5286SOL     OW16691   3.310   2.256   0.747  0.0819  0.3690 -0.2045
 5286SOL    HW116692   3.320   2.295   0.834  1.2079  0.8036 -0.5012
 5286SOL    HW216693   3.216   2.254   0.731 -0.1743 -0.3091  1.2790
 5287SOL     OW16694   6.731   5.155   3.241 -0.1297  0.4098 -0.2568
 5287SOL    HW116695   6.703   5.205   3.164 -1.3678  0.1328 -0.0055
 5287SOL    HW216696   6.751   5.068   3.207 -2.2228 -0.1909 -0.0693
 5288SOL     OW16697   5.292   3.257   3.802 -0.5829 -0.0453  0.1541
 5288SOL    HW116698   5.326   3.287   3.718  0.5175  0.2983  0.6996
 5288SOL    HW216699   5.318   3.325   3.864 -3.1932  0.7796  0.4758
 5289SOL     OW16700   5.138   1.248   6.299  0.3068 -0.6005 -0.0417
 5289SOL    HW116701   5.180   1.327   6.333 -1.0748 -0.7102  2.0742
 5289SOL    HW216702   5.045   1.258   6.321 -0.4063 -1.5644 -2.2464
 5290SOL     OW16703   0.601   2.295   5.082 -0.3279 -0.3425 -0.5174
 5290SOL    HW116704   0.673   2.313   5.142 -0.9942  0.7971 -0.0175
 5290SOL    HW216705   0.599   2.200   5.074 -0.8702 -0.6112  2.1031
 5291SOL     OW16706   0.986   6.260   2.653  1.0925 -0.0030  0.2208
 5291SOL    HW116707   1.013   6.322   2.586 -0.9496 -0.2655 -0.9202
 5291SOL    HW216708   0.986   6.312   2.734 -1.6434  1.9491 -0.8556
 5292SOL     OW16709   2.665   2.786   7.102  0.4459  0.2975  0.5921
 5292SOL    HW116710   2.688   2.694   7.112  1.0100  0.3974  0.2398
 5292SOL    HW216711   2.702   2.829   7.179  2.2174  0.5903 -0.3645
 5293SOL     OW16712   2.078   2.400   7.543  0.0263  0.1130  0.0445
 5293SOL    HW116713   2.173   2.401   7.549  0.0731 -1.0363 -0.3203
 5293SOL    HW216714   2.048   2.430   7.629  0.7296 -1.3530  0.8306
 5294SOL     OW16715   6.238   6.718   1.325 -0.0924  0.4641  0.2582
 5294SOL    HW116716   6.179   6.787   1.358  1.0446  0.9388  1.4071
 5294SOL    HW216717   6.210   6.639   1.371 -0.8578  0.3316 -0.4215
 5295SOL     OW16718   2.440   3.781   0.343 -0.3543  0.0663 -0.2347
 5295SOL    HW116719   2.515   3.722   0.353  0.2946  0.6555 -1.3225
 5295SOL    HW216720   2.379   3.755   0.412  0.5902 -0.8292  0.2970
 5296SOL     OW16721   1.780   3.264   4.970  0.2952 -0.3464  0.4231
 5296SOL    HW116722   1.694   3.294   5.000 -0.0464  0.2597 -1.0510
 5296SOL    HW216723   1.821   3.343   4.934  1.8347 -0.4379  1.8260
 5297SOL     OW16724   1.743   5.519   4.178 -0.3673 -0.5683 -0.7225
 5297SOL    HW116725   1.782   5.522   4.265  0.5435  1.1188 -1.1428
 5297SOL    HW216726   1.649   5.511   4.194 -0.1721 -0.7912  0.3957
 5298SOL     OW16727   6.338   3.395   4.866  0.3052 -0.0411 -0.5461
 5298SOL    HW116728   6.248   3.395   4.898  0.6786  2.0881  0.7372
 5298SOL    HW216729   6.370   3.306   4.882 -0.4685  0.1099  2.4248
 5299SOL     OW16730   6.069   1.669   0.661 -0.2523  0.2157 -0.1213
 5299SOL    HW116731   6.105   1.757   0.658 -1.0348  0.5280 -2.0182
 5299SOL    HW216732   6.106   1.625   0.585  0.6435 -1.3413  1.1552
 5300SOL     OW16733   2.064   0.973   0.912  0.3095 -0.7409  0.5171
 5300SOL    HW116734   2.131   0.955   0.846 -0.2357 -0.6435 -0.0670
 5300SOL    HW216735   1.991   0.916   0.889  0.3221 -1.1246  1.3783
 5301SOL     OW16736   5.167   0.269   7.914  0.2326  0.0774  0.2739
 5301SOL    HW116737   5.128   0.319   7.985 -1.3050  2.9663 -2.3511
 5301SOL    HW216738   5.257   0.300   7.909  0.2142  0.1925  0.6501
 5302SOL     OW16739   4.633   0.915   2.408 -0.1099 -0.3450  0.2670
 5302SOL    HW116740   4.651   0.888   2.498  0.2109 -0.1368  0.2661
 5302SOL    HW216741   4.538   0.928   2.406 -0.1630 -0.6994  0.4777
 5303SOL     OW16742   2.833   2.276   2.672  0.1124 -0.2385 -0.2740
 5303SOL    HW116743   2.796   2.189   2.689  1.1441 -0.7132 -0.3871
 5303SOL    HW216744   2.773   2.336   2.716 -0.2836 -1.0548  0.3331
 5304SOL     OW16745   1.130   0.021   5.592  0.1109 -0.5602  0.3301
 5304SOL    HW116746   1.051   0.064   5.559  1.4095  1.4622 -0.3499
 5304SOL    HW216747   1.112   0.008   5.685 -0.8838  0.2158  0.2714
 5305SOL     OW16748   2.715   1.636   6.495  0.2502 -0.2444 -0.2415
 5305SOL    HW116749   2.806   1.657   6.512  0.3356 -1.2198  0.5523
 5305SOL    HW216750   2.692   1.568   6.559 -1.3503  0.7606  0.3200
 5306SOL     OW16751   0.384   5.648   5.864  0.5180  0.4615  0.3558
 5306SOL    HW116752   0.411   5.702   5.939  0.0798 -0.1699  0.9724
 5306SOL    HW216753   0.299   5.612   5.889  0.9145 -0.7216  0.0563
 5307SOL     OW16754   7.131   4.274   0.195 -0.0297 -0.5809  0.1490
 5307SOL    HW116755   7.165   4.240   0.278 -3.0264 -1.5793  1.0849
 5307SOL    HW216756   7.127   4.369   0.208  0.0576 -0.6788  0.9315
 5308SOL     OW16757   2.574   6.827   6.902 -0.5755  0.2569 -0.1305
 5308SOL    HW116758   2.598   6.855   6.813 -1.7799  2.2329  0.1051
 5308SOL    HW216759   2.531   6.743   6.889 -0.9392  0.6180 -1.4515
 5309SOL     OW16760   6.391   1.461   6.401  0.1135  0.4000  0.4974
 5309SOL    HW116761   6.450   1.402   6.355  1.8070 -0.0441  3.0413
 5309SOL    HW216762   6.425   1.549   6.384 -1.5427  0.6761 -2.0691
 5310SOL     OW16763   5.904   6.743   0.003  0.2136  0.0270  0.6360
 5310SOL    HW116764   5.869   6.663  -0.038 -0.6618  0.3430  0.7388
 5310SOL    HW216765   5.952   6.711   0.080  0.6273 -0.4644  0.1826
 5311SOL     OW16766   5.345   3.076   2.822 -0.3297 -0.7046 -0.0492
 5311SOL    HW116767   5.431   3.060   2.783 -0.1454 -0.7887  0.3924
 5311SOL    HW216768   5.356   3.057   2.915  0.3498  3.3418  0.9054
 5312SOL     OW16769   2.781   2.762   7.369  0.0243  0.4116  0.1871
 5312SOL    HW116770   2.806   2.840   7.319 -1.1920  1.2993  0.9135
 5312SOL    HW216771   2.755   2.796   7.455 -0.5030 -0.8088  0.5246
 5313SOL     OW16772   3.368   6.327   1.315 -0.4773 -0.4836  0.3320
 5313SOL    HW116773   3.373   6.411   1.268  2.3766 -0.7308  0.0476
 5313SOL    HW216774   3.363   6.262   1.245  2.0401 -0.7563  0.3405
 5314SOL     OW16775   6.217   4.220   3.359  0.4457 -0.2605 -0.1426
 5314SOL    HW116776   6.211   4.297   3.415  0.0708 -1.0366  0.9464
 5314SOL    HW216777   6.294   4.234   3.304  0.8096  0.5479  0.5659
 5315SOL     OW16778   3.538   6.103   3.272  0.0115  0.1835  0.0664
 5315SOL    HW116779   3.530   6.008   3.266 -2.2167  0.2217  1.5717
 5315SOL    HW216780   3.592   6.118   3.349  0.1304  0.1438 -0.0091
 5316SOL     OW16781   6.940   6.502   6.925  0.2912 -0.0898  0.2217
 5316SOL    HW116782   6.979   6.416   6.912 -2.8096 -1.6078  0.0061
 5316SOL    HW216783   6.870   6.507   6.859  0.1123  2.4231  0.5086
 5317SOL     OW16784   6.550   7.926   3.094  0.2683  0.1617 -0.4904
 5317SOL    HW116785   6.558   7.978   3.014  0.4049  1.2147  0.1939
 5317SOL    HW216786   6.640   7.919   3.127  0.0140  1.2367  0.4934
 5318SOL     OW16787   6.556   5.500   1.402 -0.4069  0.1689  0.2205
 5318SOL    HW116788   6.588   5.415   1.432 -0.0245  0.7797  1.5991
 5318SOL    HW216789   6.633   5.544   1.365 -0.4203  0.2631  0.3048
 5319SOL     OW16790   4.860   4.420   0.303 -0.4221 -0.2876 -0.3779
 5319SOL    HW116791   4.831   4.500   0.259  2.5165  0.9406 -0.2746
 5319SOL    HW216792   4.821   4.349   0.252  0.6530  1.1231 -3.4040
 5320SOL     OW16793   0.045   5.633   5.681  0.1374  0.1201 -0.2742
 5320SOL    HW116794   0.077   5.723   5.693 -0.7166  0.3452  0.3526
 5320SOL    HW216795  -0.048   5.642   5.662 -0.3874 -0.7089  1.6711
 5321SOL     OW16796   2.206   2.975   4.860  0.0529 -0.0548 -0.3471
 5321SOL    HW116797   2.294   2.956   4.827  0.2564 -0.1447  0.2447
 5321SOL    HW216798   2.208   3.069   4.880  0.1587 -0.1513  0.0994
 5322SOL     OW16799   6.350   4.207   1.077  0.0172  0.0477 -0.6568
 5322SOL    HW116800   6.277   4.209   1.016 -0.9136  0.0914  0.4303
 5322SOL    HW216801   6.315   4.243   1.159  1.7789  2.0090 -0.6597
 5323SOL     OW16802   2.652   1.922   1.771  0.0427  0.1684 -0.0387
 5323SOL    HW116803   2.633   1.953   1.682 -1.4144 -1.1384 -0.2303
 5323SOL    HW216804   2.615   1.990   1.828 -0.0180  0.4731 -0.4323
 5324SOL     OW16805   4.722   7.759   3.006  0.0896 -0.2793  0.5360
 5324SOL    HW116806   4.761   7.817   3.072  1.1293  1.6761 -1.6411
 5324SOL    HW216807   4.797   7.716   2.964 -0.4914 -0.9954  0.2156
 5325SOL     OW16808   4.398   0.195   2.729  0.4694 -0.8284  0.5187
 5325SOL    HW116809   4.394   0.251   2.651  2.1937  0.1706  1.0883
 5325SOL    HW216810   4.319   0.142   2.724 -1.5115  1.9408  0.1353
 5326SOL     OW16811   4.268   6.401   2.904 -0.4536  0.1697  0.5032
 5326SOL    HW116812   4.360   6.373   2.894 -0.7386 -0.3348 -1.0979
 5326SOL    HW216813   4.274   6.488   2.943  0.6294 -0.5090  1.9468
 5327SOL     OW16814   0.737   5.909   0.878  0.3538  0.2330  0.4295
 5327SOL    HW116815   0.669   5.936   0.816  0.8313 -2.1264 -1.2852
 5327SOL    HW216816   0.694   5.912   0.963 -1.3176  0.6107 -0.3755
 5328SOL     OW16817   6.027   0.174   2.219 -0.3375 -0.6867 -0.4622
 5328SOL    HW116818   6.018   0.098   2.277  0.7817 -1.5872 -1.4427
 5328SOL    HW216819   6.088   0.146   2.151  1.2101  1.5560 -0.0914
 5329SOL     OW16820   6.038   1.076   1.722 -0.1543  0.4692  0.0261
 5329SOL    HW116821   6.037   1.140   1.792  1.3377  1.8185 -1.1132
 5329SOL    HW216822   5.945   1.059   1.703 -0.5928  2.4479  0.2427
 5330SOL     OW16823   3.981   4.584   2.089  0.1313 -0.2247 -0.2205
 5330SOL    HW116824   3.948   4.501   2.056 -1.5188  1.0604 -2.0001
 5330SOL    HW216825   3.950   4.649   2.027  2.2408  1.6479  0.5441
 5331SOL     OW16826   2.316   5.284   2.849 -0.2223 -0.8484 -0.1099
 5331SOL    HW116827   2.386   5.222   2.870 -0.1374 -1.4080 -1.9070
 5331SOL    HW216828   2.239   5.250   2.895  0.3915 -0.8837  0.9252
 5332SOL     OW16829   4.815   1.713   0.225  0.3585 -0.0853 -0.0565
 5332SOL    HW116830   4.797   1.768   0.149  1.4232  1.0927  0.5053
 5332SOL    HW216831   4.734   1.715   0.276 -0.8431 -1.9537 -1.7260
 5333SOL     OW16832   5.090   4.489   0.076  0.0151  0.0757  0.3866
 5333SOL    HW116833   5.053   4.529   0.154  0.5535  1.8698 -0.2309
 5333SOL    HW216834   5.038   4.409   0.063 -1.1031  0.5548  1.6698
 5334SOL     OW16835   4.466   7.028   5.131 -0.6868 -0.1060 -0.6162
 5334SOL    HW116836   4.493   6.984   5.051 -1.8671 -0.8860 -0.6138
 5334SOL    HW216837   4.448   6.956   5.192 -0.4502  0.4598  0.1270
 5335SOL     OW16838   2.187   3.715   1.157 -0.1955  0.4513  0.1067
 5335SOL    HW116839   2.158   3.681   1.241  0.1273 -2.6870 -0.9045
 5335SOL    HW216840   2.111   3.758   1.120 -1.0641 -0.2602  1.0178
 5336SOL     OW16841   2.770   7.161   0.280 -0.7044  0.1158  0.5003
 5336SOL    HW116842   2.842   7.186   0.221 -0.9148 -0.1481  0.1233
 5336SOL    HW216843   2.716   7.239   0.287  0.5112  0.8483  2.1305
 5337SOL     OW16844   0.481   0.337   6.496  0.1130  0.3576 -0.3301
 5337SOL    HW116845   0.460   0.338   6.590 -0.3709 -2.5730 -0.3143
 5337SOL    HW216846   0.571   0.306   6.493 -0.5937 -1.8168 -0.8301
 5338SOL     OW16847   7.755   1.520   4.508  0.4255  0.2214  0.4679
 5338SOL    HW116848   7.716   1.546   4.591 -0.2565  1.8955 -0.3064
 5338SOL    HW216849   7.813   1.593   4.485  0.2762 -0.0059 -0.7069
 5339SOL     OW16850   1.619   7.037   6.809  0.0109 -0.4418 -0.3459
 5339SOL    HW116851   1.606   6.947   6.838  1.7391 -0.6579 -0.1162
 5339SOL    HW216852   1.588   7.091   6.882  0.2573 -0.8930  0.0974
 5340SOL     OW16853   3.973   5.422   4.910  0.3450 -0.4163  0.5040
 5340SOL    HW116854   3.962   5.425   4.815 -0.1087  0.6363  0.5776
 5340SOL    HW216855   4.065   5.399   4.923 -0.1799 -3.2696 -0.1578
 5341SOL     OW16856   6.471   2.408   4.642 -0.0584  0.5916 -0.4147
 5341SOL    HW116857   6.420   2.431   4.720 -0.3516  0.4752 -0.5706
 5341SOL    HW216858   6.560   2.392   4.675 -0.1712  0.5873 -0.1119
 5342SOL     OW16859   0.269   3.518   5.647 -0.7667 -0.2254 -0.7684
 5342SOL    HW116860   0.347   3.556   5.687 -0.7591  0.7285 -1.6613
 5342SOL    HW216861   0.303   3.449   5.590 -0.7012 -0.8510  0.0070
 5343SOL     OW16862   4.534   5.446   3.170  0.6607 -0.9821  0.7008
 5343SOL    HW116863   4.549   5.401   3.253  2.2634  1.1551  1.6686
 5343SOL    HW216864   4.440   5.437   3.154 -0.0235  0.0166  3.6643
 5344SOL     OW16865   4.065   4.307   6.173 -0.0814 -0.2414  0.8509
 5344SOL    HW116866   4.069   4.287   6.267  0.0913  1.4989  1.2515
 5344SOL    HW216867   4.132   4.375   6.160 -0.0796 -0.4796 -0.5471
 5345SOL     OW16868   6.584   2.823   5.913  0.3064 -0.2528  0.3743
 5345SOL    HW116869   6.517   2.785   5.969  0.3067  0.4025  0.8254
 5345SOL    HW216870   6.540   2.894   5.866 -0.1597 -1.8602 -1.7810
 5346SOL     OW16871   2.094   0.581   6.961  0.3077  0.1170  0.1397
 5346SOL    HW116872   2.050   0.606   7.043  0.9787  0.5431  0.3790
 5346SOL    HW216873   2.083   0.656   6.903 -0.9015 -0.5144 -0.4788
 5347SOL     OW16874   7.353   1.558   5.831 -0.0266  0.1422 -0.3177
 5347SOL    HW116875   7.444   1.570   5.858 -0.1121 -0.2853  0.1618
 5347SOL    HW216876   7.304   1.550   5.912 -0.4801  0.2505 -0.5767
 5348SOL     OW16877   1.978   6.634   2.054  0.1263 -0.3725 -0.1177
 5348SOL    HW116878   1.980   6.700   2.123  0.5434 -0.3742 -0.1237
 5348SOL    HW216879   1.978   6.550   2.100 -0.3809 -0.3719 -0.1104
 5349SOL     OW16880   5.118   7.736   5.911 -0.0117 -0.3675 -0.3801
 5349SOL    HW116881   5.212   7.756   5.912  0.0939 -0.8629  0.1419
 5349SOL    HW216882   5.102   7.693   5.995 -0.2874 -2.1881 -1.3248
 5350SOL     OW16883   6.745   1.491   2.430 -0.3559 -0.0927  0.5109
 5350SOL    HW116884   6.839   1.495   2.446  0.0937  0.7927 -1.9174
 5350SOL    HW216885   6.706   1.493   2.517  1.8232  0.6346  1.5560
 5351SOL     OW16886   5.521   2.523   0.010 -0.3118  0.0933  0.3281
 5351SOL    HW116887   5.550   2.566  -0.071 -1.0654  0.2101  0.1087
 5351SOL    HW216888   5.425   2.533   0.009 -0.4877 -1.3745  0.4013
 5352SOL     OW16889   0.751   3.401   6.134 -0.3721  0.4415 -0.2282
 5352SOL    HW116890   0.804   3.324   6.112  1.6987  1.0423  2.1068
 5352SOL    HW216891   0.670   3.390   6.084  0.9120 -1.8646 -2.0209
 5353SOL     OW16892   1.654   0.543   7.408 -0.0718 -0.2541  0.0764
 5353SOL    HW116893   1.669   0.606   7.337 -2.8200  2.1420  1.3895
 5353SOL    HW216894   1.605   0.472   7.367 -1.6435  1.1005 -0.5420
 5354SOL     OW16895   7.161   5.660   1.558  0.0005  0.1784 -0.7050
 5354SOL    HW116896   7.166   5.585   1.617  0.8066  0.3375 -0.5571
 5354SOL    HW216897   7.226   5.642   1.490  0.3507  0.8374 -0.5505
 5355SOL     OW16898   7.030   3.553   0.086 -0.2539  0.0929  0.3627
 5355SOL    HW116899   7.048   3.643   0.113  0.8878 -0.5074  1.7622
 5355SOL    HW216900   6.937   3.553   0.062  0.0091  1.8776 -0.7875
 5356SOL     OW16901   7.667   2.713   0.829 -0.0580  0.0000 -0.0090
 5356SOL    HW116902   7.571   2.708   0.836  0.0223  0.7543  3.2914
 5356SOL    HW216903   7.698   2.704   0.919  3.1407 -1.9928 -1.1592
 5357SOL     OW16904   7.731   3.589   6.373  0.5377 -0.3918  0.0019
 5357SOL    HW116905   7.731   3.499   6.341  2.1038 -0.0626 -1.0638
 5357SOL    HW216906   7.644   3.602   6.410  0.1540 -2.2116 -0.1692
 5358SOL     OW16907   4.790   4.318   7.351  0.1087 -0.0299 -0.2043
 5358SOL    HW116908   4.733   4.290   7.280 -0.1434  0.5461 -0.2318
 5358SOL    HW216909   4.820   4.236   7.392  0.9596 -0.3956 -1.5031
 5359SOL     OW16910   4.130   0.706   5.074  0.6431  0.2397  0.0407
 5359SOL    HW116911   4.130   0.677   5.165 -0.6687 -0.5213 -0.1720
 5359SOL    HW216912   4.220   0.731   5.056  1.0972 -0.4555  1.2811
 5360SOL     OW16913   5.729   0.410   2.411  0.4950 -0.7864 -0.1420
 5360SOL    HW116914   5.815   0.420   2.453  0.6322 -0.6418 -0.4505
 5360SOL    HW216915   5.720   0.316   2.396 -0.8567 -1.2279  2.8947
 5361SOL     OW16916   7.056   5.005   5.546 -0.5721 -0.2919 -0.2407
 5361SOL    HW116917   7.063   4.921   5.501 -0.5267  0.4850 -1.7841
 5361SOL    HW216918   6.964   5.029   5.539 -0.8046 -0.7108  1.1845
 5362SOL     OW16919   0.456   7.185   5.613 -0.4646  0.1542  0.0672
 5362SOL    HW116920   0.504   7.202   5.694 -0.4144 -0.7015  0.2240
 5362SOL    HW216921   0.395   7.115   5.636 -0.8258  0.2787 -0.4952
 5363SOL     OW16922   3.642   1.580   7.610 -0.4173  0.2078 -0.4806
 5363SOL    HW116923   3.586   1.510   7.578 -1.3454  1.1636 -0.9998
 5363SOL    HW216924   3.583   1.654   7.624  0.6165  1.0633 -0.4968
 5364SOL     OW16925   5.072   7.317   2.494 -0.4015  0.2148  0.2171
 5364SOL    HW116926   5.162   7.285   2.501 -1.1783 -1.9540  1.5066
 5364SOL    HW216927   5.056   7.360   2.578 -0.3542  1.2691 -0.3049
 5365SOL     OW16928   2.821   3.619   3.004  0.5080 -0.6813 -0.1510
 5365SOL    HW116929   2.899   3.566   2.990  0.3086 -0.5030 -2.2649
 5365SOL    HW216930   2.855   3.706   3.025  0.9069 -0.6975 -0.6870
 5366SOL     OW16931   7.617   1.812   5.144 -0.1219  0.1318  0.0558
 5366SOL    HW116932   7.651   1.748   5.207  2.7212 -0.0585 -1.5121
 5366SOL    HW216933   7.692   1.868   5.124 -0.9143  0.2658 -3.0183
 5367SOL     OW16934   4.807   5.116   1.553  0.0560  0.2466  0.1322
 5367SOL    HW116935   4.765   5.199   1.530 -0.8374 -0.1606  0.2361
 5367SOL    HW216936   4.749   5.049   1.516  0.7236 -0.3317  0.1202
 5368SOL     OW16937   2.651   5.360   3.597  0.2204  0.0415 -0.2966
 5368SOL    HW116938   2.709   5.355   3.674  0.2209 -0.6026 -0.3371
 5368SOL    HW216939   2.688   5.430   3.544  1.2062 -0.6294 -0.5153
 5369SOL     OW16940   6.661   0.508   2.435  0.1879 -0.2463 -0.3927
 5369SOL    HW116941   6.684   0.415   2.430  0.4817 -0.1842 -0.2294
 5369SOL    HW216942   6.703   0.538   2.516  1.4987  0.4241 -1.2909
 5370SOL     OW16943   7.159   2.919   7.124 -0.1322 -0.7305  0.4266
 5370SOL    HW116944   7.204   2.983   7.180 -1.3842  0.3104  0.2936
 5370SOL    HW216945   7.070   2.915   7.160 -0.3471 -1.6575 -0.1904
 5371SOL     OW16946   6.717   1.298   3.994 -0.6600 -0.6026  0.6220
 5371SOL    HW116947   6.698   1.326   3.904 -1.7658 -0.9894  0.7213
 5371SOL    HW216948   6.725   1.380   4.043 -0.9491 -0.4030  0.3408
 5372SOL     OW16949   7.171   0.216   0.075  0.4646 -0.1878  0.1329
 5372SOL    HW116950   7.231   0.163   0.023  0.9294  0.8586 -0.4202
 5372SOL    HW216951   7.220   0.234   0.156  0.0746 -1.0820  0.5851
 5373SOL     OW16952   2.137   5.416   1.577  0.2128 -0.1991  0.4846
 5373SOL    HW116953   2.162   5.484   1.638 -2.0969  0.6817  0.5437
 5373SOL    HW216954   2.168   5.447   1.492 -1.0466  1.0891  0.4716
 5374SOL     OW16955   3.677   3.930   4.581  0.8717 -0.3019 -0.4133
 5374SOL    HW116956   3.624   3.938   4.502  0.9132  1.0452 -0.3288
 5374SOL    HW216957   3.626   3.974   4.649  2.2496  1.4330 -0.4337
 5375SOL     OW16958   1.514   6.403   3.351 -0.1527 -0.1009 -0.0056
 5375SOL    HW116959   1.475   6.347   3.418 -1.4968  0.7914  0.0138
 5375SOL    HW216960   1.592   6.441   3.393 -0.7709  0.1630  0.9455
 5376SOL     OW16961   6.998   7.054   1.309 -0.3343 -0.0098 -0.0829
 5376SOL    HW116962   6.943   6.977   1.320  0.9698 -1.0149 -0.3512
 5376SOL    HW216963   7.064   7.028   1.245  1.3387  0.6157  1.2905
 5377SOL     OW16964   2.831   4.245   4.463 -0.3982  0.5113  0.2143
 5377SOL    HW116965   2.755   4.221   4.517 -1.6771 -0.3382 -1.8333
 5377SOL    HW216966   2.871   4.162   4.439 -0.3606  0.8007 -0.7861
 5378SOL     OW16967   3.146   6.719   1.720  0.0624  0.1873  0.3621
 5378SOL    HW116968   3.212   6.726   1.651 -0.8690 -0.1940 -0.5980
 5378SOL    HW216969   3.175   6.645   1.774  0.1147 -0.3579 -0.4011
 5379SOL     OW16970   5.186   3.317   3.160  0.1712 -0.2608  0.5629
 5379SOL    HW116971   5.216   3.234   3.196  2.2791 -0.0834 -0.6236
 5379SOL    HW216972   5.257   3.345   3.103 -0.5172  2.3472  0.8833
 5380SOL     OW16973   2.269   1.580   2.194  0.1999 -0.3276 -0.3278
 5380SOL    HW116974   2.354   1.554   2.158 -0.8016 -1.6786 -1.8562
 5380SOL    HW216975   2.216   1.500   2.189 -1.8829  1.0562 -1.5996
 5381SOL     OW16976   2.519   4.175   3.236 -0.2826 -0.1805  0.5509
 5381SOL    HW116977   2.488   4.138   3.319  0.7282  0.5995  1.3031
 5381SOL    HW216978   2.589   4.234   3.261 -1.3534  1.7122 -0.6719
 5382SOL     OW16979   3.200   0.090   6.894  0.0257  0.5724 -0.0177
 5382SOL    HW116980   3.202   0.031   6.969 -0.9022  1.0703  0.4277
 5382SOL    HW216981   3.222   0.176   6.931 -1.3312  0.9920 -0.1095
 5383SOL     OW16982   4.002   6.770   5.603 -0.7831 -0.5213 -0.4157
 5383SOL    HW116983   4.043   6.728   5.527  1.4205 -1.2526  1.0746
 5383SOL    HW216984   4.049   6.852   5.615 -0.2401 -0.9851  0.8549
 5384SOL     OW16985   1.083   2.488   1.654 -0.1772 -0.1055  0.1537
 5384SOL    HW116986   1.173   2.522   1.650 -0.8083  1.7952  0.8303
 5384SOL    HW216987   1.058   2.477   1.562  0.5625 -0.0957 -0.0529
 5385SOL     OW16988   6.565   2.906   5.224 -0.6774 -0.2711  0.5604
 5385SOL    HW116989   6.566   2.884   5.317  0.6842 -2.5895  0.0668
 5385SOL    HW216990   6.477   2.885   5.195 -1.3973  1.3208  1.4523
 5386SOL     OW16991   2.263   5.381   5.529 -0.6069  0.4841 -0.6452
 5386SOL    HW116992   2.265   5.433   5.609 -1.4499  2.7622 -2.0277
 5386SOL    HW216993   2.313   5.302   5.551 -0.5200  1.1845  1.9906
 5387SOL     OW16994   7.524   1.783   5.572 -0.8758  0.1819 -0.3426
 5387SOL    HW116995   7.493   1.850   5.511 -0.9987 -1.6590 -2.4173
 5387SOL    HW216996   7.494   1.700   5.534  1.1358 -1.2267  0.9521
 5388SOL     OW16997   2.325   6.421   4.959  0.2977 -0.5387  0.2780
 5388SOL    HW116998   2.364   6.408   5.045  1.2786  1.2363  0.1625
 5388SOL    HW216999   2.394   6.464   4.908 -0.5341 -0.8130 -1.1578
 5389SOL     OW17000   1.341   1.876   3.229 -0.0792 -0.2659 -0.2127
 5389SOL    HW117001   1.281   1.801   3.230 -1.2144  0.5966  1.8521
 5389SOL    HW217002   1.428   1.837   3.225 -0.6725 -1.6509 -0.2309
 5390SOL     OW17003   3.497   0.843   5.250  0.4735  0.3116 -0.1816
 5390SOL    HW117004   3.510   0.775   5.317 -0.3721 -0.2580 -0.5752
 5390SOL    HW217005   3.481   0.923   5.299  0.5426  0.0391  0.2919
 5391SOL     OW17006   4.672   3.682   4.751 -0.1685 -0.3598  0.2578
 5391SOL    HW117007   4.623   3.671   4.670  0.9949 -0.1845 -0.4927
 5391SOL    HW217008   4.627   3.626   4.814 -0.7979 -0.8874 -0.6317
 5392SOL     OW17009   7.652   0.861   2.926  0.4912 -0.7788  0.1141
 5392SOL    HW117010   7.741   0.837   2.949  1.1885  1.6944  0.2527
 5392SOL    HW217011   7.647   0.956   2.942 -1.3457 -0.3438 -2.3826
 5393SOL     OW17012   7.276   6.790   6.933  0.1922  0.4027 -0.5367
 5393SOL    HW117013   7.349   6.773   6.993  0.4487 -0.5252 -1.1024
 5393SOL    HW217014   7.217   6.846   6.983  0.1669 -0.7395  0.7649
 5394SOL     OW17015   0.172   6.455   5.804 -0.6315  0.2281  0.0163
 5394SOL    HW117016   0.229   6.416   5.870 -2.2518 -1.8298  0.3050
 5394SOL    HW217017   0.084   6.444   5.839 -1.3778  1.1810 -1.4681
 5395SOL     OW17018   0.938   3.264   5.282  0.9088  0.2045  0.6191
 5395SOL    HW117019   1.021   3.299   5.250  1.4046 -1.3764  0.0876
 5395SOL    HW217020   0.938   3.173   5.254 -1.4255  0.3823 -0.1869
 5396SOL     OW17021   6.539   1.788   4.824 -0.1462  0.4518  0.1237
 5396SOL    HW117022   6.622   1.820   4.789 -0.1284  0.1594 -0.1045
 5396SOL    HW217023   6.510   1.722   4.761 -0.6580  0.7043  0.0860
 5397SOL     OW17024   5.678   4.169   6.126 -0.0664  0.3034  0.1774
 5397SOL    HW117025   5.717   4.084   6.108 -2.1545 -0.4917 -0.9224
 5397SOL    HW217026   5.591   4.149   6.161 -0.4790  1.9907  0.2230
 5398SOL     OW17027   2.008   5.611   5.612 -0.1776 -0.3298 -0.2216
 5398SOL    HW117028   2.008   5.633   5.519  1.9414 -1.0145 -0.4410
 5398SOL    HW217029   2.003   5.516   5.615  3.0554 -0.6031  0.1354
 5399SOL     OW17030   2.203   4.072   2.226 -0.2794  0.1118  0.3810
 5399SOL    HW117031   2.188   4.030   2.142  0.1769 -1.0501  0.8584
 5399SOL    HW217032   2.253   4.009   2.276 -0.7344  0.6830  1.6136
 5400SOL     OW17033   1.598   2.432   6.172  0.0315  0.1903 -0.1128
 5400SOL    HW117034   1.624   2.431   6.264 -1.2743  0.5518  0.2927
 5400SOL    HW217035   1.503   2.447   6.175 -0.2538 -1.1010 -1.4687
 5401SOL     OW17036   1.424   2.933   7.181 -0.1153 -0.2107  0.2254
 5401SOL    HW117037   1.500   2.921   7.237  0.7367 -3.1430 -1.3290
 5401SOL    HW217038   1.366   2.860   7.202 -1.4005  0.6173 -0.3001
 5402SOL     OW17039   7.508   7.667   6.017  0.5765  0.2486  0.2999
 5402SOL    HW117040   7.418   7.675   6.050  0.7119 -2.1612  1.4864
 5402SOL    HW217041   7.556   7.627   6.089  2.2469  0.0581 -0.8730
 5403SOL     OW17042   0.657   5.971   3.656 -0.0953 -0.5098  0.1430
 5403SOL    HW117043   0.593   6.038   3.683  1.5043  0.4531  1.7310
 5403SOL    HW217044   0.646   5.901   3.720  0.2518 -0.4648  0.2505
 5404SOL     OW17045   2.389   5.811   6.862  0.2774 -0.1339 -0.2262
 5404SOL    HW117046   2.474   5.852   6.879  0.3861 -0.4111 -0.0856
 5404SOL    HW217047   2.389   5.794   6.768  0.3381 -0.0496 -0.2423
 5405SOL     OW17048   3.131   7.858   2.009 -0.4925  0.4394 -0.3011
 5405SOL    HW117049   3.140   7.951   1.991 -0.8114  0.4378 -0.4713
 5405SOL    HW217050   3.106   7.854   2.101 -1.5038  0.5760 -0.5567
 5406SOL     OW17051   4.790   4.109   6.588  0.5402  0.2628  0.0820
 5406SOL    HW117052   4.751   4.131   6.504 -0.1470  0.8274  0.5379
 5406SOL    HW217053   4.791   4.014   6.590 -1.8565  0.1953  0.5021
 5407SOL     OW17054   2.478   1.567   1.722 -0.0020 -0.5293  0.3585
 5407SOL    HW117055   2.399   1.615   1.745  0.3896  0.8183 -0.9681
 5407SOL    HW217056   2.542   1.593   1.788 -0.5475 -1.3993  1.2639
 5408SOL     OW17057   5.093   2.435   5.538 -0.3616 -0.0231 -0.0862
 5408SOL    HW117058   5.129   2.504   5.594  0.5245 -0.5799  0.0561
 5408SOL    HW217059   5.142   2.356   5.563 -0.1837 -0.3577 -1.4162
 5409SOL     OW17060   7.359   0.484   0.954  0.2050 -0.0204  0.2054
 5409SOL    HW117061   7.357   0.569   0.999  1.2005 -0.5732  1.3432
 5409SOL    HW217062   7.321   0.423   1.017  1.3828 -0.7682  0.2123
 5410SOL     OW17063   1.588   7.740   3.989  0.3170 -0.1739 -0.2283
 5410SOL    HW117064   1.627   7.697   3.913  1.0091 -1.0242  0.5868
 5410SOL    HW217065   1.582   7.672   4.055  1.7643  1.0287  1.2352
 5411SOL     OW17066   1.867   5.650   3.138  0.1128  0.1028 -0.0543
 5411SOL    HW117067   1.778   5.641   3.104 -0.8206  1.5264  1.8028
 5411SOL    HW217068   1.870   5.592   3.214  0.0300  1.6253  1.1517
 5412SOL     OW17069   0.781   2.886   5.817  0.5647 -0.1868 -0.0616
 5412SOL    HW117070   0.736   2.808   5.787  0.3288 -0.0093 -0.1699
 5412SOL    HW217071   0.715   2.956   5.811  0.9304  0.1260 -0.4745
 5413SOL     OW17072   5.977   2.269   0.819  0.3069  0.0656  0.3270
 5413SOL    HW117073   5.962   2.214   0.742  0.9885  0.3150  0.0061
 5413SOL    HW217074   5.931   2.351   0.798  1.5589  0.6066 -0.3894
 5414SOL     OW17075   3.151   3.144   7.528  0.3293 -0.0206  0.1042
 5414SOL    HW117076   3.200   3.169   7.606  0.7385 -3.4353  1.1082
 5414SOL    HW217077   3.060   3.140   7.558  0.4467 -1.0140  0.3699
 5415SOL     OW17078   6.772   7.597   0.844  0.1998 -0.2805 -0.7560
 5415SOL    HW117079   6.771   7.693   0.847 -0.3476 -0.2747 -0.9085
 5415SOL    HW217080   6.719   7.575   0.767  0.7143 -0.6996 -1.0013
 5416SOL     OW17081   7.534   6.266   3.723  0.0230 -0.3308 -0.4449
 5416SOL    HW117082   7.571   6.324   3.657 -0.1510 -0.2726 -0.4944
 5416SOL    HW217083   7.561   6.304   3.807 -0.9006  0.3941 -0.4493
 5417SOL     OW17084   5.590   1.662   7.690  0.2283 -0.1988 -0.1182
 5417SOL    HW117085   5.553   1.605   7.757  2.5574 -1.2259  0.3756
 5417SOL    HW217086   5.652   1.718   7.737  2.2885 -1.2798 -1.4083
 5418SOL     OW17087   3.822   4.237   4.695 -0.2202 -0.2034 -0.0515
 5418SOL    HW117088   3.778   4.164   4.738 -2.4963  0.4672 -1.0940
 5418SOL    HW217089   3.832   4.303   4.764 -1.4122 -0.1514  0.0855
 5419SOL     OW17090   3.430   1.769   7.572 -0.4878  0.5800  0.7184
 5419SOL    HW117091   3.475   1.851   7.550 -0.2698  0.3742  0.3926
 5419SOL    HW217092   3.338   1.795   7.582 -0.6318  0.6602 -0.6209
 5420SOL     OW17093   4.396   1.979   7.129  0.8409 -0.3114 -0.3156
 5420SOL    HW117094   4.312   1.944   7.157  0.0291  0.8714 -1.2020
 5420SOL    HW217095   4.454   1.903   7.128 -0.5626 -1.4256 -1.0543
 5421SOL     OW17096   4.967   7.252   6.422 -0.0589  0.2854 -1.0323
 5421SOL    HW117097   4.972   7.301   6.504  0.3640  1.5440 -1.7824
 5421SOL    HW217098   5.027   7.298   6.363 -1.2336  0.1200 -2.4025
 5422SOL     OW17099   4.069   1.869   3.387 -0.0405  0.3062 -0.1014
 5422SOL    HW117100   4.021   1.939   3.433 -3.3667 -1.4205 -0.6473
 5422SOL    HW217101   4.047   1.881   3.295  0.8910 -0.3983 -0.4350
 5423SOL     OW17102   3.665   5.092   3.564 -0.4237  0.5476  0.7617
 5423SOL    HW117103   3.730   5.132   3.507  0.1192 -1.2574  0.0495
 5423SOL    HW217104   3.581   5.109   3.521 -0.0376 -0.6037 -0.5100
 5424SOL     OW17105   2.152   3.118   3.847 -0.1252  0.2884  0.5756
 5424SOL    HW117106   2.062   3.105   3.876  0.2266  3.6349  3.9134
 5424SOL    HW217107   2.144   3.170   3.767 -1.0598 -1.6906 -0.6954
 5425SOL     OW17108   1.938   5.334   1.249 -0.0818 -0.3211  0.4859
 5425SOL    HW117109   1.952   5.284   1.168 -0.0033 -2.2478  1.6132
 5425SOL    HW217110   2.021   5.325   1.296  0.2042  1.5825  0.4019
 5426SOL     OW17111   2.503   0.061   7.100  0.0248  0.1019  0.5411
 5426SOL    HW117112   2.498   0.140   7.047 -1.6653  1.1990  2.2318
 5426SOL    HW217113   2.572   0.009   7.059  0.4001  1.9283 -1.2842
 5427SOL     OW17114   6.163   5.611   1.382 -0.5084  0.4246 -0.0371
 5427SOL    HW117115   6.245   5.616   1.334  0.6741  1.6524  1.9697
 5427SOL    HW217116   6.159   5.520   1.412 -1.3034 -0.3825 -2.3689
 5428SOL     OW17117   1.939   5.862   2.228 -0.6085  0.2552 -0.6847
 5428SOL    HW117118   1.926   5.774   2.192  0.2513  0.6665 -2.1048
 5428SOL    HW217119   1.863   5.877   2.284 -0.9390 -1.2541 -0.6901
 5429SOL     OW17120   4.089   5.506   1.450 -0.1732  0.0884  0.8853
 5429SOL    HW117121   4.080   5.457   1.368 -0.0485 -1.0658  1.5359
 5429SOL    HW217122   4.171   5.554   1.439 -0.6165  0.6687 -0.0193
 5430SOL     OW17123   4.438   6.615   0.628  0.0163 -0.4802 -0.4700
 5430SOL    HW117124   4.372   6.547   0.643  0.1463 -0.5173 -0.0393
 5430SOL    HW217125   4.486   6.619   0.710 -0.7429  0.9561 -0.0646
 5431SOL     OW17126   1.927   2.334   2.423  1.1847 -0.1168 -0.9844
 5431SOL    HW117127   1.941   2.259   2.481 -0.8120 -0.3760 -0.7849
 5431SOL    HW217128   1.872   2.300   2.353 -0.0171  1.2073 -0.7283
 5432SOL     OW17129   0.391   4.011   2.938 -0.2282  0.6941  0.0912
 5432SOL    HW117130   0.419   3.924   2.910 -0.0214  0.8529 -0.1928
 5432SOL    HW217131   0.422   4.070   2.870  0.6302  1.1321  0.8377
 5433SOL     OW17132   5.976   5.122   5.816  0.2570  0.2984  0.5672
 5433SOL    HW117133   6.063   5.084   5.804  0.6979  1.3570  0.3606
 5433SOL    HW217134   5.977   5.158   5.905 -0.1439 -0.1098  0.7434
 5434SOL     OW17135   7.223   4.986   2.527 -0.3826  0.7509 -0.8355
 5434SOL    HW117136   7.142   5.032   2.547 -0.5041 -0.2702  1.2598
 5434SOL    HW217137   7.292   5.039   2.568 -0.1351  0.8475 -1.3614
 5435SOL     OW17138   1.846   7.717   3.487 -0.0024 -0.4834  0.1745
 5435SOL    HW117139   1.781   7.784   3.507  0.3640 -0.1617  0.2968
 5435SOL    HW217140   1.930   7.759   3.505  0.3819 -0.0640 -2.2038
 5436SOL     OW17141   4.750   6.855   1.410 -0.7028 -0.2253  0.2609
 5436SOL    HW117142   4.728   6.769   1.447  1.6737 -0.3261  1.6496
 5436SOL    HW217143   4.752   6.840   1.316 -3.0417 -0.9580  0.2506
 5437SOL     OW17144   1.258   0.088   2.081  0.1474 -0.1788  0.2518
 5437SOL    HW117145   1.297   0.158   2.133  0.9132 -1.1890  1.0575
 5437SOL    HW217146   1.276   0.113   1.990  2.5630 -0.5267  0.5758
 5438SOL     OW17147   7.401   6.865   0.459 -0.4621 -0.1676  0.1767
 5438SOL    HW117148   7.411   6.771   0.473  1.0444  0.0715  1.0249
 5438SOL    HW217149   7.434   6.904   0.540  1.9726  1.1566 -1.3119
 5439SOL     OW17150   3.362   6.233   6.941  0.4263  0.4514  0.0162
 5439SOL    HW117151   3.368   6.327   6.955  3.0861  0.1325  1.8087
 5439SOL    HW217152   3.423   6.215   6.870  0.3440  0.0194  0.0510
 5440SOL     OW17153   3.228   4.793   7.334  0.3433  0.1880  0.0947
 5440SOL    HW117154   3.154   4.854   7.331  1.3289  1.4848 -2.8182
 5440SOL    HW217155   3.305   4.850   7.331  1.3257 -0.9446 -4.4486
 5441SOL     OW17156   0.105   2.423   3.902  0.3802  0.3051 -0.0698
 5441SOL    HW117157   0.065   2.367   3.835  1.7560 -0.6698 -0.1122
 5441SOL    HW217158   0.060   2.507   3.892 -2.1145 -0.8774  0.3495
 5442SOL     OW17159   3.541   2.422   6.687 -0.1115 -0.1470 -0.0761
 5442SOL    HW117160   3.602   2.382   6.750 -0.3763  2.0029  1.6929
 5442SOL    HW217161   3.573   2.511   6.676 -0.7100 -0.1545 -2.2241
 5443SOL     OW17162   1.034   1.920   5.753 -0.1132 -0.1866  0.1520
 5443SOL    HW117163   0.974   1.908   5.827  3.7040 -1.0623  3.4351
 5443SOL    HW217164   1.058   1.832   5.726  1.4356  0.0839  0.5467
 5444SOL     OW17165   5.178   2.897   4.281  0.2368 -0.2250 -0.1523
 5444SOL    HW117166   5.111   2.837   4.313  0.1279  0.0521  0.1400
 5444SOL    HW217167   5.206   2.859   4.198  0.0284 -0.5753 -0.0642
 5445SOL     OW17168   3.767   0.080   5.097  0.5733 -0.5566 -0.0558
 5445SOL    HW117169   3.695   0.131   5.136  1.0346 -0.8470  1.2278
 5445SOL    HW217170   3.737  -0.011   5.101  0.5641 -0.5752 -0.5229
 5446SOL     OW17171   4.842   1.724   1.851 -0.9873  0.4711  0.2092
 5446SOL    HW117172   4.921   1.777   1.845 -1.3654  1.0415  0.1191
 5446SOL    HW217173   4.836   1.699   1.943 -0.3919 -0.0729  0.1061
 5447SOL     OW17174   7.547   6.460   0.995  0.7249 -0.5050 -0.1990
 5447SOL    HW117175   7.531   6.451   0.901 -0.1164 -1.0714 -0.0089
 5447SOL    HW217176   7.490   6.396   1.036 -0.3395  1.0279  0.8278
 5448SOL     OW17177   0.429   3.016   3.520  0.0999 -0.3837 -0.5803
 5448SOL    HW117178   0.372   3.008   3.443  1.4270 -0.4597 -1.5974
 5448SOL    HW217179   0.369   3.017   3.594 -1.1404 -2.2070 -1.4757
 5449SOL     OW17180   3.606   4.284   5.338 -0.2091  0.2629  0.3115
 5449SOL    HW117181   3.675   4.323   5.285  0.1649 -0.7636  0.0245
 5449SOL    HW217182   3.537   4.262   5.276 -0.2754  0.1564  0.4232
 5450SOL     OW17183   0.636   0.442   5.091  0.5774 -0.3871 -0.9222
 5450SOL    HW117184   0.667   0.503   5.158  2.3266 -0.9813 -1.1347
 5450SOL    HW217185   0.708   0.436   5.029  0.9323 -3.4446 -0.3747
 5451SOL     OW17186   6.944   4.686   2.894 -0.1551 -0.6800  0.5047
 5451SOL    HW117187   6.866   4.678   2.840 -0.7501  0.5816  1.1223
 5451SOL    HW217188   7.016   4.697   2.831 -0.4341 -2.0121 -0.0675
 5452SOL     OW17189   0.455   3.303   6.318  0.3395 -0.4482  0.2272
 5452SOL    HW117190   0.408   3.279   6.397 -1.5357  0.6515 -0.5007
 5452SOL    HW217191   0.542   3.328   6.348  0.0051 -1.0862  1.7949
 5453SOL     OW17192   3.638   4.846   2.746 -0.2633  0.3563  0.7343
 5453SOL    HW117193   3.543   4.847   2.744 -0.2850  2.1755  0.6511
 5453SOL    HW217194   3.664   4.867   2.656  0.2679 -1.4651  0.4269
 5454SOL     OW17195   7.656   0.607   2.092 -0.1990 -0.2384  0.1998
 5454SOL    HW117196   7.641   0.694   2.053 -0.1823  0.8105  2.3971
 5454SOL    HW217197   7.736   0.618   2.143 -0.3943 -1.4514  0.7910
 5455SOL     OW17198   6.444   7.901   4.218  0.1787  0.0891 -0.5031
 5455SOL    HW117199   6.536   7.925   4.224 -0.2992  1.8194  0.4514
 5455SOL    HW217200   6.431   7.838   4.289  1.1075 -2.0222 -2.1054
 5456SOL     OW17201   3.006   4.462   1.205  1.0308  0.0780  0.1534
 5456SOL    HW117202   2.921   4.437   1.240  1.4365  1.0948  1.9897
 5456SOL    HW217203   3.069   4.423   1.266  1.9531 -1.2688 -1.5754
 5457SOL     OW17204   7.003   5.745   0.544 -0.5564  0.1657  0.0076
 5457SOL    HW117205   7.076   5.787   0.499 -0.8236  0.8208  0.1728
 5457SOL    HW217206   6.965   5.686   0.479 -0.5133  0.5925 -0.4063
 5458SOL     OW17207   7.243   3.884   7.921 -0.0734  0.2481 -1.0352
 5458SOL    HW117208   7.172   3.851   7.976  1.6349  1.1824  1.9505
 5458SOL    HW217209   7.303   3.809   7.913  0.3925  0.5356 -0.3142
 5459SOL     OW17210   2.670   1.973   7.096  0.5379 -0.0618 -0.1201
 5459SOL    HW117211   2.659   2.057   7.142  0.7003 -0.5388  0.8170
 5459SOL    HW217212   2.635   1.908   7.157  0.8050 -0.7205 -0.6608
 5460SOL     OW17213   1.861   5.988   5.942 -0.2046 -0.1531  0.0709
 5460SOL    HW117214   1.844   6.043   5.866 -0.2769 -1.8433 -1.2125
 5460SOL    HW217215   1.941   6.024   5.980 -1.1213  1.7789  0.2491
 5461SOL     OW17216   5.818   1.560   0.549 -0.2641 -0.5925 -0.0553
 5461SOL    HW117217   5.888   1.612   0.588  0.5730 -0.9745 -0.9849
 5461SOL    HW217218   5.806   1.486   0.609  1.5048 -1.5622 -0.8130
 5462SOL     OW17219   3.684   7.177   7.069  0.0014 -0.6758 -0.2403
 5462SOL    HW117220   3.712   7.198   6.979 -0.1559  0.7017  0.0037
 5462SOL    HW217221   3.761   7.195   7.122 -0.9662  2.4281  0.3468
 5463SOL     OW17222   2.524   7.145   0.793 -0.1627 -0.0995  0.0729
 5463SOL    HW117223   2.514   7.232   0.831  0.5399  0.6633 -1.4099
 5463SOL    HW217224   2.512   7.158   0.699  1.0227 -1.4030 -0.2909
 5464SOL     OW17225   5.204   3.802   6.821 -0.2265 -0.0073  0.1877
 5464SOL    HW117226   5.214   3.771   6.731  2.4659 -1.4163  0.8499
 5464SOL    HW217227   5.180   3.724   6.871  1.6272 -0.0435  1.1257
 5465SOL     OW17228   7.258   7.920   3.860 -0.5887 -0.5866  0.2023
 5465SOL    HW117229   7.259   7.869   3.779  0.3042  0.6011 -0.5638
 5465SOL    HW217230   7.216   8.003   3.837 -0.9345 -0.4875  1.1244
 5466SOL     OW17231   4.722   1.997   5.739 -0.2959  0.2435  0.4762
 5466SOL    HW117232   4.793   2.058   5.720 -0.5232  0.8914  1.6306
 5466SOL    HW217233   4.751   1.950   5.817 -0.7323 -0.1446  0.4051
 5467SOL     OW17234   7.273   5.363   3.997 -0.2618 -0.0728 -0.2932
 5467SOL    HW117235   7.265   5.342   4.090  3.1460  0.3067  0.2086
 5467SOL    HW217236   7.186   5.395   3.972 -2.1644 -2.9228  1.9447
 5468SOL     OW17237   5.800   3.514   7.439 -0.8845  0.1171  0.9261
 5468SOL    HW117238   5.884   3.542   7.404 -0.3528  0.1231  2.1552
 5468SOL    HW217239   5.740   3.515   7.364 -0.2022  1.7589  0.3795
 5469SOL     OW17240   5.274   7.872   1.560  0.1208  0.0560  0.5360
 5469SOL    HW117241   5.347   7.876   1.499 -1.0437  0.3029 -0.8750
 5469SOL    HW217242   5.302   7.926   1.634  0.7008  1.5372 -0.7057
 5470SOL     OW17243   6.863   7.469   3.783 -0.2436  0.7499 -0.0709
 5470SOL    HW117244   6.873   7.499   3.874 -0.7670  0.4679  0.0850
 5470SOL    HW217245   6.861   7.550   3.732 -0.2648  0.9261  0.2056
 5471SOL     OW17246   0.852   2.709   5.081  0.1897  0.6859  0.0908
 5471SOL    HW117247   0.942   2.722   5.053  1.0973 -1.1307  1.9327
 5471SOL    HW217248   0.812   2.655   5.013  0.8141  0.5913 -0.1995
 5472SOL     OW17249   5.406   0.574   2.356 -0.7476  0.5706 -0.9632
 5472SOL    HW117250   5.491   0.563   2.399 -0.0018 -1.8453 -2.8530
 5472SOL    HW217251   5.365   0.646   2.404  1.5548  0.5714  1.2487
 5473SOL     OW17252   4.433   4.237   6.080  0.2608  0.0250 -0.2019
 5473SOL    HW117253   4.381   4.317   6.092 -1.7683 -0.1412 -5.2213
 5473SOL    HW217254   4.523   4.269   6.070 -0.3006  1.5748 -0.6739
 5474SOL     OW17255   3.523   2.258   2.448  0.2007 -0.5117 -0.3299
 5474SOL    HW117256   3.437   2.220   2.466  0.6894 -2.1069 -1.2199
 5474SOL    HW217257   3.577   2.184   2.420  2.4082  0.1187  1.9094
 5475SOL     OW17258   0.863   7.587   4.109 -0.6743 -0.0228  0.7860
 5475SOL    HW117259   0.886   7.494   4.107 -1.2290 -0.1527  0.1727
 5475SOL    HW217260   0.858   7.612   4.017  2.1573  1.3187  0.9083
 5476SOL     OW17261   6.514   2.628   0.046  0.3522  0.1191  0.2739
 5476SOL    HW117262   6.604   2.661   0.053  0.1114  0.6872  0.7988
 5476SOL    HW217263   6.508   2.560   0.113  0.5065 -0.1911 -0.0263
 5477SOL     OW17264   2.312   1.435   1.448  0.1904 -0.0847  0.3367
 5477SOL    HW117265   2.395   1.480   1.433  0.1323  0.1589  0.7460
 5477SOL    HW217266   2.261   1.494   1.503  0.3690 -0.9154  1.4402
 5478SOL     OW17267   7.922   0.157   0.114  0.8856  0.2168  0.5438
 5478SOL    HW117268   7.957   0.148   0.025 -0.3329 -0.0144  0.0687
 5478SOL    HW217269   7.998   0.145   0.171  1.4417 -1.0352 -0.4217
 5479SOL     OW17270   0.686   2.191   0.772 -0.2982  0.4458  0.2500
 5479SOL    HW117271   0.776   2.211   0.744 -0.5242  0.5158 -0.4495
 5479SOL    HW217272   0.644   2.277   0.777  0.1073  0.5678  2.1627
 5480SOL     OW17273   7.396   5.588   4.724 -0.1781 -0.0443  0.1980
 5480SOL    HW117274   7.468   5.530   4.750 -0.5013 -0.4556  0.1945
 5480SOL    HW217275   7.376   5.638   4.803 -0.4171 -0.4947  0.4253
 5481SOL     OW17276   5.060   1.274   3.220 -0.3388 -0.3320 -0.3109
 5481SOL    HW117277   5.086   1.277   3.128 -0.8048  0.7526 -0.4297
 5481SOL    HW217278   5.091   1.190   3.252  2.3713  0.4344 -0.7105
 5482SOL     OW17279   3.074   1.802   6.080  0.1160 -0.2582  0.1256
 5482SOL    HW117280   3.078   1.752   6.161  0.8220  0.0402  0.2829
 5482SOL    HW217281   2.990   1.848   6.084  0.4323  0.2700  1.0014
 5483SOL     OW17282   3.981   3.418   1.317 -0.5205 -0.4967  0.3432
 5483SOL    HW117283   3.889   3.392   1.318 -0.1620 -1.8797  0.4951
 5483SOL    HW217284   4.025   3.350   1.368  0.3597  1.1127  1.8452
 5484SOL     OW17285   4.981   2.436   4.364 -0.3279 -0.1670 -0.0732
 5484SOL    HW117286   4.996   2.464   4.273 -1.0005  0.4571 -0.0051
 5484SOL    HW217287   4.899   2.387   4.361  0.6016 -1.7653 -0.1035
 5485SOL     OW17288   7.623   7.022   2.694  0.2300  0.6023  0.1940
 5485SOL    HW117289   7.587   7.041   2.607  1.5826 -0.1603 -0.5698
 5485SOL    HW217290   7.567   6.953   2.729 -0.4545  1.0641  0.0344
 5486SOL     OW17291   1.000   1.375   2.213  0.0963 -0.2865  0.2460
 5486SOL    HW117292   1.019   1.400   2.303 -0.4943  0.6427  0.1328
 5486SOL    HW217293   1.080   1.397   2.165  0.8728 -1.9265  0.7186
 5487SOL     OW17294   6.509   6.829   3.279  0.8898  0.4427 -0.0829
 5487SOL    HW117295   6.529   6.741   3.249 -1.3452  0.4898 -1.9840
 5487SOL    HW217296   6.414   6.837   3.269  0.8713  2.6751  1.1817
 5488SOL     OW17297   0.186   4.252   0.453  0.9665 -0.0259 -0.5954
 5488SOL    HW117298   0.185   4.171   0.504 -1.6029  1.3384  1.8410
 5488SOL    HW217299   0.263   4.300   0.484 -0.8691  1.0560  2.8117
 5489SOL     OW17300   0.159   2.797   6.933  0.4222 -0.2725 -0.2638
 5489SOL    HW117301   0.205   2.871   6.894  0.8757 -0.7838 -0.7272
 5489SOL    HW217302   0.135   2.826   7.021 -0.6533  0.9339 -0.9242
 5490SOL     OW17303   5.390   0.881   2.425  0.8879 -0.6066  0.1999
 5490SOL    HW117304   5.304   0.845   2.403  0.8951 -1.4129  1.4209
 5490SOL    HW217305   5.416   0.931   2.347 -0.7393 -0.2401 -0.1302
 5491SOL     OW17306   2.595   7.903   4.087  0.2267  0.0975  0.1642
 5491SOL    HW117307   2.646   7.830   4.051  1.0717  0.4757  0.5824
 5491SOL    HW217308   2.564   7.950   4.010 -0.2251 -0.6258 -0.1108
 5492SOL     OW17309   1.238   7.013   7.325 -0.3751 -0.0816 -0.5359
 5492SOL    HW117310   1.298   7.071   7.372  0.3329  1.2324 -2.8967
 5492SOL    HW217311   1.266   6.924   7.349 -0.4449  0.4902  1.8945
 5493SOL     OW17312   4.624   7.220   7.812  0.2245 -0.2351  0.0046
 5493SOL    HW117313   4.610   7.284   7.743  0.2550  1.3514  1.4158
 5493SOL    HW217314   4.538   7.208   7.852  0.7693  1.3916  1.7840
 5494SOL     OW17315   4.304   3.935   2.703  0.3450  0.7216  0.1938
 5494SOL    HW117316   4.293   3.929   2.609  0.3875 -0.4955  0.2563
 5494SOL    HW217317   4.230   3.886   2.739 -0.0485  1.7392  0.8151
 5495SOL     OW17318   6.597   7.651   3.403  0.3366  0.2114 -0.5181
 5495SOL    HW117319   6.617   7.615   3.316  3.1164 -0.2965  0.2279
 5495SOL    HW217320   6.578   7.574   3.457 -0.0378  0.4105 -0.3624
 5496SOL     OW17321   4.117   0.403   5.677  0.4519  0.0384  0.4361
 5496SOL    HW117322   4.103   0.488   5.635 -1.8961 -0.1200  0.7840
 5496SOL    HW217323   4.160   0.350   5.609 -0.2394  0.7884 -0.6150
 5497SOL     OW17324   7.325   7.487   0.338  0.0011  0.3186  0.0360
 5497SOL    HW117325   7.386   7.503   0.409  1.6773  1.1178 -1.4970
 5497SOL    HW217326   7.248   7.541   0.359  0.7254  1.0295  0.9211
 5498SOL     OW17327   5.190   4.746   5.747 -0.5825 -0.7153 -0.1223
 5498SOL    HW117328   5.123   4.793   5.797  0.5379  0.6870  0.1471
 5498SOL    HW217329   5.168   4.765   5.655  0.3441  1.1708 -0.0128
 5499SOL     OW17330   3.860   1.497   6.148 -0.4911 -0.4735 -0.4930
 5499SOL    HW117331   3.928   1.564   6.160  1.4321 -2.5044  0.8843
 5499SOL    HW217332   3.806   1.503   6.226  0.2409 -1.0700  0.0782
 5500SOL     OW17333   4.248   2.738   4.529 -0.2297  0.1457  0.0826
 5500SOL    HW117334   4.288   2.784   4.603  0.8427 -0.8980  0.1795
 5500SOL    HW217335   4.167   2.701   4.565 -0.1649  0.3949  0.4922
 5501SOL     OW17336   5.141   2.242   2.851  0.0977 -0.0647  0.2803
 5501SOL    HW117337   5.134   2.323   2.902 -0.2543  0.6206 -0.8182
 5501SOL    HW217338   5.051   2.218   2.831  0.1859  1.7871 -3.1589
 5502SOL     OW17339   7.052   2.967   1.001 -0.0094 -0.2165 -0.2382
 5502SOL    HW117340   7.066   3.032   0.933 -1.3068 -0.5790 -0.8834
 5502SOL    HW217341   6.957   2.959   1.008  0.0788 -0.1112  1.7020
 5503SOL     OW17342   5.642   3.298   2.385 -0.0685 -0.2155 -0.4976
 5503SOL    HW117343   5.568   3.345   2.345 -0.2261 -0.4733 -0.5089
 5503SOL    HW217344   5.698   3.275   2.310  0.5861  0.9381 -0.3899
 5504SOL     OW17345   4.573   3.613   4.243 -0.6101 -0.0021 -0.3506
 5504SOL    HW117346   4.577   3.679   4.174 -0.8651 -0.1084 -0.4679
 5504SOL    HW217347   4.505   3.552   4.214 -0.2055 -0.4567 -0.3728
 5505SOL     OW17348   1.436   1.070   6.654 -0.4992  0.1787  0.1538
 5505SOL    HW117349   1.356   1.103   6.614 -0.2893  0.6241  0.0973
 5505SOL    HW217350   1.438   1.111   6.740 -0.9978 -0.8476  0.6749
 5506SOL     OW17351   4.874   3.654   3.379  0.1039 -0.8119 -0.3362
 5506SOL    HW117352   4.950   3.695   3.421 -0.6680  0.4997 -0.1458
 5506SOL    HW217353   4.876   3.563   3.409  1.2436 -0.6494  0.1517
 5507SOL     OW17354   6.780   1.916   4.786 -0.0154 -0.2683  0.1043
 5507SOL    HW117355   6.834   1.861   4.844 -1.3569 -1.2082  0.5179
 5507SOL    HW217356   6.816   1.899   4.698 -0.9423 -2.6000  0.0868
 5508SOL     OW17357   5.718   2.830   6.774 -0.1187 -0.0685 -0.3885
 5508SOL    HW117358   5.660   2.872   6.710  0.8339 -0.1128 -1.3156
 5508SOL    HW217359   5.765   2.764   6.723  1.7088  0.8598 -0.0099
 5509SOL     OW17360   0.171   5.585   7.913 -0.0213 -0.4807  0.2347
 5509SOL    HW117361   0.096   5.535   7.946 -2.1774  1.4983 -1.3164
 5509SOL    HW217362   0.191   5.546   7.828  0.8874 -1.1383  0.7373
 5510SOL     OW17363   5.925   4.245   4.299  0.2883 -0.0200  0.0828
 5510SOL    HW117364   5.880   4.329   4.303 -1.0715 -0.7546  0.7312
 5510SOL    HW217365   5.990   4.249   4.370 -1.5241 -0.4552  1.8598
 5511SOL     OW17366   1.582   6.430   0.600 -0.0375  0.3369 -0.5045
 5511SOL    HW117367   1.529   6.361   0.559  2.1741 -0.1428 -2.7421
 5511SOL    HW217368   1.598   6.493   0.530  1.9309  0.6919  0.2022
 5512SOL     OW17369   0.456   4.471   1.683  0.0988 -0.5525 -0.1416
 5512SOL    HW117370   0.533   4.527   1.671 -0.2617  0.2960  1.2563
 5512SOL    HW217371   0.386   4.516   1.636  0.3505 -1.1741 -1.1629
 5513SOL     OW17372   7.321   2.515   0.780 -0.8423  0.3871  0.0218
 5513SOL    HW117373   7.226   2.501   0.776 -0.7444 -0.1112 -2.3910
 5513SOL    HW217374   7.356   2.460   0.709  1.0002  2.2200 -0.5920
 5514SOL     OW17375   6.622   3.462   0.964  0.2784  0.2835  0.3616
 5514SOL    HW117376   6.563   3.390   0.940  0.5639 -0.1391  0.8898
 5514SOL    HW217377   6.582   3.501   1.042 -0.2813  1.2019 -0.3736
 5515SOL     OW17378   7.851   0.945   3.848  0.4042  0.1706  0.0423
 5515SOL    HW117379   7.862   0.851   3.837  0.6443  0.2389 -0.3210
 5515SOL    HW217380   7.792   0.970   3.776 -0.4715  0.1369  0.7387
 5516SOL     OW17381   0.385   5.888   6.048  0.1675  0.1064  1.0644
 5516SOL    HW117382   0.294   5.913   6.037  0.4700  3.4734  4.4522
 5516SOL    HW217383   0.388   5.843   6.132  1.6438 -0.0019  0.9818
 5517SOL     OW17384   2.267   5.620   3.067  0.4535 -0.3055 -0.2814
 5517SOL    HW117385   2.285   5.706   3.104  3.0273 -0.9244  0.0858
 5517SOL    HW217386   2.337   5.607   3.002 -0.4418 -1.7396 -1.0122
 5518SOL     OW17387   4.335   1.121   1.068  0.6624 -0.0666  0.2481
 5518SOL    HW117388   4.419   1.154   1.101  1.0786 -0.0307 -0.7955
 5518SOL    HW217389   4.325   1.163   0.983 -0.6695  0.3133  0.5827
 5519SOL     OW17390   2.260   6.081   6.596 -0.9097  0.2641  0.3082
 5519SOL    HW117391   2.296   6.004   6.640  0.1641  0.6031  0.0427
 5519SOL    HW217392   2.238   6.141   6.667 -2.1093 -0.4274  0.5379
 5520SOL     OW17393   2.501   1.109   1.328  0.0028  0.2760  0.4279
 5520SOL    HW117394   2.407   1.129   1.323 -0.1324  0.0107  1.4537
 5520SOL    HW217395   2.540   1.186   1.368 -0.4448 -1.1029  3.8992
 5521SOL     OW17396   4.384   0.815   7.412 -0.4156 -0.2762 -0.2388
 5521SOL    HW117397   4.329   0.846   7.339 -0.2784 -0.1013 -0.2685
 5521SOL    HW217398   4.369   0.879   7.482  1.4092  1.0356 -0.9730
 5522SOL     OW17399   4.019   7.479   2.345 -0.5504  0.3926 -0.0225
 5522SOL    HW117400   4.051   7.429   2.270 -1.2212 -2.1190  1.2798
 5522SOL    HW217401   3.933   7.510   2.318 -1.5385 -1.9328  0.2082
 5523SOL     OW17402   6.768   2.235   3.339 -0.1929  0.2857 -0.3452
 5523SOL    HW117403   6.770   2.192   3.254 -1.4278 -1.0062  0.2469
 5523SOL    HW217404   6.727   2.320   3.321 -0.1590  0.1533 -1.0912
 5524SOL     OW17405   1.128   5.707   6.661  0.4954  0.0554  0.2935
 5524SOL    HW117406   1.045   5.736   6.625  0.7573  0.8063  0.2719
 5524SOL    HW217407   1.155   5.635   6.603 -1.0138 -1.4867  1.4040
 5525SOL     OW17408   1.393   4.970   2.078  0.1935 -0.0386  0.1705
 5525SOL    HW117409   1.388   5.014   2.163  1.3182 -0.0067  0.2393
 5525SOL    HW217410   1.336   5.021   2.021  1.7776  1.8014  0.1394
 5526SOL     OW17411   6.162   1.781   7.326  0.3289  0.2848 -0.0974
 5526SOL    HW117412   6.071   1.752   7.329 -0.4315  2.2982 -1.4990
 5526SOL    HW217413   6.209   1.711   7.279 -0.0338 -1.6505  2.2333
 5527SOL     OW17414   3.211   6.584   2.162  0.5514 -0.0269 -0.5809
 5527SOL    HW117415   3.142   6.578   2.227  1.2131  1.2472  0.2753
 5527SOL    HW217416   3.186   6.520   2.095  0.9354 -2.9573  1.8654
 5528SOL     OW17417   2.192   0.466   4.634 -0.1320 -0.0326 -0.8039
 5528SOL    HW117418   2.259   0.494   4.571 -0.9330  0.7153 -1.3441
 5528SOL    HW217419   2.240   0.459   4.717  0.7566 -0.1752 -1.3128
 5529SOL     OW17420   7.378   5.374   1.844 -0.1149 -0.2520 -0.8088
 5529SOL    HW117421   7.335   5.341   1.923 -1.2876 -0.4738 -1.5164
 5529SOL    HW217422   7.470   5.354   1.857 -0.2964 -0.3747  0.4564
 5530SOL     OW17423   2.439   1.984   3.258 -0.2849 -0.5492  0.5066
 5530SOL    HW117424   2.467   1.927   3.186 -1.0766  1.1950 -1.2706
 5530SOL    HW217425   2.488   1.953   3.334  0.2280 -2.7709 -0.6547
 5531SOL     OW17426   5.402   1.046   1.244 -0.6684  0.1137 -0.1650
 5531SOL    HW117427   5.397   1.053   1.148 -2.3736  1.0074 -0.0366
 5531SOL    HW217428   5.410   1.136   1.274  0.5486 -0.2014  0.5438
 5532SOL     OW17429   2.203   1.504   6.525  0.2068  0.5650 -0.0687
 5532SOL    HW117430   2.172   1.449   6.598  1.1696  0.7793  0.5215
 5532SOL    HW217431   2.129   1.507   6.464 -0.2228 -0.5354  0.3754
 5533SOL     OW17432   2.551   1.581   3.685 -0.0615 -0.0658  0.2902
 5533SOL    HW117433   2.505   1.498   3.674  0.6118 -0.5121  0.7872
 5533SOL    HW217434   2.568   1.588   3.779 -3.4245  2.4475  0.8915
 5534SOL     OW17435   7.119   1.241   1.380 -0.1715 -0.5503 -0.1792
 5534SOL    HW117436   7.186   1.263   1.316 -0.2712  0.4971  0.0457
 5534SOL    HW217437   7.130   1.148   1.397  1.9289 -0.2015  0.6275
 5535SOL     OW17438   7.486   5.139   4.723 -0.1415  0.1847 -0.3611
 5535SOL    HW117439   7.492   5.051   4.686 -1.8144  0.3673 -1.1756
 5535SOL    HW217440   7.487   5.126   4.818  1.4625 -0.5294 -0.4469
 5536SOL     OW17441   7.476   7.561   7.441  0.2135  0.0012 -0.0295
 5536SOL    HW117442   7.468   7.622   7.514 -0.6391 -0.0980 -0.0330
 5536SOL    HW217443   7.438   7.479   7.474  0.9377 -0.4045 -0.1725
 5537SOL     OW17444   7.646   2.310   3.857  0.7125  0.2132 -0.2395
 5537SOL    HW117445   7.568   2.353   3.892 -0.6136 -1.1526 -1.3379
 5537SOL    HW217446   7.713   2.324   3.924 -0.6497  0.8867  1.0601
 5538SOL     OW17447   1.606   6.944   6.526  0.5631 -0.1084 -0.4457
 5538SOL    HW117448   1.655   6.866   6.499 -1.1972 -1.2599 -0.5267
 5538SOL    HW217449   1.584   6.928   6.618 -1.6061 -0.7938 -1.0089
 5539SOL     OW17450   5.288   7.317   6.625 -0.3961 -0.0539 -0.2219
 5539SOL    HW117451   5.307   7.310   6.531  0.6314  0.6479 -0.0881
 5539SOL    HW217452   5.248   7.403   6.635 -1.2777 -0.4715 -0.1278
 5540SOL     OW17453   7.543   4.401   0.595  0.1936 -0.5389 -0.8004
 5540SOL    HW117454   7.473   4.352   0.639 -1.6880  2.3478 -0.2297
 5540SOL    HW217455   7.502   4.433   0.514  0.5143  1.7433 -0.1469
 5541SOL     OW17456   6.500   2.364   0.986  0.8362  0.6812  0.5760
 5541SOL    HW117457   6.410   2.349   0.956  0.7496  1.4122  0.4573
 5541SOL    HW217458   6.534   2.276   1.004  0.1969  0.3784  0.3389
 5542SOL     OW17459   1.566   1.507   4.731  0.4866 -0.0363 -0.2910
 5542SOL    HW117460   1.569   1.513   4.636 -0.7521 -0.2420 -0.3642
 5542SOL    HW217461   1.618   1.581   4.762  2.3675 -0.9595 -1.1040
 5543SOL     OW17462   6.382   0.899   3.069  0.5730  0.4349 -0.4593
 5543SOL    HW117463   6.373   0.963   3.140  0.8127  1.9358 -1.7098
 5543SOL    HW217464   6.360   0.815   3.109  1.3596  1.1194  1.5395
 5544SOL     OW17465   4.126   5.051   1.403 -0.0896 -0.1810 -0.1071
 5544SOL    HW117466   4.192   5.085   1.343 -1.0680 -0.3747 -1.3480
 5544SOL    HW217467   4.045   5.051   1.352 -0.6905 -1.6366  0.7806
 5545SOL     OW17468   0.420   2.559   0.381  0.4343  0.0948  0.3909
 5545SOL    HW117469   0.437   2.465   0.385  0.1656  0.0768  2.0846
 5545SOL    HW217470   0.327   2.565   0.357  0.8046 -0.0093 -1.1580
 5546SOL     OW17471   4.029   1.394   3.424 -0.1406 -0.1644 -0.0084
 5546SOL    HW117472   4.058   1.304   3.438  0.6185  0.0525 -0.1637
 5546SOL    HW217473   4.089   1.447   3.475  1.6406  0.5187 -2.6194
 5547SOL     OW17474   7.250   6.361   5.452 -0.1757 -0.6133 -0.3706
 5547SOL    HW117475   7.158   6.350   5.476 -0.3577  2.2911  0.6864
 5547SOL    HW217476   7.295   6.375   5.535  0.7871  0.4389 -1.0364
 5548SOL     OW17477   4.493   6.581   6.489 -0.6357 -0.1264 -0.0578
 5548SOL    HW117478   4.400   6.564   6.474 -0.7751 -0.7343  1.3294
 5548SOL    HW217479   4.500   6.589   6.584  0.7685 -0.2402 -0.1381
 5549SOL     OW17480   1.290   5.323   6.147 -0.1604 -0.5095 -0.4190
 5549SOL    HW117481   1.322   5.333   6.237  3.2053 -0.9671 -1.4351
 5549SOL    HW217482   1.306   5.409   6.107  2.4075 -1.4492 -1.6247
 5550SOL     OW17483   5.927   3.047   1.911  0.1229  0.1246  0.7696
 5550SOL    HW117484   5.951   3.086   1.995 -2.9559  0.1660  1.7729
 5550SOL    HW217485   5.977   3.096   1.846  0.8192  1.7113  2.4129
 5551SOL     OW17486   1.234   0.867   5.749 -0.0359  0.1687 -0.1101
 5551SOL    HW117487   1.160   0.858   5.809 -1.2429 -2.3504 -1.7927
 5551SOL    HW217488   1.301   0.809   5.785  0.2367  0.6768  0.1978
 5552SOL     OW17489   5.586   7.189   2.176  0.2163 -0.2143  0.8333
 5552SOL    HW117490   5.553   7.157   2.092  0.8090  0.0248  0.5009
 5552SOL    HW217491   5.641   7.119   2.209 -1.8090 -1.2999  2.1610
 5553SOL     OW17492   1.935   3.267   3.694  0.4340 -0.1042 -0.3757
 5553SOL    HW117493   1.868   3.305   3.637  0.0644 -1.1119 -0.6341
 5553SOL    HW217494   1.891   3.192   3.735  1.1230 -0.2157  0.1710
 5554SOL     OW17495   7.264   1.275   6.798 -0.0445 -0.2742 -0.3938
 5554SOL    HW117496   7.344   1.321   6.772 -0.2439 -0.5943 -1.6390
 5554SOL    HW217497   7.295   1.191   6.833  0.2878  0.5535  1.3877
 5555SOL     OW17498   6.883   4.680   3.155 -0.1573 -0.9261  0.7306
 5555SOL    HW117499   6.907   4.691   3.063 -2.4982  2.8784  0.3794
 5555SOL    HW217500   6.823   4.605   3.154  0.1801 -1.2154 -0.7652
 5556SOL     OW17501   4.063   1.279   4.007 -0.2869  0.2051 -0.4297
 5556SOL    HW117502   3.985   1.302   4.058  0.4634  0.8440  0.4836
 5556SOL    HW217503   4.089   1.193   4.040 -1.3554 -0.6394 -1.6961
 5557SOL     OW17504   0.388   4.922   3.889  0.3324  0.1453 -0.2256
 5557SOL    HW117505   0.461   4.941   3.830  0.8664  0.7592  0.5963
 5557SOL    HW217506   0.384   4.999   3.946  0.6106 -0.9351  1.2994
 5558SOL     OW17507   6.721   3.848   4.033  0.1733 -0.0452 -0.0770
 5558SOL    HW117508   6.727   3.930   4.082 -1.5917  0.2613 -0.3069
 5558SOL    HW217509   6.702   3.875   3.943  1.8224 -0.6619 -0.6539
 5559SOL     OW17510   6.711   7.326   7.803  0.2168 -0.2920 -0.6489
 5559SOL    HW117511   6.621   7.319   7.772 -0.0904 -2.0351  0.4955
 5559SOL    HW217512   6.746   7.403   7.758 -0.9210 -1.2663 -3.4280
 5560SOL     OW17513   0.153   4.406   7.276  0.1419  0.1569  0.1709
 5560SOL    HW117514   0.196   4.345   7.336  0.7385  1.6182  1.3081
 5560SOL    HW217515   0.147   4.488   7.325 -3.3182  0.2700 -0.2070
 5561SOL     OW17516   7.110   0.892   3.635  0.2838 -0.3611 -0.5212
 5561SOL    HW117517   7.110   0.864   3.727 -2.3550  0.7587 -0.0949
 5561SOL    HW217518   7.197   0.930   3.622 -0.0843  1.8712  2.3632
 5562SOL     OW17519   0.696   5.089   1.972  0.3707  0.0849 -0.2059
 5562SOL    HW117520   0.725   5.132   1.891  0.0264 -1.2814 -1.0850
 5562SOL    HW217521   0.695   4.996   1.951  0.0736 -0.2867  1.3242
 5563SOL     OW17522   2.644   6.833   6.649  0.3188 -0.2693  0.0045
 5563SOL    HW117523   2.713   6.832   6.584 -0.2849  0.2470 -0.6675
 5563SOL    HW217524   2.565   6.855   6.599 -0.0830  0.5579  0.9710
 5564SOL     OW17525   2.488   0.894   2.473  0.4698 -0.3118 -0.1961
 5564SOL    HW117526   2.466   0.817   2.525 -0.7599  1.5605  2.3232
 5564SOL    HW217527   2.553   0.941   2.527 -0.1673  1.2659 -0.7448
 5565SOL     OW17528   3.474   3.954   3.077  0.0419 -0.2110 -0.4025
 5565SOL    HW117529   3.557   3.979   3.118  0.4073  0.2017 -1.3493
 5565SOL    HW217530   3.447   3.876   3.123  1.2870 -0.7082 -0.4682
 5566SOL     OW17531   1.698   5.702   6.342 -0.6028 -0.4913 -0.1125
 5566SOL    HW117532   1.711   5.780   6.289  2.6665  0.7009  2.1253
 5566SOL    HW217533   1.694   5.630   6.279 -0.7402  1.1613 -2.0930
 5567SOL     OW17534   3.427   4.281   1.227  0.7124 -0.7841 -0.2500
 5567SOL    HW117535   3.332   4.275   1.243  0.2561  3.0609 -0.6916
 5567SOL    HW217536   3.461   4.330   1.302  2.5012 -2.4191  0.0841
 5568SOL     OW17537   5.529   6.306   2.073 -0.0886 -0.3253 -0.9243
 5568SOL    HW117538   5.523   6.294   2.168  1.3374 -0.8787 -0.8766
 5568SOL    HW217539   5.602   6.250   2.047 -1.0600 -0.9237 -2.4922
 5569SOL     OW17540   6.729   4.405   2.483  0.5813  0.6943 -0.4339
 5569SOL    HW117541   6.789   4.351   2.432  0.1577 -0.4599  0.2624
 5569SOL    HW217542   6.642   4.385   2.448  0.2216 -0.5351  1.0489
 5570SOL     OW17543   3.378   5.651   3.127 -0.3370  0.2679  0.2842
 5570SOL    HW117544   3.432   5.637   3.050  2.1601 -1.2992  2.1514
 5570SOL    HW217545   3.356   5.562   3.158  1.8273  0.5995  3.2768
 5571SOL     OW17546   0.314   1.556   0.800  0.3018  0.1776  0.0748
 5571SOL    HW117547   0.242   1.502   0.767 -0.0196  0.3910  0.4212
 5571SOL    HW217548   0.372   1.493   0.844  1.2632 -0.2724 -1.7355
 5572SOL     OW17549   0.875   6.970   3.481  0.6260 -0.1199 -0.9349
 5572SOL    HW117550   0.860   6.946   3.389 -1.4611 -0.5378 -0.5393
 5572SOL    HW217551   0.821   7.048   3.494 -0.8973 -1.3286  0.4592
 5573SOL     OW17552   2.273   5.967   2.853  0.3328  0.5365 -0.0922
 5573SOL    HW117553   2.183   5.976   2.823  0.2310  0.6598  0.2411
 5573SOL    HW217554   2.326   5.977   2.774  0.0762  0.9900 -0.2112
 5574SOL     OW17555   4.504   7.350   3.706  0.4459  0.5115 -0.1139
 5574SOL    HW117556   4.478   7.441   3.687  0.1213 -0.1197 -3.1566
 5574SOL    HW217557   4.428   7.298   3.682  0.3059 -0.5925  2.4370
 5575SOL     OW17558   6.500   3.711   1.998  0.7681 -0.0456  0.1123
 5575SOL    HW117559   6.577   3.703   1.941  0.0679  0.8096 -0.9958
 5575SOL    HW217560   6.430   3.666   1.951  0.0438  1.1434  0.0078
 5576SOL     OW17561   1.637   1.211   6.341  0.6544  0.2426  0.4309
 5576SOL    HW117562   1.608   1.126   6.309  0.6835  0.4603 -0.1875
 5576SOL    HW217563   1.692   1.245   6.271 -0.0597  1.1501  0.2914
 5577SOL     OW17564   6.509   2.775   7.311 -0.3574  0.0791 -0.3109
 5577SOL    HW117565   6.570   2.779   7.238 -1.4404  2.2331 -1.2001
 5577SOL    HW217566   6.553   2.823   7.381 -0.1833 -0.1874 -0.2345
 5578SOL     OW17567   4.712   4.142   2.428 -0.2373  0.1464  0.6189
 5578SOL    HW117568   4.711   4.077   2.499 -0.6664 -0.1233  0.3671
 5578SOL    HW217569   4.641   4.115   2.369  0.1925  0.3025  0.0239
 5579SOL     OW17570   1.345   5.049   6.537  0.1794  0.0473  0.3793
 5579SOL    HW117571   1.435   5.035   6.567  0.7632  1.6872 -0.4741
 5579SOL    HW217572   1.345   5.017   6.447 -0.2451 -0.4688  0.5634
 5580SOL     OW17573   3.797   5.386   1.209 -0.0696 -0.0120  0.0970
 5580SOL    HW117574   3.770   5.343   1.128  1.6146 -2.9870  0.9480
 5580SOL    HW217575   3.862   5.451   1.181  0.6813 -1.1692 -0.9586
 5581SOL     OW17576   0.572   0.571   6.332  0.0456  0.5605 -0.1464
 5581SOL    HW117577   0.652   0.525   6.356  0.2559  0.6750 -0.6105
 5581SOL    HW217578   0.596   0.663   6.331  0.0084  0.5667 -0.6617
 5582SOL     OW17579   3.275   0.282   2.185 -0.2632  0.0589 -0.1405
 5582SOL    HW117580   3.212   0.236   2.130 -0.0921 -0.6712  0.2730
 5582SOL    HW217581   3.348   0.302   2.127 -1.7396  2.9073 -1.2463
 5583SOL     OW17582   7.510   7.087   0.568 -0.1991 -0.3181  0.0560
 5583SOL    HW117583   7.429   7.131   0.542 -0.8180 -1.1480  0.5330
 5583SOL    HW217584   7.505   7.081   0.663  0.7050  0.1340  0.1415
 5584SOL     OW17585   1.308   0.271   6.170  0.1235  0.5125 -0.4593
 5584SOL    HW117586   1.385   0.214   6.165 -1.5396 -1.7906 -1.4791
 5584SOL    HW217587   1.321   0.337   6.102  0.9169 -0.2067 -1.0096
 5585SOL     OW17588   0.813   0.677   5.911  0.4487 -0.2355 -0.3261
 5585SOL    HW117589   0.875   0.684   5.983  2.4265 -0.6794 -1.9028
 5585SOL    HW217590   0.834   0.595   5.868 -1.6451 -0.6860 -0.6076
 5586SOL     OW17591   5.203   4.492   6.618  0.3922 -0.7406  0.3182
 5586SOL    HW117592   5.154   4.474   6.537 -1.2123  0.8037  0.8944
 5586SOL    HW217593   5.148   4.458   6.688  1.7829 -2.0867  0.8323
 5587SOL     OW17594   2.658   4.457   6.383 -0.0361 -0.1614  0.0666
 5587SOL    HW117595   2.666   4.421   6.471  0.8037  0.2476  0.1631
 5587SOL    HW217596   2.747   4.476   6.356 -0.4125  1.4842 -0.1385
 5588SOL     OW17597   0.185   1.484   0.025  0.2383  0.0023  0.4475
 5588SOL    HW117598   0.239   1.461   0.101  2.5030 -0.5982 -1.2294
 5588SOL    HW217599   0.211   1.573   0.004  0.0766 -0.0496  0.0213
 5589SOL     OW17600   3.283   3.238   0.804  0.1236  0.5631 -0.8706
 5589SOL    HW117601   3.219   3.250   0.734  1.4542  0.6948 -2.1268
 5589SOL    HW217602   3.353   3.187   0.763  1.5648  1.8069 -0.0518
 5590SOL     OW17603   3.638   2.562   4.134 -0.1649  0.2945  0.1844
 5590SOL    HW117604   3.709   2.497   4.135  0.3895  0.7448 -2.1986
 5590SOL    HW217605   3.623   2.579   4.041 -3.1403  0.5479  0.6099
 5591SOL     OW17606   2.480   1.831   7.694 -0.0641 -0.5949  0.1148
 5591SOL    HW117607   2.545   1.891   7.730 -1.2269  0.9012 -0.1476
 5591SOL    HW217608   2.431   1.885   7.631 -1.8363 -1.5185  0.6425
 5592SOL     OW17609   0.031   0.362   6.258  0.6321 -0.0700  0.2101
 5592SOL    HW117610   0.007   0.281   6.303  2.2927 -1.2998 -1.0006
 5592SOL    HW217611   0.120   0.380   6.287  0.4162  1.1316  0.1782
 5593SOL     OW17612   6.685   2.479   0.819 -0.4644 -0.1425 -0.0651
 5593SOL    HW117613   6.740   2.536   0.873 -0.2004  0.4185 -0.9016
 5593SOL    HW217614   6.621   2.442   0.880  1.8194 -2.1530  1.2769
 5594SOL     OW17615   1.197   0.776   6.776  0.6480  0.5808 -0.2956
 5594SOL    HW117616   1.122   0.827   6.807  1.6397 -0.2030  4.0517
 5594SOL    HW217617   1.157   0.701   6.731 -1.3174  0.1612  1.9096
 5595SOL     OW17618   2.357   4.517   3.549 -0.0567  0.0791 -0.1337
 5595SOL    HW117619   2.438   4.525   3.599 -1.0479 -1.7894  1.9748
 5595SOL    HW217620   2.290   4.555   3.606 -1.1352 -1.5311 -0.2359
 5596SOL     OW17621   5.297   5.641   5.428  0.3876 -0.0370 -0.2362
 5596SOL    HW117622   5.343   5.664   5.347  0.4953  0.3151 -0.0760
 5596SOL    HW217623   5.242   5.717   5.447 -0.6353 -0.6587 -0.6933
 5597SOL     OW17624   3.674   0.796   4.754  0.1277  0.0614 -0.3261
 5597SOL    HW117625   3.611   0.868   4.758  1.7260  1.4661  0.8301
 5597SOL    HW217626   3.638   0.730   4.814  0.3134  1.3639  1.2871
 5598SOL     OW17627   0.495   2.879   4.668 -0.6975 -0.3792  0.3328
 5598SOL    HW117628   0.588   2.898   4.658 -0.7461 -0.0690  0.4487
 5598SOL    HW217629   0.455   2.965   4.681 -1.0914 -0.4374 -0.4575
 5599SOL     OW17630   3.825   1.463   7.809 -0.0905  0.4675 -0.6853
 5599SOL    HW117631   3.797   1.544   7.853 -2.7891 -1.0149  0.6438
 5599SOL    HW217632   3.800   1.475   7.718 -0.0426  1.2924 -0.5976
 5600SOL     OW17633   4.608   2.217   2.357 -0.0855 -0.8459  0.3779
 5600SOL    HW117634   4.655   2.276   2.298 -1.3539 -0.2710 -0.0741
 5600SOL    HW217635   4.673   2.194   2.424  0.6899  0.3510  0.0697
 5601SOL     OW17636   6.176   2.010   6.045 -0.0493 -0.3077 -0.3183
 5601SOL    HW117637   6.206   1.938   5.989 -1.1194 -0.0666 -1.2547
 5601SOL    HW217638   6.211   1.990   6.132 -0.6858 -2.2075 -0.4617
 5602SOL     OW17639   7.727   1.309   3.189  0.0280 -0.1133 -0.4655
 5602SOL    HW117640   7.815   1.312   3.228  0.3916 -0.9133 -1.1955
 5602SOL    HW217641   7.711   1.398   3.159  1.0249 -0.1737 -1.2344
 5603SOL     OW17642   3.060   4.605   2.660  0.9335  0.4393  0.2822
 5603SOL    HW117643   2.970   4.572   2.652  0.9097 -0.6196  3.5549
 5603SOL    HW217644   3.059   4.688   2.612 -1.5287  0.0566 -0.4837
 5604SOL     OW17645   6.811   0.621   2.673 -0.1275 -0.0037 -0.3251
 5604SOL    HW117646   6.885   0.671   2.708  0.8800 -0.8992 -1.1108
 5604SOL    HW217647   6.750   0.688   2.641 -0.0585  0.7657  1.0673
 5605SOL     OW17648   0.267   2.925   6.313 -0.4203 -0.1158  0.0325
 5605SOL    HW117649   0.284   2.845   6.264  1.3764 -0.1177  0.5736
 5605SOL    HW217650   0.216   2.980   6.254  3.0834  0.6086 -2.6642
 5606SOL     OW17651   6.727   2.418   7.940 -0.7371 -0.1303  0.1831
 5606SOL    HW117652   6.735   2.508   7.909 -0.0610 -0.6076 -1.1168
 5606SOL    HW217653   6.816   2.392   7.962 -0.9390 -0.4699  0.6323
 5607SOL     OW17654   5.151   3.723   3.167 -0.2087 -0.2806  0.0416
 5607SOL    HW117655   5.088   3.721   3.095  0.6365  1.8836 -0.8580
 5607SOL    HW217656   5.104   3.765   3.238 -0.6414 -1.2497  0.3417
 5608SOL     OW17657   3.893   6.232   0.288 -0.0387  0.7558  0.2482
 5608SOL    HW117658   3.825   6.284   0.247 -0.0754  0.5391  0.0282
 5608SOL    HW217659   3.866   6.224   0.380 -0.1552  0.9197  0.2272
 5609SOL     OW17660   4.963   0.082   0.075 -0.5551 -0.0101 -0.1774
 5609SOL    HW117661   5.028   0.142   0.039  1.4663 -0.0307  3.0038
 5609SOL    HW217662   4.888   0.136   0.096  1.1317  1.5778  2.4049
 5610SOL     OW17663   3.598   3.497   5.958 -0.1639  0.2744 -0.0532
 5610SOL    HW117664   3.598   3.490   5.862 -0.1892 -0.5247 -0.0037
 5610SOL    HW217665   3.632   3.584   5.976  0.1988  0.2904 -0.7885
 5611SOL     OW17666   5.531   2.162   6.376  0.4106 -0.0768  0.3377
 5611SOL    HW117667   5.464   2.193   6.436 -0.3705 -1.7715  0.4007
 5611SOL    HW217668   5.589   2.108   6.430 -0.2685 -1.5731 -0.3709
 5612SOL     OW17669   7.924   1.461   3.308  0.0257  0.5066  0.4321
 5612SOL    HW117670   8.014   1.489   3.295 -0.0993 -0.0531 -2.6167
 5612SOL    HW217671   7.873   1.542   3.316  0.5031  0.9435 -0.7580
 5613SOL     OW17672   1.987   6.286   5.278 -0.0173 -0.3902 -0.3273
 5613SOL    HW117673   2.036   6.280   5.196  1.2896 -0.3397  0.4090
 5613SOL    HW217674   1.986   6.197   5.311 -2.1148 -0.7523 -1.2285
 5614SOL     OW17675   5.104   3.949   4.428 -0.1185  0.1004 -0.4025
 5614SOL    HW117676   5.082   3.856   4.440 -0.1219 -0.0850 -1.7478
 5614SOL    HW217677   5.123   3.957   4.335  0.5086  1.3310 -0.1813
 5615SOL     OW17678   0.575   5.500   1.502  0.0035 -0.7288 -0.2336
 5615SOL    HW117679   0.589   5.524   1.410 -1.5141 -1.8439 -0.8021
 5615SOL    HW217680   0.558   5.406   1.499 -1.4090 -0.5478  1.0149
 5616SOL     OW17681   5.658   0.648   7.372 -0.6815 -0.2469 -0.0705
 5616SOL    HW117682   5.599   0.717   7.401 -0.8013 -0.1262 -0.5983
 5616SOL    HW217683   5.728   0.647   7.438 -0.9939 -0.0327  0.2656
 5617SOL     OW17684   7.003   7.015   5.155  0.3897 -0.1292 -0.0441
 5617SOL    HW117685   7.084   7.052   5.120  0.2437 -0.3492 -0.6247
 5617SOL    HW217686   7.009   7.030   5.249  1.6773 -1.2318  0.0787
 5618SOL     OW17687   4.447   5.763   1.244 -0.7160 -0.3999  0.2484
 5618SOL    HW117688   4.429   5.783   1.152 -0.2827 -0.6386  0.1079
 5618SOL    HW217689   4.449   5.848   1.287 -0.0836 -0.2162 -0.1240
 5619SOL     OW17690   4.917   6.038   7.501 -0.7236  0.3425  0.4445
 5619SOL    HW117691   4.950   6.127   7.516 -0.4137  0.1955  0.6385
 5619SOL    HW217692   4.888   6.038   7.410 -0.5051  0.5729  0.3743
 5620SOL     OW17693   2.588   5.646   1.065  0.3829  0.1373  0.0047
 5620SOL    HW117694   2.611   5.668   0.975  0.8082  0.9472  0.2962
 5620SOL    HW217695   2.572   5.731   1.106 -0.4530 -0.2654  0.5230
 5621SOL     OW17696   7.006   0.643   2.267  0.4552  0.2181 -0.1204
 5621SOL    HW117697   6.923   0.596   2.274 -0.2671  0.8661 -2.9638
 5621SOL    HW217698   7.068   0.577   2.238  0.4490  0.1530  0.0145
 5622SOL     OW17699   6.925   4.097   4.033 -0.3767 -0.3345  0.3579
 5622SOL    HW117700   6.911   4.176   3.980 -1.8368  0.1041  1.3084
 5622SOL    HW217701   6.924   4.129   4.123 -1.0814 -1.4423  0.7618
 5623SOL     OW17702   1.349   6.097   6.837 -0.1838 -0.0077  0.0877
 5623SOL    HW117703   1.262   6.120   6.804 -0.4463  1.1555  1.5298
 5623SOL    HW217704   1.393   6.058   6.761 -1.8809 -0.4561 -0.7254
 5624SOL     OW17705   6.738   2.228   0.711 -0.3783  0.3432  0.4281
 5624SOL    HW117706   6.775   2.310   0.745  1.5860  0.1382 -1.0569
 5624SOL    HW217707   6.644   2.235   0.728 -0.4780  3.4990 -0.8115
 5625SOL     OW17708   2.704   6.529   4.475 -0.0291  0.2036  0.2538
 5625SOL    HW117709   2.609   6.531   4.488 -0.1611  0.3355 -0.6732
 5625SOL    HW217710   2.717   6.469   4.402  0.5867  0.3415  0.2487
 5626SOL     OW17711   0.286   4.751   3.660 -0.3449  0.8180 -0.2630
 5626SOL    HW117712   0.304   4.771   3.751 -1.0843  1.9514 -0.3421
 5626SOL    HW217713   0.352   4.686   3.636  1.0650  1.8940  0.5400
 5627SOL     OW17714   1.076   0.443   6.870  0.5214 -0.8260 -0.0033
 5627SOL    HW117715   1.170   0.432   6.855  0.5156  0.4614 -1.2291
 5627SOL    HW217716   1.035   0.411   6.790  0.1144  1.0884 -0.6108
 5628SOL     OW17717   3.462   0.279   3.376  0.6976  0.5719  0.1543
 5628SOL    HW117718   3.420   0.194   3.391  0.5454  0.6668  0.2696
 5628SOL    HW217719   3.516   0.266   3.298  0.0815  0.5808 -0.2768
 5629SOL     OW17720   6.975   3.089   0.284 -0.0383 -0.4701 -0.4061
 5629SOL    HW117721   6.965   3.184   0.280  1.7430 -0.2913 -2.2063
 5629SOL    HW217722   6.890   3.057   0.314 -0.1930  1.7589  1.9085
 5630SOL     OW17723   6.268   5.041   1.025 -0.2661 -0.0953 -0.0048
 5630SOL    HW117724   6.247   5.003   1.111 -0.0439 -1.4719 -0.5325
 5630SOL    HW217725   6.363   5.035   1.019 -0.1554  1.2297  0.1872
 5631SOL     OW17726   2.827   2.601   0.344 -0.2349 -0.5390 -0.1578
 5631SOL    HW117727   2.913   2.641   0.331 -0.4639  1.1480  2.5957
 5631SOL    HW217728   2.770   2.646   0.281  0.4893 -0.0852 -0.5018
 5632SOL     OW17729   1.360   4.141   4.154 -0.1695 -0.1258  0.3417
 5632SOL    HW117730   1.436   4.180   4.112 -0.4213 -0.7124 -0.7140
 5632SOL    HW217731   1.320   4.212   4.204  0.1289  0.6203 -0.4598
 5633SOL     OW17732   3.994   7.914   4.125  0.0101  0.3264 -0.3549
 5633SOL    HW117733   3.903   7.920   4.152 -0.0493 -0.6130 -0.3186
 5633SOL    HW217734   4.002   7.827   4.085  1.1349 -0.0631  0.6317
 5634SOL     OW17735   1.152   1.093   7.036 -1.0962 -0.2568 -0.4276
 5634SOL    HW117736   1.107   1.010   7.024 -0.7029 -0.4784 -0.3819
 5634SOL    HW217737   1.215   1.077   7.106 -1.6795  0.3479  0.2563
 5635SOL     OW17738   3.434   7.010   4.480 -0.2410 -0.3197  0.3863
 5635SOL    HW117739   3.489   6.932   4.477 -0.9687 -0.8274 -0.2834
 5635SOL    HW217740   3.400   7.019   4.391 -0.4704  0.5452  0.5463
 5636SOL     OW17741   1.251   1.068   0.126 -0.3158  0.3984  0.1367
 5636SOL    HW117742   1.202   1.048   0.046  1.3508  0.4038 -0.9284
 5636SOL    HW217743   1.312   0.996   0.136  1.5739  1.8656 -0.3223
 5637SOL     OW17744   1.250   6.805   3.670  0.5400 -0.1628 -0.6668
 5637SOL    HW117745   1.323   6.809   3.608  0.7225 -0.7654 -0.4954
 5637SOL    HW217746   1.280   6.746   3.739  0.5951  1.0043  0.3412
 5638SOL     OW17747   2.387   0.135   3.014 -0.0953  0.2172 -0.5327
 5638SOL    HW117748   2.473   0.165   3.044 -0.5957  0.1755  1.0172
 5638SOL    HW217749   2.374   0.051   3.057 -0.2713 -0.5162 -1.9789
 5639SOL     OW17750   5.867   4.855   3.575 -0.1556  0.6126  0.0237
 5639SOL    HW117751   5.854   4.802   3.497 -0.1131 -0.6640  0.8632
 5639SOL    HW217752   5.861   4.945   3.544  0.2726  0.1334 -1.5130
 5640SOL     OW17753   5.631   3.403   0.492 -0.1862 -0.2950 -0.1906
 5640SOL    HW117754   5.682   3.336   0.447 -0.0367  0.6363 -1.4695
 5640SOL    HW217755   5.689   3.479   0.497 -0.6521  0.0314  0.4278
 5641SOL     OW17756   5.222   6.448   4.581  0.2321  0.3089 -0.2774
 5641SOL    HW117757   5.213   6.354   4.599 -2.2969  0.3858 -0.7018
 5641SOL    HW217758   5.282   6.453   4.507  1.7457 -0.8161  0.8083
 5642SOL     OW17759   0.561   7.726   0.671 -0.4453  0.2775 -0.8254
 5642SOL    HW117760   0.643   7.690   0.704 -0.1260  2.0754  0.5253
 5642SOL    HW217761   0.506   7.735   0.749 -0.6531  2.2087 -1.1427
 5643SOL     OW17762   0.466   2.426   6.312  0.0410  0.4773  0.3048
 5643SOL    HW117763   0.503   2.511   6.336  1.0053 -0.6107  3.1019
 5643SOL    HW217764   0.539   2.364   6.322 -1.3714 -1.0997  1.3649
 5644SOL     OW17765   7.173   0.742   0.341  0.7514 -0.1236  1.0688
 5644SOL    HW117766   7.245   0.679   0.346  0.4020 -1.0061 -2.4161
 5644SOL    HW217767   7.098   0.696   0.379  0.8209 -1.3196 -0.1789
 5645SOL     OW17768   5.701   3.363   6.990  0.6273  0.0744  0.2097
 5645SOL    HW117769   5.792   3.360   6.961  0.3151  0.6540 -0.9266
 5645SOL    HW217770   5.659   3.290   6.944  0.5764 -0.3762  0.9649
 5646SOL     OW17771   3.787   7.757   5.034 -0.1320  0.1280  0.7126
 5646SOL    HW117772   3.841   7.691   4.989  0.9056  0.5079  1.3744
 5646SOL    HW217773   3.740   7.801   4.963  1.6242  0.8489 -0.0503
 5647SOL     OW17774   4.028   6.845   0.957  0.0671  0.0115 -0.1867
 5647SOL    HW117775   4.070   6.907   1.016  0.7890 -1.7826  1.2745
 5647SOL    HW217776   4.099   6.812   0.903 -0.3869  0.7193 -1.2541
 5648SOL     OW17777   7.580   7.633   3.916  0.2018 -0.1487 -0.0501
 5648SOL    HW117778   7.666   7.603   3.946 -0.3504 -0.7403  0.9726
 5648SOL    HW217779   7.597   7.719   3.878  1.2466 -0.2600  0.1336
 5649SOL     OW17780   4.258   4.977   7.043 -0.0087 -0.5182  0.7758
 5649SOL    HW117781   4.191   5.000   6.978 -0.2180  1.1128  1.5058
 5649SOL    HW217782   4.290   4.891   7.016 -0.9010 -0.3871 -0.8139
 5650SOL     OW17783   2.434   6.550   5.916  0.5435 -0.4526  0.2926
 5650SOL    HW117784   2.483   6.632   5.913  0.2661 -0.3116 -1.6030
 5650SOL    HW217785   2.488   6.488   5.867 -0.9671 -0.3630 -1.5878
 5651SOL     OW17786   1.869   0.812   0.767  0.1567 -0.0128 -0.1600
 5651SOL    HW117787   1.846   0.721   0.747 -1.0979 -0.3981  2.5134
 5651SOL    HW217788   1.900   0.848   0.685  1.0847 -2.9694 -1.2228
 5652SOL     OW17789   5.313   1.227   2.267  0.4111 -0.0889 -0.3839
 5652SOL    HW117790   5.374   1.296   2.240  0.9271  0.0770  1.1021
 5652SOL    HW217791   5.363   1.146   2.256  0.3374 -0.0949 -0.6831
 5653SOL     OW17792   1.426   3.236   3.797  0.0538 -0.1030 -0.2333
 5653SOL    HW117793   1.472   3.261   3.877 -0.5393  2.1646 -0.5385
 5653SOL    HW217794   1.477   3.163   3.762  2.3379  1.0916  0.4185
 5654SOL     OW17795   7.516   6.736   7.064  0.0719  0.3648 -0.4940
 5654SOL    HW117796   7.578   6.790   7.112 -0.6268  0.0813  0.7810
 5654SOL    HW217797   7.566   6.657   7.041  0.1590  0.0438  0.7108
 5655SOL     OW17798   6.570   0.893   2.288 -0.2893  0.1748 -0.8836
 5655SOL    HW117799   6.543   0.968   2.236  2.4765  1.0394 -1.2098
 5655SOL    HW217800   6.582   0.929   2.376  2.5039  0.5935 -1.3415
 5656SOL     OW17801   3.526   0.650   4.304 -0.3184  0.0841  0.4110
 5656SOL    HW117802   3.497   0.559   4.296  0.7046 -0.2907  0.7386
 5656SOL    HW217803   3.545   0.677   4.214  1.5272 -0.7976  0.4788
 5657SOL     OW17804   2.433   3.324   0.594 -0.8097 -0.5616  0.2484
 5657SOL    HW117805   2.415   3.239   0.553 -0.7743 -0.5640  0.2377
 5657SOL    HW217806   2.512   3.355   0.550 -1.3080 -0.1208 -0.3464
 5658SOL     OW17807   5.078   3.606   2.447  0.0031  0.0767 -0.3324
 5658SOL    HW117808   5.044   3.519   2.469  1.0557 -0.6744 -1.5127
 5658SOL    HW217809   5.171   3.600   2.467  0.6005  0.0421 -2.7994
 5659SOL     OW17810   7.022   6.515   4.079  0.2192 -0.3288 -0.2634
 5659SOL    HW117811   7.116   6.532   4.088  0.1411 -0.8645  2.2591
 5659SOL    HW217812   6.988   6.592   4.034  1.6120  0.7139  0.3923
 5660SOL     OW17813   7.217   3.542   7.078 -0.7188 -0.3301  0.0216
 5660SOL    HW117814   7.184   3.605   7.014 -0.5962 -1.5297 -1.2792
 5660SOL    HW217815   7.207   3.457   7.035 -1.2742 -1.2566  1.8934
 5661SOL     OW17816   1.143   7.490   7.294 -0.3631 -0.0017 -0.0045
 5661SOL    HW117817   1.112   7.427   7.229 -0.7285 -0.3088  0.4649
 5661SOL    HW217818   1.219   7.531   7.252  0.8609 -1.8557  0.2898
 5662SOL     OW17819   3.609   5.464   5.386  0.2539  0.0302  0.1111
 5662SOL    HW117820   3.638   5.440   5.474 -1.0655  0.7870  0.7741
 5662SOL    HW217821   3.550   5.393   5.359  1.0362 -0.4496 -0.3843
 5663SOL     OW17822   3.464   0.007   3.682  0.3539 -0.1094 -0.2824
 5663SOL    HW117823   3.455  -0.032   3.769 -0.1189  1.1638  0.2773
 5663SOL    HW217824   3.515   0.087   3.698 -0.7112  0.7406 -0.9660
 5664SOL     OW17825   2.675   2.344   1.781 -0.2377  0.1077  0.4173
 5664SOL    HW117826   2.755   2.348   1.834  0.8882 -0.2803 -1.1758
 5664SOL    HW217827   2.617   2.286   1.830  0.8050 -0.3547  1.1447
 5665SOL     OW17828   1.401   7.514   4.481  0.3408  0.2312 -0.3893
 5665SOL    HW117829   1.370   7.540   4.395  1.8656  0.7324 -0.8215
 5665SOL    HW217830   1.448   7.432   4.467  0.1635  0.0491  0.0523
 5666SOL     OW17831   5.719   1.131   5.994 -0.3492 -0.3141  0.2154
 5666SOL    HW117832   5.712   1.048   6.042 -0.8549 -0.1339  0.4637
 5666SOL    HW217833   5.663   1.118   5.917 -0.9738  0.0361  0.6060
 5667SOL     OW17834   2.364   5.051   4.750 -0.6279 -0.2152 -0.0673
 5667SOL    HW117835   2.409   4.992   4.689 -0.8380 -1.2042  0.7081
 5667SOL    HW217836   2.312   4.993   4.806  0.8083  0.4770  2.1242
 5668SOL     OW17837   5.971   2.635   3.048  0.6727 -0.2496  0.3063
 5668SOL    HW117838   5.888   2.618   3.004  0.7889  1.2148 -0.5377
 5668SOL    HW217839   5.954   2.614   3.140 -0.4428 -0.5645  0.0432
 5669SOL     OW17840   7.078   2.576   1.877 -0.0424  0.0884 -0.3943
 5669SOL    HW117841   7.156   2.624   1.848  0.4314 -0.5467 -0.1954
 5669SOL    HW217842   7.029   2.559   1.797 -0.0130  0.5502 -0.5137
 5670SOL     OW17843   3.121   0.131   3.230  0.3429 -0.4673 -0.3352
 5670SOL    HW117844   3.195   0.122   3.290  1.8769  2.5803 -1.5282
 5670SOL    HW217845   3.055   0.178   3.280  1.8364  2.5903 -0.9763
 5671SOL     OW17846   3.622   5.628   1.256 -0.3113  0.0215  0.3775
 5671SOL    HW117847   3.681   5.664   1.189  1.5722 -0.4621  1.6879
 5671SOL    HW217848   3.666   5.549   1.287 -1.3322 -0.0093  1.8695
 5672SOL     OW17849   6.725   5.767   2.842 -0.0061 -0.0065  0.1554
 5672SOL    HW117850   6.788   5.811   2.784  2.0453 -1.3744  1.2050
 5672SOL    HW217851   6.736   5.810   2.927 -0.8577  0.0605  0.2399
 5673SOL     OW17852   5.599   1.677   4.087 -0.0250  0.0258 -0.1317
 5673SOL    HW117853   5.686   1.637   4.091 -0.7239 -1.4878  2.4653
 5673SOL    HW217854   5.547   1.615   4.036 -0.1812 -0.4563  0.5940
 5674SOL     OW17855   7.356   7.285   7.905  0.2609 -0.3074  0.2146
 5674SOL    HW117856   7.261   7.279   7.910  0.1769  0.3006 -0.4101
 5674SOL    HW217857   7.383   7.200   7.871 -0.3340  0.4167 -2.3503
 5675SOL     OW17858   5.516   1.180   5.081  0.5924 -0.3324  0.4219
 5675SOL    HW117859   5.535   1.184   4.988  0.9475 -0.8593  0.4719
 5675SOL    HW217860   5.477   1.265   5.101  1.1665  0.0493 -0.0623
 5676SOL     OW17861   4.884   4.728   5.108 -0.6345  0.2640  0.0769
 5676SOL    HW117862   4.862   4.720   5.201 -0.4580 -2.0898 -0.0178
 5676SOL    HW217863   4.800   4.727   5.063 -0.6623 -1.9591  0.0799
 5677SOL     OW17864   7.568   4.102   7.066 -0.0415  0.2067 -0.1965
 5677SOL    HW117865   7.545   4.133   6.978  0.3701  0.2038 -0.3111
 5677SOL    HW217866   7.487   4.108   7.116 -0.6014 -0.9932 -0.9084
 5678SOL     OW17867   1.744   6.276   1.479  0.4865 -0.1844 -0.1149
 5678SOL    HW117868   1.695   6.344   1.526 -0.9759 -0.6805 -0.8652
 5678SOL    HW217869   1.827   6.318   1.454 -0.8379  1.7182 -1.5555
 5679SOL     OW17870   5.028   5.550   2.650  0.5592  0.0963 -0.0666
 5679SOL    HW117871   5.109   5.571   2.697  2.1452 -1.5527 -1.8793
 5679SOL    HW217872   4.968   5.522   2.719  1.8536  0.3812  1.2467
 5680SOL     OW17873   7.237   3.082   3.818 -0.2401 -0.1572 -0.0706
 5680SOL    HW117874   7.210   3.162   3.864 -0.6771 -0.2548 -0.1494
 5680SOL    HW217875   7.244   3.016   3.887  3.2346  0.6381  0.5270
 5681SOL     OW17876   4.476   2.737   2.458  0.0200  0.8620 -0.0844
 5681SOL    HW117877   4.450   2.700   2.374  0.4788  1.4254 -0.4900
 5681SOL    HW217878   4.500   2.828   2.437 -1.3355  1.4793  0.9156
 5682SOL     OW17879   4.699   4.468   7.569 -0.3728 -0.3828 -0.7061
 5682SOL    HW117880   4.697   4.401   7.638 -0.6768  0.3631  0.0232
 5682SOL    HW217881   4.729   4.421   7.491  0.3972 -1.1535  0.0277
 5683SOL     OW17882   5.085   3.589   2.165  0.1545  0.1454  0.1585
 5683SOL    HW117883   5.054   3.581   2.255 -0.2417 -0.9214 -0.0615
 5683SOL    HW217884   5.006   3.614   2.116  0.2783  0.3096  0.0441
 5684SOL     OW17885   3.298   2.912   3.777 -0.4507  0.3657  0.6236
 5684SOL    HW117886   3.262   2.978   3.836  0.2840  0.5090  0.9213
 5684SOL    HW217887   3.295   2.954   3.690 -2.3537 -0.1733  0.3753
 5685SOL     OW17888   4.578   2.335   3.605 -0.3773 -0.3879 -0.0225
 5685SOL    HW117889   4.649   2.330   3.541 -0.0815 -0.1562  0.2809
 5685SOL    HW217890   4.503   2.366   3.555 -0.4061 -1.1532 -0.4567
 5686SOL     OW17891   6.974   2.657   0.282  0.0356  0.7915  0.4651
 5686SOL    HW117892   7.065   2.631   0.298 -0.2576 -1.1030 -0.7026
 5686SOL    HW217893   6.922   2.595   0.333 -0.6790 -0.9471 -2.1703
 5687SOL     OW17894   1.044   2.537   0.361  0.3699 -0.2126  0.4982
 5687SOL    HW117895   0.963   2.568   0.400 -0.0853 -1.7567  0.8375
 5687SOL    HW217896   1.022   2.521   0.269  0.4955  0.0925  0.4149
 5688SOL     OW17897   7.913   4.114   7.427  0.4532 -0.2081 -0.3573
 5688SOL    HW117898   7.865   4.174   7.369  1.5224  0.5925 -0.4324
 5688SOL    HW217899   7.846   4.051   7.456 -0.8145  1.2551  0.0572
 5689SOL     OW17900   5.793   1.842   4.769  0.8605  0.6218  0.0136
 5689SOL    HW117901   5.828   1.931   4.774 -1.2556  1.5240 -0.0781
 5689SOL    HW217902   5.800   1.809   4.859 -0.3645  1.7534  0.5642
 5690SOL     OW17903   0.074   1.328   7.197  0.0946  0.0370  0.2320
 5690SOL    HW117904   0.019   1.253   7.173 -0.2868  0.4373 -0.1693
 5690SOL    HW217905   0.012   1.392   7.232  0.6446 -0.5868  2.5248
 5691SOL     OW17906   6.778   6.187   0.887 -0.5085  0.2017  0.4905
 5691SOL    HW117907   6.837   6.119   0.855 -1.4431 -0.3964  0.0091
 5691SOL    HW217908   6.828   6.268   0.875  0.3060 -0.3059  0.3163
 5692SOL     OW17909   1.045   0.592   1.174  0.5635  0.0840  0.2978
 5692SOL    HW117910   1.125   0.540   1.184  0.5541 -0.4056 -1.6307
 5692SOL    HW217911   1.074   0.671   1.129  0.0807  0.2085  0.1981
 5693SOL     OW17912   5.048   1.954   6.147 -0.8281 -0.4146  0.2085
 5693SOL    HW117913   5.001   1.874   6.123 -2.7273  0.7205 -0.0195
 5693SOL    HW217914   5.130   1.949   6.097 -0.4463 -2.6577  0.9513
 5694SOL     OW17915   0.433   6.090   4.922  0.1995 -0.0875 -0.4456
 5694SOL    HW117916   0.482   6.094   5.004 -0.6656  1.4626  0.0412
 5694SOL    HW217917   0.490   6.132   4.858  0.6389 -0.7777 -0.5080
 5695SOL     OW17918   2.986   1.162   1.637 -0.3058 -0.6100  0.0772
 5695SOL    HW117919   2.917   1.133   1.577 -0.0609  0.4087 -0.7248
 5695SOL    HW217920   2.952   1.242   1.677  1.0884  0.9778 -1.7213
 5696SOL     OW17921   6.359   0.639   3.160 -0.0242  0.2848 -0.6946
 5696SOL    HW117922   6.290   0.590   3.115  0.1923  0.4492 -1.2096
 5696SOL    HW217923   6.441   0.607   3.121  0.1607  0.5193 -0.5039
 5697SOL     OW17924   1.132   7.146   4.370 -0.4215 -0.4854  0.2638
 5697SOL    HW117925   1.135   7.239   4.392  0.8544 -1.0113  2.6516
 5697SOL    HW217926   1.066   7.109   4.428 -0.4634 -1.1716 -0.2094
 5698SOL     OW17927   1.206   2.684   7.203 -0.2227  0.1954 -0.2148
 5698SOL    HW117928   1.166   2.678   7.117 -0.7396  1.8309 -0.1122
 5698SOL    HW217929   1.134   2.670   7.265  0.2011 -1.3104 -0.0081
 5699SOL     OW17930   0.763   5.735   0.255 -0.5736  0.1897  0.0242
 5699SOL    HW117931   0.704   5.770   0.188 -1.8154  0.0076  0.9830
 5699SOL    HW217932   0.819   5.810   0.278 -1.2125  0.7132 -0.0787
 5700SOL     OW17933   0.230   5.993   5.162 -0.5584 -0.2059  0.6633
 5700SOL    HW117934   0.142   5.993   5.199 -0.8904  0.0516 -0.0998
 5700SOL    HW217935   0.261   6.082   5.174 -1.0597  0.1577 -0.5406
 5701SOL     OW17936   3.135   2.981   3.082 -0.1552  0.8608  0.1509
 5701SOL    HW117937   3.185   2.993   3.163  1.5755  2.0904 -1.0221
 5701SOL    HW217938   3.174   2.905   3.040  0.1716  1.3040 -0.3627
 5702SOL     OW17939   7.642   2.646   2.987  0.3091 -0.2243  0.0288
 5702SOL    HW117940   7.722   2.659   2.935  0.7712  0.0404  0.7860
 5702SOL    HW217941   7.673   2.644   3.078 -0.4569 -0.8890  0.2885
 5703SOL     OW17942   4.426   7.533   1.715 -0.2837 -0.7385  0.4703
 5703SOL    HW117943   4.346   7.581   1.696 -1.5223 -1.7368  2.7004
 5703SOL    HW217944   4.458   7.504   1.630 -1.8057  0.4206 -0.5391
 5704SOL     OW17945   3.709   2.504   1.800  0.2238  0.4804 -0.1845
 5704SOL    HW117946   3.714   2.506   1.705  1.5732 -0.1769 -0.1419
 5704SOL    HW217947   3.668   2.420   1.821 -1.4276  1.2294 -0.1893
 5705SOL     OW17948   4.318   2.693   7.576 -0.2592  0.1053  0.1985
 5705SOL    HW117949   4.258   2.621   7.595 -0.0150 -0.2262 -0.2583
 5705SOL    HW217950   4.275   2.771   7.610 -0.6555 -0.2212  0.4431
 5706SOL     OW17951   6.261   1.128   7.057  0.0979 -0.3229  0.2710
 5706SOL    HW117952   6.290   1.089   7.139  0.3531 -0.6466  0.0288
 5706SOL    HW217953   6.340   1.168   7.020  0.0962 -0.6309 -0.0689
 5707SOL     OW17954   3.447   6.132   1.738 -0.8154  0.8355 -0.0179
 5707SOL    HW117955   3.479   6.142   1.828 -0.5965  1.9186 -0.1957
 5707SOL    HW217956   3.353   6.148   1.744 -0.6617  1.8245 -0.1057
 5708SOL     OW17957   0.629   6.927   7.535 -0.0395 -0.4017 -0.1557
 5708SOL    HW117958   0.703   6.983   7.560 -1.2901  0.9503  0.6930
 5708SOL    HW217959   0.599   6.963   7.452 -0.4755 -0.1874  0.0929
 5709SOL     OW17960   2.961   1.317   1.384 -0.6669 -0.3903 -0.4231
 5709SOL    HW117961   2.939   1.363   1.465 -2.3150  1.7765 -2.0120
 5709SOL    HW217962   2.919   1.231   1.394  1.1687 -1.1519  1.9312
 5710SOL     OW17963   2.165   6.579   3.995 -0.0780  0.2711 -0.5088
 5710SOL    HW117964   2.073   6.596   3.978 -1.2315 -2.1153  2.4350
 5710SOL    HW217965   2.194   6.653   4.048  0.1045  1.6174 -2.4212
 5711SOL     OW17966   7.015   3.860   5.802  0.0148  0.6482 -0.3937
 5711SOL    HW117967   6.979   3.862   5.714 -2.1751 -0.4534  0.4081
 5711SOL    HW217968   7.070   3.782   5.804 -1.0650 -0.1356 -0.4131
 5712SOL     OW17969   4.987   6.082   0.410  0.5771  0.1687 -0.2042
 5712SOL    HW117970   4.915   6.065   0.350  0.9555 -1.4269 -0.2710
 5712SOL    HW217971   4.979   6.174   0.433 -0.3699  0.4773 -1.6518
 5713SOL     OW17972   4.381   0.182   1.588 -0.7078  0.3106  0.0355
 5713SOL    HW117973   4.313   0.203   1.523  0.4462  0.7869 -1.0703
 5713SOL    HW217974   4.352   0.225   1.668 -1.1523  1.5091 -0.7300
 5714SOL     OW17975   6.728   4.538   3.999 -0.1273 -0.0213  0.4015
 5714SOL    HW117976   6.657   4.551   4.062  0.2815 -1.0264  1.0936
 5714SOL    HW217977   6.805   4.574   4.042 -0.0535  0.3028  0.0023
 5715SOL     OW17978   1.583   1.929   5.275 -0.0602  0.1257 -0.1862
 5715SOL    HW117979   1.588   1.916   5.370 -0.4687 -0.5596 -0.2534
 5715SOL    HW217980   1.604   1.843   5.238  0.0465  0.3761 -0.7189
 5716SOL     OW17981   6.354   4.562   1.621  0.2533  0.2810  0.0877
 5716SOL    HW117982   6.354   4.657   1.616  0.4140  0.2875  0.1756
 5716SOL    HW217983   6.440   4.540   1.658  0.5026  0.0651 -0.6041
 5717SOL     OW17984   5.831   7.438   4.420  0.5131 -0.4192  1.4894
 5717SOL    HW117985   5.736   7.438   4.412  0.5622 -0.4194  0.8437
 5717SOL    HW217986   5.859   7.521   4.381  0.7387 -0.1255  2.2556
 5718SOL     OW17987   0.269   2.003   6.220 -0.2506 -0.7989 -0.3197
 5718SOL    HW117988   0.326   1.931   6.249  1.1636 -0.3073 -1.7453
 5718SOL    HW217989   0.285   2.073   6.284  1.3915 -0.3880 -1.1354
 5719SOL     OW17990   4.361   6.727   1.653  0.3156  0.2493  0.3614
 5719SOL    HW117991   4.375   6.730   1.748 -1.0140  2.2631  0.5374
 5719SOL    HW217992   4.289   6.665   1.642  2.1446 -2.0355  0.3538
 5720SOL     OW17993   4.966   6.879   2.234  0.3972  0.2380 -0.6682
 5720SOL    HW117994   5.040   6.939   2.235 -0.3507  1.2329 -1.6344
 5720SOL    HW217995   4.889   6.936   2.226 -0.5767 -0.6892  1.4077
 5721SOL     OW17996   7.117   6.793   0.431  0.3100 -0.1039 -0.3315
 5721SOL    HW117997   7.061   6.862   0.394  0.5565  1.2302  1.6364
 5721SOL    HW217998   7.192   6.840   0.467  0.4079 -1.3625  1.2188
 5722SOL     OW17999   0.467   6.555   2.677 -0.1752 -0.0746  0.4560
 5722SOL    HW118000   0.563   6.556   2.678 -0.0929 -1.4280 -1.1568
 5722SOL    HW218001   0.444   6.507   2.597 -2.2201  1.6129 -0.0726
 5723SOL     OW18002   5.780   0.118   1.062 -0.2656 -0.2834  0.7871
 5723SOL    HW118003   5.685   0.133   1.066 -0.1148  0.6033  1.2772
 5723SOL    HW218004   5.818   0.196   1.101  0.7403  0.1893 -1.0420
 5724SOL     OW18005   2.965   7.791   5.702  0.4282  0.5708  0.7403
 5724SOL    HW118006   2.956   7.757   5.791  0.6804 -0.1200  0.5108
 5724SOL    HW218007   2.949   7.715   5.646  0.1826  1.0189  0.1896
 5725SOL     OW18008   1.709   0.871   4.390 -0.3070 -0.0712  0.3920
 5725SOL    HW118009   1.731   0.856   4.298  0.2884 -0.1562  0.5466
 5725SOL    HW218010   1.736   0.962   4.406 -1.5535  0.3587  0.1503
 5726SOL     OW18011   4.795   6.359   2.232 -0.2723  0.4580 -0.2060
 5726SOL    HW118012   4.765   6.361   2.323 -0.1889  0.0121 -0.1675
 5726SOL    HW218013   4.753   6.282   2.194 -0.9918  1.1223 -0.7897
 5727SOL     OW18014   5.629   2.288   3.195 -0.0342 -0.4910  0.4434
 5727SOL    HW118015   5.678   2.251   3.269 -1.1756 -2.8261  0.1111
 5727SOL    HW218016   5.552   2.329   3.236  0.6950  0.6236  0.7322
 5728SOL     OW18017   0.256   5.980   3.974 -0.1022  0.9289 -0.7244
 5728SOL    HW118018   0.259   5.907   4.035  0.5942  0.5956 -1.1436
 5728SOL    HW218019   0.275   6.057   4.028 -0.7876  0.8013 -0.2933
 5729SOL     OW18020   2.708   7.742   1.508  0.1059 -0.1817  0.3966
 5729SOL    HW118021   2.710   7.746   1.604 -1.7727 -1.4360  0.5407
 5729SOL    HW218022   2.766   7.669   1.485 -0.3783 -0.6591  0.6715
 5730SOL     OW18023   6.781   6.201   6.948  0.0023 -0.1103 -0.5846
 5730SOL    HW118024   6.813   6.228   6.862  0.8960 -0.8350 -0.4963
 5730SOL    HW218025   6.834   6.124   6.970 -0.8863 -0.5150  0.1865
 5731SOL     OW18026   3.526   5.761   4.846  0.9903 -0.2022 -0.2148
 5731SOL    HW118027   3.505   5.740   4.755  2.3671 -1.0377 -0.3526
 5731SOL    HW218028   3.594   5.828   4.841 -1.4844  2.5988  0.2398
 5732SOL     OW18029   7.559   4.633   6.006 -0.5608 -0.1564  0.2451
 5732SOL    HW118030   7.511   4.566   5.957 -0.2811  1.2582 -2.1061
 5732SOL    HW218031   7.493   4.697   6.030 -0.6852 -0.8081  1.7744
 5733SOL     OW18032   3.580   1.798   2.039  0.2318 -0.2843  0.3041
 5733SOL    HW118033   3.663   1.762   2.071  0.4932  1.1431  1.3210
 5733SOL    HW218034   3.582   1.889   2.065 -1.9243 -0.3426  0.8363
 5734SOL     OW18035   6.018   0.856   4.491  0.6119 -0.6672  0.2729
 5734SOL    HW118036   6.007   0.944   4.526  0.7462 -1.2690  1.9161
 5734SOL    HW218037   6.098   0.862   4.439  1.6686 -0.2189  1.8664
 5735SOL     OW18038   4.238   3.931   0.505 -0.1984  0.0915 -0.4552
 5735SOL    HW118039   4.216   3.860   0.566  2.3731 -1.2900 -1.0310
 5735SOL    HW218040   4.258   3.887   0.423  1.6975  1.4488 -0.7714
 5736SOL     OW18041   7.339   0.083   2.893  0.1066 -0.0412 -0.2996
 5736SOL    HW118042   7.401   0.084   2.820 -1.5683  2.6785 -1.8296
 5736SOL    HW218043   7.265   0.032   2.861 -0.2284  0.3293 -0.1197
 5737SOL     OW18044   3.318   0.164   3.925 -0.2578  0.0759 -0.3422
 5737SOL    HW118045   3.331   0.071   3.906  0.7712  0.0016  0.6077
 5737SOL    HW218046   3.263   0.165   4.004  0.6555  0.2235  0.3159
 5738SOL     OW18047   4.313   7.724   3.849  0.2254  0.5214 -0.0029
 5738SOL    HW118048   4.294   7.706   3.757 -0.5929  1.1751  0.0263
 5738SOL    HW218049   4.398   7.768   3.848  0.0781  0.8029 -0.4763
 5739SOL     OW18050   0.778   5.159   2.710  0.2376 -0.0124 -0.5048
 5739SOL    HW118051   0.812   5.137   2.623  0.2918 -1.9937 -0.0444
 5739SOL    HW218052   0.856   5.172   2.764  0.2051  0.8705 -0.6574
 5740SOL     OW18053   5.198   2.678   3.238  0.1262  0.7744  0.5853
 5740SOL    HW118054   5.142   2.612   3.280 -0.3782  0.0164 -1.1754
 5740SOL    HW218055   5.144   2.713   3.167  1.6372  0.5058 -0.7485
 5741SOL     OW18056   1.167   4.692   6.325  0.3365 -0.0119  0.2893
 5741SOL    HW118057   1.098   4.644   6.279 -0.6330 -0.7991  2.4141
 5741SOL    HW218058   1.151   4.784   6.304 -1.0177 -0.2350  0.2860
 5742SOL     OW18059   7.766   0.100   3.625  0.2352  0.8153 -0.1357
 5742SOL    HW118060   7.744   0.090   3.533  0.6088  1.3118 -0.2866
 5742SOL    HW218061   7.826   0.175   3.627 -1.2671  2.0441  0.7292
 5743SOL     OW18062   5.992   7.397   7.002 -0.0882 -0.5059  0.4977
 5743SOL    HW118063   6.038   7.474   6.971 -2.8027  1.4548  0.9811
 5743SOL    HW218064   5.960   7.354   6.922 -0.9068  0.4797  0.2694
 5744SOL     OW18065   2.948   3.091   0.825  0.1612 -0.0473 -0.3961
 5744SOL    HW118066   2.897   3.113   0.747  0.0738 -1.0272 -0.6263
 5744SOL    HW218067   3.025   3.046   0.792  0.9547  0.9798 -0.0113
 5745SOL     OW18068   5.097   5.412   4.602  0.3815 -0.3220 -0.1186
 5745SOL    HW118069   5.162   5.448   4.662  1.0710  0.8853 -1.5421
 5745SOL    HW218070   5.147   5.361   4.539 -0.3121 -1.3682  0.1439
 5746SOL     OW18071   3.638   7.168   7.929  0.2290 -0.0529 -0.2894
 5746SOL    HW118072   3.680   7.248   7.963  0.3976 -0.3862  0.3070
 5746SOL    HW218073   3.711   7.116   7.896  0.0258  0.4544 -1.5939
 5747SOL     OW18074   3.312   4.133   7.454 -0.3804  0.1941  0.5535
 5747SOL    HW118075   3.406   4.119   7.463 -0.4565 -0.3289  0.5894
 5747SOL    HW218076   3.283   4.164   7.539 -0.3075 -0.0592  0.6719
 5748SOL     OW18077   7.683   0.555   4.079 -0.1784  0.6489  0.0072
 5748SOL    HW118078   7.672   0.548   3.984  0.6786 -2.6401  0.0479
 5748SOL    HW218079   7.625   0.627   4.104 -0.5953  1.4962 -2.9417
 5749SOL     OW18080   2.101   3.144   3.454 -0.8882  0.1330  0.0989
 5749SOL    HW118081   2.067   3.157   3.543 -0.9336  0.0493  0.0943
 5749SOL    HW218082   2.031   3.097   3.409 -0.7535 -0.0653  0.0971
 5750SOL     OW18083   6.903   1.469   4.692  0.8766  0.0084 -0.2863
 5750SOL    HW118084   6.952   1.423   4.760  1.1210 -0.2320 -0.6246
 5750SOL    HW218085   6.966   1.529   4.653  1.2178 -1.0666 -1.4557
 5751SOL     OW18086   4.812   3.337   1.140 -0.5160 -0.1227  0.1774
 5751SOL    HW118087   4.841   3.428   1.138 -0.3827 -0.1403  1.1603
 5751SOL    HW218088   4.869   3.293   1.077 -1.3868  0.6880 -1.2310
 5752SOL     OW18089   7.530   3.516   3.301  0.2927  0.2988  0.4663
 5752SOL    HW118090   7.560   3.520   3.392  0.5508  0.5454  0.3717
 5752SOL    HW218091   7.470   3.590   3.292  1.3514  1.1229  0.0501
 5753SOL     OW18092   6.473   6.953   4.470  0.6218 -0.1866 -1.1616
 5753SOL    HW118093   6.485   6.863   4.503  0.7120 -0.0670 -0.8646
 5753SOL    HW218094   6.398   6.947   4.412  0.4832 -0.4115 -0.9609
 5754SOL     OW18095   1.977   4.043   2.813  0.1603 -0.4594  0.4777
 5754SOL    HW118096   1.977   4.000   2.728  3.1669 -0.1074  0.2010
 5754SOL    HW218097   2.001   4.134   2.794 -0.6348  0.0114  1.5769
 5755SOL     OW18098   5.245   5.575   2.813 -0.4768 -0.2447  0.4104
 5755SOL    HW118099   5.282   5.487   2.807  0.6429  0.2777 -0.7405
 5755SOL    HW218100   5.319   5.632   2.834 -1.2470  0.3987  1.4849
 5756SOL     OW18101   7.141   1.508   0.605  0.1044  0.7588  0.1136
 5756SOL    HW118102   7.107   1.446   0.670  0.1173  1.3646  0.7079
 5756SOL    HW218103   7.130   1.463   0.521 -0.2889  0.1306  0.4928
 5757SOL     OW18104   0.988   1.656   7.432 -0.2082 -0.2382  0.1542
 5757SOL    HW118105   1.027   1.692   7.512 -2.0701  1.2056  0.5204
 5757SOL    HW218106   1.054   1.668   7.365  0.7534  0.1514  1.1454
 5758SOL     OW18107   0.433   5.679   6.920  0.2777 -0.1829 -0.6897
 5758SOL    HW118108   0.443   5.763   6.965  0.7894 -0.8991  0.5667
 5758SOL    HW218109   0.377   5.627   6.978 -0.9047 -0.3791 -1.9490
 5759SOL     OW18110   7.940   2.237   7.247 -0.0824 -0.2276 -0.0910
 5759SOL    HW118111   8.027   2.262   7.216 -0.3973  1.3849  0.2729
 5759SOL    HW218112   7.944   2.249   7.342 -0.8636  0.4124 -0.1299
 5760SOL     OW18113   2.073   4.367   2.984 -0.0883 -0.1726 -0.1668
 5760SOL    HW118114   2.158   4.410   2.986  0.6807 -1.6657  0.3528
 5760SOL    HW218115   2.072   4.319   2.901 -1.3761  1.5967 -1.2618
 5761SOL     OW18116   4.508   4.490   5.260  0.0548  0.2688 -0.1064
 5761SOL    HW118117   4.463   4.491   5.344 -1.4905 -1.4331 -0.8478
 5761SOL    HW218118   4.589   4.441   5.276 -0.5971 -0.7156  0.2251
 5762SOL     OW18119   0.979   1.127   3.433  0.1884  0.2322  0.2620
 5762SOL    HW118120   1.071   1.116   3.408  1.5753 -0.2184  4.6609
 5762SOL    HW218121   0.966   1.222   3.437  0.2628  0.2992 -0.8836
 5763SOL     OW18122   3.758   5.477   4.155  0.0532 -0.6329  0.2145
 5763SOL    HW118123   3.797   5.513   4.235 -0.0600 -1.5252  0.6852
 5763SOL    HW218124   3.665   5.500   4.161 -0.0393 -1.0880  0.5671
 5764SOL     OW18125   3.196   0.326   7.880  0.3156  0.2396 -0.1667
 5764SOL    HW118126   3.279   0.311   7.834  1.3404  1.1407  1.2759
 5764SOL    HW218127   3.168   0.239   7.907 -0.2188 -0.2858 -2.2638
 5765SOL     OW18128   0.947   0.125   4.272  0.1603  0.1444 -0.1205
 5765SOL    HW118129   1.010   0.061   4.306  1.8994  0.4080 -2.6320
 5765SOL    HW218130   0.946   0.110   4.178  0.3899  3.5568 -0.7915
 5766SOL     OW18131   1.851   1.061   6.795 -0.2721 -0.2332 -0.2108
 5766SOL    HW118132   1.837   1.128   6.728 -0.5270  0.7090  0.7601
 5766SOL    HW218133   1.934   1.085   6.836 -0.1999 -0.7095 -0.0679
 5767SOL     OW18134   5.511   2.368   0.417  0.1630 -0.0734 -0.1718
 5767SOL    HW118135   5.576   2.324   0.472  0.6947  1.0697  0.1443
 5767SOL    HW218136   5.459   2.296   0.379 -0.6325 -0.9232  2.2693
 5768SOL     OW18137   0.791   6.713   5.449 -0.4308 -0.4303 -0.0082
 5768SOL    HW118138   0.732   6.680   5.382 -0.0260 -0.5163 -0.3248
 5768SOL    HW218139   0.878   6.685   5.421 -0.3510 -1.2709  1.0271
 5769SOL     OW18140   0.271   3.688   5.412 -0.2306  0.7092  0.2726
 5769SOL    HW118141   0.249   3.638   5.491  2.7653 -1.9973 -0.3700
 5769SOL    HW218142   0.334   3.753   5.441 -0.9514  1.3475  0.4412
 5770SOL     OW18143   3.444   2.884   7.786 -0.1005 -0.3111  0.1384
 5770SOL    HW118144   3.379   2.829   7.829  1.0156 -0.4435  1.7354
 5770SOL    HW218145   3.490   2.825   7.727  1.3236 -1.2743  2.0936
 5771SOL     OW18146   6.647   0.177   2.895  0.4437  0.2810  0.0016
 5771SOL    HW118147   6.597   0.148   2.818 -0.6606  1.0498  0.3948
 5771SOL    HW218148   6.667   0.269   2.877 -0.2484  0.6074  0.8207
 5772SOL     OW18149   1.150   5.584   4.806 -0.0740  0.1646 -0.3298
 5772SOL    HW118150   1.207   5.660   4.799 -0.8736  0.9171  0.8544
 5772SOL    HW218151   1.201   5.512   4.769  0.9767  1.1297 -0.8265
 5773SOL     OW18152   5.350   1.402   5.050  0.2544  0.2593 -0.4165
 5773SOL    HW118153   5.281   1.469   5.052  0.5878  0.6770 -1.9027
 5773SOL    HW218154   5.343   1.363   4.963 -0.1193 -1.8828  0.4969
 5774SOL     OW18155   4.729   4.556   5.617 -0.0724  0.3463 -0.3666
 5774SOL    HW118156   4.705   4.487   5.555  0.4780 -1.2583  1.1067
 5774SOL    HW218157   4.649   4.571   5.667 -0.1260  0.5946 -0.5290
 5775SOL     OW18158   1.900   7.456   5.354  0.0571  0.2519  0.1354
 5775SOL    HW118159   1.963   7.465   5.425  0.0517  1.1458  0.0433
 5775SOL    HW218160   1.942   7.498   5.279 -0.3131  0.1368 -0.1403
 5776SOL     OW18161   7.665   3.103   0.470 -0.3866  0.2606 -0.0956
 5776SOL    HW118162   7.620   3.050   0.535  1.1386  2.4251  2.9469
 5776SOL    HW218163   7.614   3.184   0.465  1.5685  1.6728  1.4303
 5777SOL     OW18164   6.836   1.089   6.474  0.0028  0.1801 -0.3997
 5777SOL    HW118165   6.834   1.151   6.547  0.9994  2.0866 -1.8914
 5777SOL    HW218166   6.922   1.049   6.479 -0.0270  0.1197 -0.3718
 5778SOL     OW18167   0.231   1.647   5.189 -0.1434  0.0861 -0.6093
 5778SOL    HW118168   0.137   1.648   5.206  0.0702 -0.6819  0.7358
 5778SOL    HW218169   0.255   1.740   5.188 -0.8949  0.2865 -0.8611
 5779SOL     OW18170   0.524   5.103   6.360 -0.0905 -0.0180  0.0555
 5779SOL    HW118171   0.574   5.168   6.410 -0.8585  2.1525 -1.8417
 5779SOL    HW218172   0.560   5.107   6.272 -0.0492 -2.3647 -0.0906
 5780SOL     OW18173   3.352   5.931   2.138 -0.0069 -0.0266 -0.7199
 5780SOL    HW118174   3.399   5.896   2.214 -1.1880 -2.2940 -0.9537
 5780SOL    HW218175   3.324   5.854   2.090 -1.5426  1.3132 -2.0874
 5781SOL     OW18176   3.796   7.599   4.354  1.0053 -0.2655  0.2007
 5781SOL    HW118177   3.815   7.537   4.425  0.9117  0.8355  1.2069
 5781SOL    HW218178   3.872   7.657   4.352 -0.0909  1.2399  1.0756
 5782SOL     OW18179   1.549   2.538   0.381 -0.4320 -0.7318 -0.3314
 5782SOL    HW118180   1.514   2.622   0.350 -0.5333 -0.0135  1.5694
 5782SOL    HW218181   1.636   2.532   0.344 -0.2093  0.5101 -0.0450
 5783SOL     OW18182   1.975   7.489   6.190  0.2116  0.1151  0.0598
 5783SOL    HW118183   1.996   7.567   6.241  1.3420  0.2049 -0.5071
 5783SOL    HW218184   1.961   7.420   6.255  1.4002  0.2797  0.5059
 5784SOL     OW18185   3.535   1.629   4.209  0.2490  0.2931  0.6118
 5784SOL    HW118186   3.462   1.569   4.225 -0.1259  0.0333 -1.7126
 5784SOL    HW218187   3.592   1.618   4.285  0.3908 -3.3352  0.1433
 5785SOL     OW18188   1.063   7.234   7.699 -0.1767 -0.2528 -0.2673
 5785SOL    HW118189   1.140   7.181   7.721  0.1808  0.8906  1.4788
 5785SOL    HW218190   1.099   7.311   7.656 -0.3396  0.1858  0.3621
 5786SOL     OW18191   7.610   1.994   2.944  0.1248  0.1213  0.5253
 5786SOL    HW118192   7.620   2.072   2.888  0.8316 -0.8326 -0.7379
 5786SOL    HW218193   7.601   2.030   3.032  1.3038  1.6293  0.0955
 5787SOL     OW18194   5.603   7.781   4.239  0.0744  0.2001 -0.2142
 5787SOL    HW118195   5.613   7.783   4.334 -0.3129  0.1726 -0.1718
 5787SOL    HW218196   5.678   7.830   4.206  0.2803  0.1016  0.1005
 5788SOL     OW18197   3.212   0.906   0.029 -0.1719  0.2346 -0.7221
 5788SOL    HW118198   3.268   0.982   0.013  1.0757 -0.0035  1.9002
 5788SOL    HW218199   3.265   0.831  -0.000  0.4127  0.1136  0.5543
 5789SOL     OW18200   4.503   1.238   3.819 -0.8950 -0.4822  0.5560
 5789SOL    HW118201   4.499   1.331   3.796  0.4698 -0.3023  0.9236
 5789SOL    HW218202   4.516   1.237   3.914 -0.0091 -0.9956  0.4478
 5790SOL     OW18203   4.937   4.329   3.528 -0.2516 -0.0994 -0.4024
 5790SOL    HW118204   4.885   4.371   3.596 -0.1070  1.6329 -1.3076
 5790SOL    HW218205   4.935   4.391   3.455  0.3571 -1.4938 -1.6384
 5791SOL     OW18206   4.440   7.400   5.138  0.5146  0.0001 -0.5681
 5791SOL    HW118207   4.466   7.340   5.068 -0.2859  0.0257 -0.8951
 5791SOL    HW218208   4.431   7.344   5.215  0.2278 -0.2271 -0.7656
 5792SOL     OW18209   7.858   2.944   0.779 -0.4338  0.3462 -0.0429
 5792SOL    HW118210   7.806   2.864   0.781 -0.8493  0.5997 -0.4714
 5792SOL    HW218211   7.925   2.931   0.846 -0.5590 -0.3168 -0.0376
 5793SOL     OW18212   4.289   4.135   6.977 -0.2041 -0.6093 -0.2868
 5793SOL    HW118213   4.335   4.055   6.952  1.1474 -0.7592  2.3005
 5793SOL    HW218214   4.257   4.117   7.066 -0.6698  1.3942 -0.0058
 5794SOL     OW18215   5.038   6.876   7.232 -0.0404  0.4010 -0.0705
 5794SOL    HW118216   5.091   6.923   7.168  1.8379  1.4558  2.0987
 5794SOL    HW218217   5.096   6.805   7.263 -0.6434  0.2969  0.8683
 5795SOL     OW18218   2.785   3.209   7.103 -0.3570 -0.2222  0.2464
 5795SOL    HW118219   2.712   3.193   7.044 -2.5220  1.4407  2.2784
 5795SOL    HW218220   2.752   3.275   7.165  1.6927 -1.8098  3.3222
 5796SOL     OW18221   0.294   1.705   7.873  0.1886  0.1760  0.7602
 5796SOL    HW118222   0.267   1.787   7.914 -0.5744  0.8147 -0.9618
 5796SOL    HW218223   0.313   1.728   7.782  1.9875 -1.1771  0.7245
 5797SOL     OW18224   7.258   0.875   7.508 -0.3678 -0.0649  0.6369
 5797SOL    HW118225   7.229   0.844   7.594  1.5868  3.7147  2.8853
 5797SOL    HW218226   7.346   0.838   7.497 -0.3946 -0.0855  0.4834
 5798SOL     OW18227   4.520   1.083   6.352  0.5457  0.6903 -0.4861
 5798SOL    HW118228   4.446   1.032   6.318  2.2943 -0.6101 -2.7045
 5798SOL    HW218229   4.538   1.044   6.437 -0.8102  0.5025 -0.2531
 5799SOL     OW18230   1.304   2.626   6.622  0.0122 -0.0304 -0.1541
 5799SOL    HW118231   1.386   2.585   6.595  0.4075  1.6684 -1.7911
 5799SOL    HW218232   1.237   2.577   6.574  0.2372 -0.3127 -0.1862
 5800SOL     OW18233   6.089   2.242   4.842  0.0291  0.2354  0.1462
 5800SOL    HW118234   6.047   2.213   4.922 -0.3262 -1.5421 -0.6300
 5800SOL    HW218235   6.177   2.205   4.846 -0.0749 -0.0885 -0.3747
 5801SOL     OW18236   6.974   5.510   6.503  0.2466  0.2964  0.0192
 5801SOL    HW118237   7.018   5.426   6.510  0.3318  0.4265  1.1355
 5801SOL    HW218238   7.030   5.563   6.446  0.7853 -0.0187  0.2590
 5802SOL     OW18239   6.887   6.476   4.315 -0.0601  0.1475  0.4322
 5802SOL    HW118240   6.836   6.556   4.306  1.3793  1.3322  2.1720
 5802SOL    HW218241   6.934   6.468   4.231 -0.4749  0.9405  0.1161
 5803SOL     OW18242   7.751   1.322   1.048  0.0887 -0.0432 -0.8135
 5803SOL    HW118243   7.789   1.242   1.011 -2.1774 -0.6283 -2.1253
 5803SOL    HW218244   7.660   1.321   1.017 -1.8084 -0.0070  3.9405
 5804SOL     OW18245   2.286   0.996   2.326  0.4448 -0.2004  0.9366
 5804SOL    HW118246   2.230   0.923   2.350 -0.0408  0.3137  1.3752
 5804SOL    HW218247   2.373   0.957   2.313  0.3459 -0.7430  1.8682
 5805SOL     OW18248   0.088   1.349   1.673  0.2163  0.3118 -0.0155
 5805SOL    HW118249   0.056   1.379   1.587 -2.6737 -1.6445  0.2177
 5805SOL    HW218250   0.128   1.264   1.655  0.2472  0.2206  0.4785
 5806SOL     OW18251   2.769   2.811   3.775 -0.3846  0.6935 -0.0041
 5806SOL    HW118252   2.736   2.804   3.864  0.3076  0.1826  0.2206
 5806SOL    HW218253   2.722   2.743   3.727 -0.7874  0.9954 -0.0467
 5807SOL     OW18254   6.908   7.908   0.506  0.3440 -0.0244  0.6561
 5807SOL    HW118255   6.910   7.868   0.419 -1.0783 -1.2772  1.1527
 5807SOL    HW218256   6.954   7.847   0.562  1.3280  0.8220  0.7921
 5808SOL     OW18257   3.912   3.699   3.749 -0.8681  0.4371 -0.3429
 5808SOL    HW118258   3.845   3.668   3.688 -3.3244  1.4000  1.6888
 5808SOL    HW218259   3.967   3.623   3.766 -2.6432 -0.9628 -0.5999
 5809SOL     OW18260   2.239   5.216   4.576  0.4909 -0.1423 -0.4330
 5809SOL    HW118261   2.279   5.146   4.628 -0.0644  0.3330  0.6915
 5809SOL    HW218262   2.257   5.295   4.627  1.2641  0.5619 -1.7715
 5810SOL     OW18263   7.840   5.838   2.052 -0.0110 -0.1055  0.0101
 5810SOL    HW118264   7.811   5.750   2.076  1.4006 -0.6917 -0.3121
 5810SOL    HW218265   7.831   5.889   2.132 -0.8240 -0.5343  0.2058
 5811SOL     OW18266   3.805   2.277   5.996 -1.0424  0.1837  0.3197
 5811SOL    HW118267   3.767   2.307   6.079 -0.1099 -0.3936  0.9759
 5811SOL    HW218268   3.896   2.307   5.999 -0.3900 -1.6752  0.4944
 5812SOL     OW18269   4.323   3.826   0.086 -0.0477  0.8571 -0.3611
 5812SOL    HW118270   4.233   3.828   0.056  0.4666  0.4260 -2.0551
 5812SOL    HW218271   4.369   3.771   0.023  1.3352  0.7546  0.6675
 5813SOL     OW18272   3.727   6.205   4.670  0.1405  0.2848  0.2631
 5813SOL    HW118273   3.636   6.200   4.639 -0.1375  0.6436  0.9703
 5813SOL    HW218274   3.780   6.190   4.593 -0.5193  1.1489 -0.3822
 5814SOL     OW18275   2.271   6.559   4.668  0.0213  0.1182  0.0825
 5814SOL    HW118276   2.344   6.561   4.606 -0.3949 -0.5444 -0.4479
 5814SOL    HW218277   2.252   6.466   4.680  1.7944  0.0345  3.2670
 5815SOL     OW18278   4.939   0.635   5.629 -0.4483  0.1022  0.2733
 5815SOL    HW118279   4.887   0.715   5.627  0.8832  0.9980 -1.3177
 5815SOL    HW218280   5.001   0.648   5.701 -0.6260  0.2269  0.4033
 5816SOL     OW18281   0.837   5.490   3.784  0.5148  0.3825  0.0141
 5816SOL    HW118282   0.925   5.469   3.752  1.3855  0.8562  1.9563
 5816SOL    HW218283   0.846   5.578   3.823 -0.3237 -0.3017  1.8708
 5817SOL     OW18284   4.058   4.814   3.386 -0.2669  0.1563  0.0190
 5817SOL    HW118285   4.150   4.786   3.380 -0.5325 -0.7993  0.2536
 5817SOL    HW218286   4.063   4.905   3.413  0.6209  0.1669 -0.1388
 5818SOL     OW18287   7.674   4.349   4.324 -0.1201 -0.4350 -0.6398
 5818SOL    HW118288   7.734   4.419   4.303 -0.2176 -0.4937 -1.1189
 5818SOL    HW218289   7.711   4.308   4.402 -1.8040  2.2615  1.7691
 5819SOL     OW18290   1.630   1.216   5.909  0.3383  0.2833 -0.0522
 5819SOL    HW118291   1.565   1.185   5.973  0.2196  0.6516  0.0085
 5819SOL    HW218292   1.591   1.197   5.824 -0.2546  1.3022 -0.0281
 5820SOL     OW18293   7.907   7.870   4.831 -0.0304 -0.0444 -0.2174
 5820SOL    HW118294   7.999   7.849   4.848  0.2280 -0.1103 -1.5868
 5820SOL    HW218295   7.894   7.954   4.874  0.2087 -0.7661  1.3477
 5821SOL     OW18296   0.359   5.991   2.089 -0.0012 -0.0416 -0.0353
 5821SOL    HW118297   0.379   5.899   2.103 -1.7617 -0.8967 -2.4612
 5821SOL    HW218298   0.441   6.029   2.060  0.4354 -1.1525 -0.3015
 5822SOL     OW18299   1.273   4.273   0.945 -0.2124 -0.1025  0.1503
 5822SOL    HW118300   1.198   4.251   1.000 -0.9657  0.1723 -0.7295
 5822SOL    HW218301   1.294   4.192   0.899 -1.2536  0.2944 -1.0729
 5823SOL     OW18302   4.742   5.357   5.979  0.1992  0.0900  0.0276
 5823SOL    HW118303   4.676   5.411   6.022  0.1011  0.3644 -0.4617
 5823SOL    HW218304   4.826   5.392   6.009  0.1293  0.2075  0.0863
 5824SOL     OW18305   5.006   5.371   7.673 -0.0255  0.3564 -0.5744
 5824SOL    HW118306   5.057   5.291   7.687  1.8103  1.2552 -1.7483
 5824SOL    HW218307   5.070   5.442   7.681 -1.8580  1.8999  1.9512
 5825SOL     OW18308   3.534   2.522   7.737 -0.0071  0.6216 -0.0102
 5825SOL    HW118309   3.454   2.496   7.781  0.3095 -0.6516 -0.1596
 5825SOL    HW218310   3.514   2.513   7.644 -0.1035  1.5809 -0.0904
 5826SOL     OW18311   4.447   2.387   7.738 -0.1755 -0.5120 -0.3211
 5826SOL    HW118312   4.445   2.367   7.645  0.5137  1.2958 -0.7464
 5826SOL    HW218313   4.539   2.397   7.759 -0.3144 -1.0423  0.6104
 5827SOL     OW18314   4.661   0.067   0.259  0.1284 -0.0212 -0.5529
 5827SOL    HW118315   4.687   0.157   0.238 -2.2658  0.1043 -3.6042
 5827SOL    HW218316   4.626   0.072   0.348 -0.4271  2.1670 -0.8460
 5828SOL     OW18317   3.421   7.228   6.173 -0.1636 -0.3616  0.2704
 5828SOL    HW118318   3.450   7.193   6.257 -0.3569  1.7153  1.2583
 5828SOL    HW218319   3.338   7.271   6.192 -0.3768 -0.1253 -1.0732
 5829SOL     OW18320   7.152   4.108   2.140  0.0347  0.8095  0.5422
 5829SOL    HW118321   7.096   4.183   2.120  3.3449  3.5020  0.3155
 5829SOL    HW218322   7.183   4.124   2.229  2.6115  1.0727 -0.3260
 5830SOL     OW18323   4.453   3.986   7.389 -0.1404 -0.0822  0.6794
 5830SOL    HW118324   4.382   3.921   7.391 -0.0723 -0.1540  0.7565
 5830SOL    HW218325   4.418   4.060   7.438  0.1478 -0.4372  1.4428
 5831SOL     OW18326   7.471   0.482   6.819 -0.4407  0.2279 -0.6670
 5831SOL    HW118327   7.486   0.477   6.913 -1.8554 -0.1351 -0.4446
 5831SOL    HW218328   7.517   0.405   6.784  1.8167  1.4447 -0.5577
 5832SOL     OW18329   3.099   1.862   2.125  0.3631 -0.1684 -0.1447
 5832SOL    HW118330   3.142   1.917   2.060 -1.0590  0.4436 -0.6135
 5832SOL    HW218331   3.090   1.777   2.083  1.0097 -0.2741 -0.0755
 5833SOL     OW18332   6.324   3.574   6.901 -1.0574 -0.2645 -0.6767
 5833SOL    HW118333   6.294   3.663   6.884 -2.8618 -0.4303  1.1932
 5833SOL    HW218334   6.367   3.579   6.987 -0.7422 -1.1046 -0.7707
 5834SOL     OW18335   7.899   1.542   5.238  0.1574 -0.0180 -0.6014
 5834SOL    HW118336   7.823   1.588   5.274 -0.9875 -1.0306 -1.6403
 5834SOL    HW218337   7.880   1.450   5.251  1.0955 -0.3038 -1.1363
 5835SOL     OW18338   5.645   6.838   7.452  0.2165 -0.0251  0.5175
 5835SOL    HW118339   5.735   6.827   7.482  0.7888  0.1032 -1.0360
 5835SOL    HW218340   5.615   6.748   7.436  0.8853 -0.0087 -1.0973
 5836SOL     OW18341   2.961   0.897   0.913  0.3977  0.1235 -0.0635
 5836SOL    HW118342   2.981   0.858   0.998  1.3825  1.5341  0.3891
 5836SOL    HW218343   3.046   0.923   0.877 -0.0322 -0.1858 -1.3650
 5837SOL     OW18344   0.939   1.203   7.501  0.1433  0.6693 -0.0593
 5837SOL    HW118345   0.895   1.281   7.467 -0.5741 -0.0170 -0.7303
 5837SOL    HW218346   0.877   1.165   7.563 -0.2903 -0.3595 -1.0857
 5838SOL     OW18347   3.405   1.369   4.527 -0.1114  0.6003 -0.0269
 5838SOL    HW118348   3.424   1.374   4.620 -1.4842  2.1607  0.2251
 5838SOL    HW218349   3.373   1.280   4.514  1.6259 -0.1531  0.6455
 5839SOL     OW18350   5.142   1.580   3.657 -0.8912  0.3629  0.3993
 5839SOL    HW118351   5.203   1.506   3.663 -0.3144  0.9077  1.5366
 5839SOL    HW218352   5.059   1.545   3.691 -0.9354 -0.0708 -0.1345
 5840SOL     OW18353   7.828   5.319   4.805  0.2292 -0.5413  0.7164
 5840SOL    HW118354   7.759   5.340   4.868 -3.2178 -2.0342 -2.2041
 5840SOL    HW218355   7.850   5.403   4.765  2.0663  0.3371  3.2858
 5841SOL     OW18356   0.407   3.780   2.629  0.3695  0.2774  0.2778
 5841SOL    HW118357   0.462   3.758   2.704  0.3567  0.6802  0.4101
 5841SOL    HW218358   0.434   3.719   2.561 -0.9168 -1.3449  1.1539
 5842SOL     OW18359   2.935   6.949   3.653 -0.1907 -0.6571 -0.2849
 5842SOL    HW118360   2.998   7.016   3.628 -1.0760 -0.5835 -2.6296
 5842SOL    HW218361   2.864   6.998   3.696  0.3822 -0.4607  0.4438
 5843SOL     OW18362   2.088   0.851   0.203 -0.3073  0.0068  0.4627
 5843SOL    HW118363   2.094   0.786   0.133  0.2875 -0.9917  1.3883
 5843SOL    HW218364   2.051   0.802   0.277 -0.7443  0.9816  0.9041
 5844SOL     OW18365   7.055   7.308   7.829 -0.6793  0.0180 -0.1104
 5844SOL    HW118366   7.060   7.386   7.775 -0.1851  0.8842  1.1374
 5844SOL    HW218367   7.006   7.245   7.776 -0.4365  0.9110 -1.4315
 5845SOL     OW18368   7.427   6.853   2.165  0.5375 -0.2609 -0.0327
 5845SOL    HW118369   7.400   6.936   2.204 -0.8880 -0.7480  0.1142
 5845SOL    HW218370   7.490   6.877   2.097  0.1862  0.9393  0.0357
 5846SOL     OW18371   7.685   5.416   7.524  0.0720  0.3166 -0.0848
 5846SOL    HW118372   7.724   5.469   7.454  0.2934 -1.3408 -1.2847
 5846SOL    HW218373   7.627   5.476   7.570 -1.1246  1.1779 -2.5229
 5847SOL     OW18374   7.029   2.886   3.643 -0.1844  0.0454 -0.0491
 5847SOL    HW118375   6.984   2.939   3.576 -1.5870 -1.5982 -0.4846
 5847SOL    HW218376   7.078   2.950   3.695 -2.4600  1.9099 -0.0036
 5848SOL     OW18377   0.170   1.289   7.621  0.2075 -0.4804  0.3861
 5848SOL    HW118378   0.209   1.371   7.650  2.1785 -0.3035 -2.3359
 5848SOL    HW218379   0.083   1.313   7.589  1.1262  0.8243 -1.2930
 5849SOL     OW18380   1.621   4.704   5.680 -0.4042  0.0119 -0.0881
 5849SOL    HW118381   1.607   4.798   5.669 -1.3559 -0.2427 -1.2418
 5849SOL    HW218382   1.533   4.666   5.679 -0.2143 -0.7119  2.5641
 5850SOL     OW18383   4.381   4.430   0.587 -0.5727  0.4585  0.5224
 5850SOL    HW118384   4.462   4.381   0.600 -1.6119 -1.9391 -1.2485
 5850SOL    HW218385   4.312   4.369   0.612 -2.0074  0.2469 -3.2863
 5851SOL     OW18386   7.928   2.177   0.449 -0.0208 -0.3920  0.5356
 5851SOL    HW118387   7.891   2.119   0.382  0.3643 -0.8499  0.7160
 5851SOL    HW218388   8.014   2.140   0.467  0.9462  1.1681 -0.5595
 5852SOL     OW18389   4.803   7.253   3.232 -0.2235  0.4511  0.1356
 5852SOL    HW118390   4.766   7.289   3.152 -0.3929 -0.5095 -0.2342
 5852SOL    HW218391   4.898   7.263   3.221 -0.2500  0.4076 -0.1434
 5853SOL     OW18392   6.073   4.566   4.637 -0.0854  0.2905  0.0200
 5853SOL    HW118393   6.118   4.633   4.585  1.0107  0.3832  1.0347
 5853SOL    HW218394   6.051   4.609   4.719 -1.9846  0.2004 -0.4143
 5854SOL     OW18395   7.690   0.338   2.928 -0.1458  0.8867  0.2653
 5854SOL    HW118396   7.650   0.390   2.858  2.3778  1.3793 -0.9584
 5854SOL    HW218397   7.699   0.400   3.001 -2.5186  0.4528  0.9975
 5855SOL     OW18398   1.530   1.660   5.049  0.4424  0.0972  0.2060
 5855SOL    HW118399   1.438   1.688   5.051 -0.3507 -2.3216  0.4407
 5855SOL    HW218400   1.563   1.694   4.965 -0.6614  0.9195  0.0690
 5856SOL     OW18401   2.462   7.172   7.684 -0.1816  0.3988 -0.4443
 5856SOL    HW118402   2.418   7.122   7.614 -0.2429 -0.0742 -0.0747
 5856SOL    HW218403   2.461   7.262   7.653 -0.3287  0.2132 -0.9981
 5857SOL     OW18404   2.570   3.384   0.822 -0.3821 -0.4814  0.6020
 5857SOL    HW118405   2.501   3.359   0.760 -1.0676  0.5834  0.9049
 5857SOL    HW218406   2.595   3.302   0.865  1.1306 -1.5162 -2.0370
 5858SOL     OW18407   5.228   6.128   4.585 -0.3135 -0.1535 -0.2825
 5858SOL    HW118408   5.134   6.145   4.586  0.0915  2.7766 -1.7708
 5858SOL    HW218409   5.245   6.092   4.498  0.0924  0.7165 -0.5786
 5859SOL     OW18410   6.664   1.389   2.673 -0.3089 -0.1871  0.3594
 5859SOL    HW118411   6.714   1.308   2.677  0.6081  0.3578  0.4477
 5859SOL    HW218412   6.574   1.363   2.689  0.0689 -1.0968  1.1183
 5860SOL     OW18413   3.593   2.677   6.563 -0.0246 -0.1167 -0.6690
 5860SOL    HW118414   3.568   2.767   6.581 -0.1285 -0.2232 -0.2814
 5860SOL    HW218415   3.554   2.657   6.478 -0.1561  0.1421 -0.6673
 5861SOL     OW18416   4.938   4.993   2.632  0.2020 -0.1151 -0.0733
 5861SOL    HW118417   4.934   4.928   2.701  0.6606  0.4113  0.4635
 5861SOL    HW218418   5.008   4.963   2.574  2.0927  1.0818  1.4586
 5862SOL     OW18419   1.363   1.417   4.498  0.4687 -0.5415  0.5787
 5862SOL    HW118420   1.355   1.323   4.480 -2.4920  0.2372 -3.5158
 5862SOL    HW218421   1.451   1.440   4.468  0.2093 -1.5774 -1.0627
 5863SOL     OW18422   1.411   5.275   6.952  0.5811 -0.2129  0.3842
 5863SOL    HW118423   1.415   5.369   6.966 -1.8027 -0.4375  3.6583
 5863SOL    HW218424   1.361   5.265   6.870  1.4601  1.3085 -0.3769
 5864SOL     OW18425   0.806   1.763   7.165  0.0622 -0.6411 -0.0693
 5864SOL    HW118426   0.853   1.797   7.241 -1.2251 -0.0716  0.5034
 5864SOL    HW218427   0.803   1.837   7.104  1.4093 -1.2058 -0.8532
 5865SOL     OW18428   6.923   0.156   6.432  0.3740  0.3950 -0.1477
 5865SOL    HW118429   7.016   0.155   6.454  0.4121  1.3253 -0.1956
 5865SOL    HW218430   6.907   0.245   6.400 -0.2776 -0.0941 -1.2615
 5866SOL     OW18431   6.839   1.862   1.900  0.2984  0.1942 -0.2823
 5866SOL    HW118432   6.884   1.889   1.980  2.1376  1.1228 -1.5617
 5866SOL    HW218433   6.774   1.931   1.884  0.4394  0.3936 -0.0026
 5867SOL     OW18434   6.166   1.761   2.400  0.1604 -0.0993  0.0310
 5867SOL    HW118435   6.155   1.690   2.464  0.1586 -0.5723 -0.4893
 5867SOL    HW218436   6.259   1.757   2.377 -0.0401 -0.5880 -0.7409
 5868SOL     OW18437   6.572   2.466   3.447  0.2951  0.2147  0.1384
 5868SOL    HW118438   6.520   2.481   3.526  0.7198 -0.2057  0.5022
 5868SOL    HW218439   6.621   2.548   3.434 -0.5918  0.6876 -0.3197
 5869SOL     OW18440   4.747   7.089   0.135 -0.3130 -0.0327  0.2803
 5869SOL    HW118441   4.758   7.176   0.175  0.2060  0.5528 -1.0795
 5869SOL    HW218442   4.687   7.104   0.062 -0.5714 -0.9148  0.3086
 5870SOL     OW18443   4.745   2.350   6.541  0.9018  0.3497  0.0068
 5870SOL    HW118444   4.811   2.330   6.607  0.5891  0.8493  0.4761
 5870SOL    HW218445   4.702   2.266   6.525  2.3327 -0.2158 -1.0837
 5871SOL     OW18446   3.260   2.132   3.116 -0.3268  0.0228  0.2672
 5871SOL    HW118447   3.295   2.217   3.088 -1.0539  0.2586  0.0362
 5871SOL    HW218448   3.305   2.113   3.198  1.5325 -0.4671 -0.8027
 5872SOL     OW18449   5.093   0.067   2.375 -0.1031  0.6713 -0.3555
 5872SOL    HW118450   5.027   0.001   2.396  1.3786 -0.9222 -0.4280
 5872SOL    HW218451   5.093   0.126   2.450 -0.5880 -0.1704  0.3244
 5873SOL     OW18452   3.949   4.989   1.657 -0.1822  0.0112  0.0637
 5873SOL    HW118453   3.978   4.995   1.566 -0.4530  0.5810  0.0140
 5873SOL    HW218454   3.914   5.075   1.677 -2.1446 -0.7266  0.0203
 5874SOL     OW18455   4.423   4.135   0.611 -0.3090 -0.8178 -0.0299
 5874SOL    HW118456   4.406   4.097   0.697 -0.2018 -0.6052  0.0853
 5874SOL    HW218457   4.349   4.107   0.557 -1.0154  0.0566  0.4529
 5875SOL     OW18458   2.258   3.390   4.608 -0.6530  0.3619  0.3559
 5875SOL    HW118459   2.292   3.307   4.572  1.4225  1.4145 -0.2575
 5875SOL    HW218460   2.295   3.457   4.551 -2.4068  1.7530  0.7652
 5876SOL     OW18461   5.213   1.179   3.842 -0.1081 -0.0579 -0.2394
 5876SOL    HW118462   5.120   1.162   3.852  0.2067 -2.8013 -1.1807
 5876SOL    HW218463   5.242   1.204   3.930 -1.5723  0.0277  0.2437
 5877SOL     OW18464   0.755   2.613   1.358  0.4392  0.5386 -0.3622
 5877SOL    HW118465   0.670   2.570   1.364  0.9565 -0.6008 -0.8927
 5877SOL    HW218466   0.754   2.679   1.427  0.2420 -1.4124  1.5992
 5878SOL     OW18467   0.596   2.853   3.862  0.0271 -0.1630 -0.5762
 5878SOL    HW118468   0.587   2.884   3.772  1.6362  0.8902 -0.3995
 5878SOL    HW218469   0.604   2.758   3.854  0.7530 -0.0246 -1.5854
 5879SOL     OW18470   5.308   1.004   5.127  0.1467  0.5289  0.2250
 5879SOL    HW118471   5.318   0.917   5.088 -0.2262  0.4451  0.3144
 5879SOL    HW218472   5.388   1.050   5.102  0.3905  0.1337  0.2498
 5880SOL     OW18473   3.351   1.458   4.277 -0.3206 -0.3267 -0.1883
 5880SOL    HW118474   3.385   1.445   4.365 -0.0461 -0.4821 -0.3151
 5880SOL    HW218475   3.265   1.417   4.278  0.1314 -1.3179 -0.3055
 5881SOL     OW18476   0.724   7.270   5.486 -0.8746 -0.0228  0.5510
 5881SOL    HW118477   0.748   7.182   5.457 -0.9634  0.1775 -0.1332
 5881SOL    HW218478   0.697   7.258   5.577  0.1874 -0.5277  0.8190
 5882SOL     OW18479   6.805   3.775   6.250 -0.0002 -0.4672 -0.1530
 5882SOL    HW118480   6.880   3.721   6.225  0.8024 -0.3931  1.8893
 5882SOL    HW218481   6.801   3.842   6.183  3.0374  0.6764  0.6251
 5883SOL     OW18482   5.019   2.521   3.333  0.0454 -0.3226  0.8853
 5883SOL    HW118483   4.991   2.440   3.291  1.2312 -0.4835  0.3521
 5883SOL    HW218484   4.940   2.556   3.373 -0.8063 -0.9651 -0.1665
 5884SOL     OW18485   0.248   4.669   0.942 -0.1743  0.0417  0.2703
 5884SOL    HW118486   0.222   4.641   1.029 -2.2787  1.3576  0.1340
 5884SOL    HW218487   0.344   4.669   0.944 -0.1377  1.2962  3.0314
 5885SOL     OW18488   1.928   6.450   3.240 -0.6904 -0.0862 -0.2517
 5885SOL    HW118489   1.944   6.527   3.186 -1.4856  0.7759  0.6948
 5885SOL    HW218490   1.987   6.384   3.205 -0.6055  0.6773 -1.6458
 5886SOL     OW18491   1.162   5.929   3.530 -0.5235  0.7591  0.2101
 5886SOL    HW118492   1.073   5.957   3.508 -0.5047  0.2208 -0.5869
 5886SOL    HW218493   1.166   5.837   3.505  0.6867  1.1319 -1.1973
 5887SOL     OW18494   4.999   5.014   2.991 -0.2861  0.2900 -0.5549
 5887SOL    HW118495   5.077   5.057   2.956  0.7462  0.0360  1.2731
 5887SOL    HW218496   4.944   5.086   3.022  0.5357  0.4001  0.7077
 5888SOL     OW18497   5.641   1.318   2.203  0.0619  0.1122 -0.1871
 5888SOL    HW118498   5.682   1.231   2.208 -1.1409 -0.4193  2.3114
 5888SOL    HW218499   5.699   1.374   2.255 -0.8545 -0.0361  1.0690
 5889SOL     OW18500   7.399   3.255   5.499  0.3921  0.4436  0.0011
 5889SOL    HW118501   7.463   3.194   5.463 -0.4737 -0.9716  0.7900
 5889SOL    HW218502   7.401   3.240   5.593  0.5626  2.0634  0.2925
 5890SOL     OW18503   1.498   4.538   3.149  0.3146 -0.2696  1.0771
 5890SOL    HW118504   1.594   4.542   3.144  0.2543  0.4631  0.2096
 5890SOL    HW218505   1.477   4.451   3.115  0.6897 -0.6745  1.8422
 5891SOL     OW18506   1.350   7.368   1.298  0.4378  0.0330  0.2842
 5891SOL    HW118507   1.299   7.448   1.301 -2.3141 -1.6152  0.5752
 5891SOL    HW218508   1.318   7.316   1.372  1.0999 -1.9287 -0.7338
 5892SOL     OW18509   6.798   5.909   7.734 -0.0935  0.6455 -0.3451
 5892SOL    HW118510   6.826   5.836   7.679  1.3397 -1.1459  2.5474
 5892SOL    HW218511   6.707   5.891   7.755  0.6826 -1.3482  1.6757
 5893SOL     OW18512   7.053   7.342   6.633  0.0967 -0.5162 -0.2707
 5893SOL    HW118513   6.958   7.352   6.637  0.0827 -0.9991  2.0507
 5893SOL    HW218514   7.087   7.431   6.641 -0.2006 -0.5729  3.1859
 5894SOL     OW18515   7.322   3.611   4.880  0.3280 -0.0410  0.6016
 5894SOL    HW118516   7.376   3.563   4.817 -1.0502 -0.9064  0.0250
 5894SOL    HW218517   7.326   3.558   4.960 -1.5395 -1.4385 -0.1639
 5895SOL     OW18518   3.690   4.509   3.111  0.3580  0.2485  0.0490
 5895SOL    HW118519   3.760   4.454   3.147  1.4986  0.3106 -1.9473
 5895SOL    HW218520   3.649   4.548   3.188 -0.2391 -3.0093  1.5656
 5896SOL     OW18521   7.488   7.260   3.673  0.2367  0.4477  0.2105
 5896SOL    HW118522   7.564   7.240   3.618 -0.7712 -0.1421 -1.0387
 5896SOL    HW218523   7.524   7.297   3.752  1.8028  0.6100 -0.5488
 5897SOL     OW18524   3.020   2.451   1.739 -0.3365 -0.0211  0.1856
 5897SOL    HW118525   3.103   2.498   1.732 -0.2831 -0.0095  0.8596
 5897SOL    HW218526   3.021   2.412   1.826 -0.2686 -1.4990 -0.4444
 5898SOL     OW18527   1.248   3.716   1.652  1.2644  0.3590  0.0522
 5898SOL    HW118528   1.167   3.714   1.703  0.0695  0.2021 -1.7805
 5898SOL    HW218529   1.275   3.624   1.645  0.5292  0.2007 -0.9289
 5899SOL     OW18530   0.439   5.713   4.196 -0.3442 -0.4644 -0.1021
 5899SOL    HW118531   0.470   5.733   4.284 -1.7931  0.0929  0.3039
 5899SOL    HW218532   0.353   5.674   4.208 -0.9855  0.4954 -1.3093
 5900SOL     OW18533   0.208   2.202   4.564  0.6448  0.4558 -0.2760
 5900SOL    HW118534   0.191   2.173   4.653  0.3364 -2.2385 -1.1164
 5900SOL    HW218535   0.129   2.176   4.515  0.4356  2.6459 -1.2295
 5901SOL     OW18536   7.932   2.217   3.764 -0.1310 -0.4665 -0.4578
 5901SOL    HW118537   7.950   2.125   3.785  0.8268 -0.0477  0.6647
 5901SOL    HW218538   7.875   2.213   3.687 -0.5959 -2.0140 -0.0815
 5902SOL     OW18539   4.130   0.390   3.867 -0.1914 -0.1351 -0.2943
 5902SOL    HW118540   4.074   0.393   3.945 -0.2584  0.1323 -0.3508
 5902SOL    HW218541   4.218   0.402   3.900 -0.2607  0.3933 -0.3017
 5903SOL     OW18542   1.198   2.214   5.283  0.2642 -0.8073  0.2441
 5903SOL    HW118543   1.235   2.296   5.315  0.3097 -1.1347  1.0423
 5903SOL    HW218544   1.273   2.163   5.255  0.2408 -0.6176 -0.1850
 5904SOL     OW18545   2.046   7.076   5.196  0.2168  0.1568  0.1390
 5904SOL    HW118546   2.005   6.999   5.235  0.2069  0.2327  0.2775
 5904SOL    HW218547   2.097   7.041   5.123  0.0373  0.0438  0.0678
 5905SOL     OW18548   6.232   2.453   6.350 -0.3553  0.5009  0.4795
 5905SOL    HW118549   6.206   2.408   6.430  0.8666 -3.6072 -1.1395
 5905SOL    HW218550   6.162   2.433   6.287  1.0345 -0.7842 -0.7571
 5906SOL     OW18551   4.639   3.752   2.165  0.3705  0.2160 -0.4310
 5906SOL    HW118552   4.580   3.678   2.160 -0.3513  0.7913 -0.6300
 5906SOL    HW218553   4.702   3.728   2.233 -0.4136 -0.1956  0.1762
 5907SOL     OW18554   6.154   2.287   2.801  0.0246  0.3007 -0.3860
 5907SOL    HW118555   6.174   2.377   2.776  1.0973 -0.2176 -1.5693
 5907SOL    HW218556   6.079   2.263   2.746  1.1509 -0.2045 -1.7922
 5908SOL     OW18557   7.473   1.502   0.504  0.8774  0.1980 -0.2968
 5908SOL    HW118558   7.468   1.450   0.424  1.0760 -0.2034 -0.0506
 5908SOL    HW218559   7.391   1.551   0.506 -0.0447 -1.3026  0.2736
 5909SOL     OW18560   6.848   0.260   2.352  0.4720  0.3219  0.4089
 5909SOL    HW118561   6.831   0.194   2.419 -2.0320  0.8111  0.3586
 5909SOL    HW218562   6.920   0.312   2.388 -0.2600  0.0864  2.3596
 5910SOL     OW18563   4.617   1.587   7.790  0.0545 -0.0813 -0.2361
 5910SOL    HW118564   4.621   1.671   7.834 -0.4442 -0.1047 -0.1437
 5910SOL    HW218565   4.529   1.554   7.809  0.2999 -0.6913 -0.1376
 5911SOL     OW18566   4.729   5.485   7.375  0.4041  0.2953  0.9386
 5911SOL    HW118567   4.742   5.409   7.433 -0.6922 -1.0991 -0.5422
 5911SOL    HW218568   4.724   5.447   7.288  2.4524  2.3810 -0.1891
 5912SOL     OW18569   5.649   7.510   4.055  0.3421  0.3842  0.7909
 5912SOL    HW118570   5.737   7.501   4.020 -0.1068  0.1250 -0.3209
 5912SOL    HW218571   5.620   7.421   4.073  0.7102  0.5344  2.2441
 5913SOL     OW18572   2.924   7.820   0.241  0.4307 -0.0309  0.1333
 5913SOL    HW118573   2.907   7.892   0.302  1.6387  0.6809 -0.3274
 5913SOL    HW218574   3.011   7.789   0.265 -0.4196 -1.9626  0.9027
 5914SOL     OW18575   5.591   7.502   7.515 -0.2636  0.3071 -0.2272
 5914SOL    HW118576   5.585   7.520   7.421  0.9164  2.0816 -0.0201
 5914SOL    HW218577   5.633   7.416   7.520  0.5437  0.6163 -1.3310
 5915SOL     OW18578   4.517   0.233   7.002 -0.2784  0.0645 -0.0934
 5915SOL    HW118579   4.544   0.311   7.050 -0.2810  0.6629 -1.0375
 5915SOL    HW218580   4.578   0.228   6.928 -1.6393  0.4401 -1.2860
 5916SOL     OW18581   0.204   4.239   1.721 -0.3224  0.4260  0.3455
 5916SOL    HW118582   0.173   4.237   1.812 -1.0071  0.5031  0.1227
 5916SOL    HW218583   0.170   4.321   1.685 -1.4822 -0.3524 -0.4440
 5917SOL     OW18584   7.720   7.625   6.457  0.0001 -0.5048 -0.0654
 5917SOL    HW118585   7.785   7.695   6.453  1.0330 -1.4444 -0.2595
 5917SOL    HW218586   7.644   7.659   6.410  0.0743  0.8920  0.7916
 5918SOL     OW18587   4.423   2.573   3.916  0.0843 -0.8008 -0.1288
 5918SOL    HW118588   4.483   2.523   3.973 -0.5174 -0.8320  0.4950
 5918SOL    HW218589   4.338   2.532   3.930 -0.1524 -0.5249 -0.7362
 5919SOL     OW18590   6.843   2.954   2.153 -0.1908  0.1597 -0.0934
 5919SOL    HW118591   6.754   2.936   2.121 -0.3310 -2.3323  1.3773
 5919SOL    HW218592   6.869   2.873   2.197  1.5008  1.9396  2.5050
 5920SOL     OW18593   0.548   0.631   6.019  0.0307  0.0685  0.3490
 5920SOL    HW118594   0.509   0.709   5.981 -0.0439 -0.0508  0.1808
 5920SOL    HW218595   0.627   0.616   5.967 -0.8988 -1.0067 -0.7846
 5921SOL     OW18596   0.364   6.402   3.773 -0.2625  0.6122 -0.3384
 5921SOL    HW118597   0.442   6.419   3.719  0.8804  0.2020  1.1207
 5921SOL    HW218598   0.340   6.487   3.809  0.4475  0.5181  0.3953
 5922SOL     OW18599   3.381   7.933   0.845  0.0874  0.8230  0.5802
 5922SOL    HW118600   3.352   8.020   0.816 -0.3301  0.4023 -0.2833
 5922SOL    HW218601   3.432   7.951   0.924 -1.0591  1.7400  1.1450
 5923SOL     OW18602   1.124   2.495   6.425  0.3675 -0.5591 -0.1234
 5923SOL    HW118603   1.071   2.491   6.504  1.1785  1.1834  0.5565
 5923SOL    HW218604   1.063   2.524   6.357  0.2692  0.7701  0.5086
 5924SOL     OW18605   3.940   1.161   6.367  0.6258 -0.4945 -0.0358
 5924SOL    HW118606   3.999   1.111   6.310  1.8319 -0.4479  1.1424
 5924SOL    HW218607   3.980   1.247   6.372  0.4672 -0.4697  0.7923
 5925SOL     OW18608   7.491   3.153   1.147 -0.6948 -0.3283 -0.2374
 5925SOL    HW118609   7.424   3.098   1.107  0.8919 -2.2173 -0.4461
 5925SOL    HW218610   7.445   3.200   1.216 -2.0295 -2.4458  0.4179
 5926SOL     OW18611   1.633   6.716   0.020 -0.8376  0.5998  0.7692
 5926SOL    HW118612   1.544   6.681   0.012 -0.9353  1.0038 -0.0996
 5926SOL    HW218613   1.623   6.796   0.072 -1.1275  1.1188 -0.0668
 5927SOL     OW18614   0.532   3.714   1.185 -0.0921  0.2768 -0.3831
 5927SOL    HW118615   0.486   3.642   1.143 -0.8080  0.1509  0.5839
 5927SOL    HW218616   0.623   3.703   1.159  0.4072 -2.7360  2.0096
 5928SOL     OW18617   0.623   3.737   2.107  0.4275  0.0621 -0.0663
 5928SOL    HW118618   0.581   3.805   2.054  0.0375 -0.0443  0.1068
 5928SOL    HW218619   0.598   3.655   2.065  1.1161  0.0269 -0.4346
 5929SOL     OW18620   3.935   0.626   4.844 -0.2308 -0.6032 -0.3164
 5929SOL    HW118621   3.894   0.681   4.777 -2.2674  0.1987  1.4806
 5929SOL    HW218622   3.965   0.549   4.796 -1.9778 -0.2490 -2.1095
 5930SOL     OW18623   3.575   4.055   0.848 -0.7572  0.2493 -0.4285
 5930SOL    HW118624   3.622   4.100   0.778 -0.0394 -2.7914 -2.0337
 5930SOL    HW218625   3.526   4.125   0.892  0.9712  2.6951 -2.1377
 5931SOL     OW18626   7.503   2.531   5.559 -0.3832  0.4428  0.1318
 5931SOL    HW118627   7.411   2.507   5.559 -0.0719 -0.9000  1.6622
 5931SOL    HW218628   7.516   2.578   5.641  0.4623 -0.1041  0.3269
 5932SOL     OW18629   4.183   3.124   3.026 -0.9036 -0.2331 -0.1071
 5932SOL    HW118630   4.197   3.092   2.937  1.2961 -0.3322  0.2262
 5932SOL    HW218631   4.203   3.049   3.082  0.1886  0.5092  0.5308
 5933SOL     OW18632   2.099   4.422   3.378 -0.3151 -0.5642  0.5330
 5933SOL    HW118633   2.187   4.441   3.412  0.6487 -1.6980 -1.1578
 5933SOL    HW218634   2.115   4.364   3.304 -2.6297 -2.1572  1.1932
 5934SOL     OW18635   4.357   2.792   0.425 -0.1050 -0.1769 -0.0951
 5934SOL    HW118636   4.337   2.704   0.394  2.1580 -1.5089  1.8781
 5934SOL    HW218637   4.453   2.796   0.425 -0.1299  1.7223  1.3060
 5935SOL     OW18638   4.517   3.875   6.610  0.5806  0.0484  0.9140
 5935SOL    HW118639   4.487   3.830   6.531  0.9689  0.0040  0.7917
 5935SOL    HW218640   4.500   3.968   6.593 -2.3893 -0.1760  2.0803
 5936SOL     OW18641   5.002   2.681   0.278 -0.1159 -0.7754  0.2407
 5936SOL    HW118642   4.939   2.610   0.292 -0.9073 -0.2758 -0.7210
 5936SOL    HW218643   5.013   2.720   0.365  0.6350 -2.3028  0.8758
 5937SOL     OW18644   5.433   2.490   2.801  0.0240  0.4202  0.1158
 5937SOL    HW118645   5.498   2.431   2.840 -0.0983  0.8708  1.0185
 5937SOL    HW218646   5.467   2.578   2.819 -0.1605  0.6398 -0.5863
 5938SOL     OW18647   3.364   2.424   7.522 -0.1140 -0.2897 -0.2964
 5938SOL    HW118648   3.431   2.379   7.471 -1.4375 -2.0161 -0.6355
 5938SOL    HW218649   3.294   2.359   7.531 -1.4435  1.1981  0.6265
 5939SOL     OW18650   3.012   4.843   4.481  0.2913  0.0240 -0.0576
 5939SOL    HW118651   2.982   4.910   4.419  0.0107  1.9400  2.0176
 5939SOL    HW218652   3.107   4.845   4.473  0.2377 -0.3799 -1.0065
 5940SOL     OW18653   1.411   7.187   6.207  0.6530  0.7786 -0.3476
 5940SOL    HW118654   1.442   7.277   6.208 -1.1137  1.4526  1.6690
 5940SOL    HW218655   1.344   7.185   6.138 -0.1924  1.3894  0.4296
 5941SOL     OW18656   4.099   4.560   6.977  0.2006 -0.3066 -0.2439
 5941SOL    HW118657   4.121   4.574   6.885 -1.2407 -1.2805 -0.7731
 5941SOL    HW218658   4.181   4.574   7.024  0.8785  0.5583 -1.6336
 5942SOL     OW18659   6.860   2.182   1.925 -0.2206  0.6903  0.5513
 5942SOL    HW118660   6.917   2.210   1.997 -0.2301  0.8006  0.5170
 5942SOL    HW218661   6.832   2.264   1.884 -0.5581  0.6432  0.6874
 5943SOL     OW18662   7.599   0.938   7.866 -0.3682 -0.1639 -0.4130
 5943SOL    HW118663   7.652   0.885   7.924 -0.6922  0.0727  0.1046
 5943SOL    HW218664   7.509   0.908   7.881 -0.9945  2.5526  2.1868
 5944SOL     OW18665   4.986   1.829   0.392 -0.6147 -0.1989  0.0175
 5944SOL    HW118666   4.935   1.821   0.473 -0.1743  0.6729  0.4026
 5944SOL    HW218667   4.934   1.784   0.326 -0.6807 -1.5060  0.9134
 5945SOL     OW18668   5.017   1.725   3.274 -0.6431  0.7368 -0.0590
 5945SOL    HW118669   4.981   1.636   3.273  1.5322 -0.1894 -0.3187
 5945SOL    HW218670   5.033   1.743   3.366  2.0286 -0.5449 -0.1812
 5946SOL     OW18671   0.080   0.550   2.004 -0.1402 -0.5098 -0.3439
 5946SOL    HW118672   0.110   0.544   1.913 -1.4190 -0.9422 -0.7551
 5946SOL    HW218673   0.115   0.471   2.046  0.2334 -0.4422 -0.5210
 5947SOL     OW18674   4.779   6.249   6.564  0.1224  0.0840  0.0779
 5947SOL    HW118675   4.870   6.227   6.541  0.0750  0.7478 -0.8199
 5947SOL    HW218676   4.740   6.278   6.481 -1.0467 -0.6143  0.3649
 5948SOL     OW18677   4.122   5.225   0.751 -0.1917 -0.7781  0.0830
 5948SOL    HW118678   4.048   5.165   0.748 -1.2568  0.5289 -1.9767
 5948SOL    HW218679   4.084   5.308   0.781  0.8293 -0.5380  0.7839
 5949SOL     OW18680   5.992   5.406   7.046  0.1905  0.7332 -0.1131
 5949SOL    HW118681   5.995   5.310   7.047 -1.3547  0.6572  0.3122
 5949SOL    HW218682   5.902   5.427   7.071  0.0466  2.2738 -1.7175
 5950SOL     OW18683   4.310   3.471   5.492  0.3008  0.5246  0.2779
 5950SOL    HW118684   4.374   3.445   5.425 -1.1753 -1.3581 -0.4676
 5950SOL    HW218685   4.228   3.430   5.464 -1.0371  2.0931  1.7177
 5951SOL     OW18686   4.910   0.861   4.818  0.0100  0.0192  0.0685
 5951SOL    HW118687   4.922   0.882   4.725  1.1689 -0.7722  0.0160
 5951SOL    HW218688   4.827   0.904   4.842 -0.2113  0.3892 -1.2723
 5952SOL     OW18689   7.246   7.351   4.825  0.1198 -0.6161  0.2800
 5952SOL    HW118690   7.249   7.363   4.730  0.1214 -0.5697  0.2858
 5952SOL    HW218691   7.166   7.301   4.840 -0.4174  0.2456  0.3492
 5953SOL     OW18692   2.119   1.909   4.921 -0.6060  0.1349  0.0471
 5953SOL    HW118693   2.145   1.897   5.013 -0.2823 -2.4475 -0.3028
 5953SOL    HW218694   2.201   1.929   4.876 -0.4346 -0.5115  0.0589
 5954SOL     OW18695   6.673   7.135   1.142 -0.5568  1.5544 -0.0140
 5954SOL    HW118696   6.646   7.070   1.208  1.3241 -0.0736 -0.7335
 5954SOL    HW218697   6.651   7.094   1.058 -0.5540  2.4535 -0.4610
 5955SOL     OW18698   5.898   7.484   3.917  0.7408 -0.2771  0.0659
 5955SOL    HW118699   5.959   7.523   3.980  0.7818 -2.4109  1.4719
 5955SOL    HW218700   5.930   7.395   3.905 -1.0906 -0.9040 -0.5183
 5956SOL     OW18701   7.436   2.458   2.824 -0.3952  0.9135  0.0025
 5956SOL    HW118702   7.492   2.529   2.793 -0.4729  0.8677 -0.2444
 5956SOL    HW218703   7.412   2.484   2.913  2.6814 -0.6158  1.4327
 5957SOL     OW18704   2.075   7.383   3.756  0.9708  0.7445 -0.2560
 5957SOL    HW118705   2.101   7.464   3.801  0.8418  0.5539  0.1703
 5957SOL    HW218706   2.125   7.314   3.800  0.8540  0.5549 -0.4165
 5958SOL     OW18707   2.129   3.517   3.658  0.6403  0.0189 -0.8875
 5958SOL    HW118708   2.044   3.481   3.682  1.2161 -0.3210  0.7890
 5958SOL    HW218709   2.119   3.545   3.567 -1.5573  0.8879 -0.4443
 5959SOL     OW18710   4.936   5.579   1.903  0.4354  0.0419 -0.0537
 5959SOL    HW118711   4.864   5.615   1.955  1.0258 -0.3613  1.0835
 5959SOL    HW218712   4.928   5.484   1.913  0.4288 -0.0505 -0.8927
 5960SOL     OW18713   0.251   6.889   3.204  0.5211  0.0741 -0.0091
 5960SOL    HW118714   0.203   6.962   3.243  0.6995  0.1591  0.0548
 5960SOL    HW218715   0.326   6.930   3.161  1.2592 -0.1667  1.0056
 5961SOL     OW18716   2.926   5.370   2.893 -0.0655  0.1765 -0.4528
 5961SOL    HW118717   3.002   5.413   2.855  0.8012 -1.4596 -0.6627
 5961SOL    HW218718   2.864   5.441   2.910  0.7367  1.3118 -2.0514
 5962SOL     OW18719   2.023   2.757   3.491 -0.0346 -0.0773  0.5156
 5962SOL    HW118720   2.065   2.773   3.576  2.3981 -2.3429 -0.1313
 5962SOL    HW218721   1.991   2.667   3.497 -2.9640  0.8282  0.1393
 5963SOL     OW18722   1.138   5.479   6.414  0.6505  0.1708 -0.4282
 5963SOL    HW118723   1.154   5.569   6.386 -0.4008  0.4672 -0.1110
 5963SOL    HW218724   1.134   5.428   6.333  0.3564  0.5587 -0.6568
 5964SOL     OW18725   5.312   0.723   5.072 -0.0304 -0.0257 -0.2339
 5964SOL    HW118726   5.380   0.677   5.120 -0.9791 -0.3376  0.8784
 5964SOL    HW218727   5.230   0.696   5.116 -0.9297 -0.1961 -1.9283
 5965SOL     OW18728   0.561   2.667   0.651  0.3713 -0.0133 -0.0325
 5965SOL    HW118729   0.548   2.665   0.556 -3.6434  0.9878  0.2979
 5965SOL    HW218730   0.640   2.718   0.664  0.8573  0.0831 -2.8402
 5966SOL     OW18731   6.372   6.619   2.709  0.0836  0.1012 -0.7373
 5966SOL    HW118732   6.424   6.613   2.790  3.3134  1.0221 -2.5669
 5966SOL    HW218733   6.412   6.555   2.650  0.7297  2.4053 -2.9814
 5967SOL     OW18734   0.127   3.141   0.177  0.2777 -0.2599  0.0698
 5967SOL    HW118735   0.185   3.189   0.119 -1.0607  1.1012 -0.2035
 5967SOL    HW218736   0.171   3.142   0.262 -0.1660  2.4381  0.3458
 5968SOL     OW18737   6.071   6.838   0.380 -0.6855  0.2199  0.2506
 5968SOL    HW118738   6.089   6.917   0.330 -1.2616  1.1210  1.3902
 5968SOL    HW218739   6.157   6.799   0.398 -0.3871  0.6803 -0.1850
 5969SOL     OW18740   6.828   2.687   5.825  0.0908  0.8984 -0.3572
 5969SOL    HW118741   6.733   2.687   5.816 -0.3131 -0.9919  2.6483
 5969SOL    HW218742   6.852   2.594   5.830  1.7124  1.3491  1.6942
 5970SOL     OW18743   1.871   1.647   2.136 -0.0688 -0.3595  0.3507
 5970SOL    HW118744   1.812   1.582   2.174  1.1924 -0.7887  1.6656
 5970SOL    HW218745   1.897   1.702   2.210  0.1962  0.5981 -0.4397
 5971SOL     OW18746   5.714   6.526   3.663 -0.0376 -0.7869 -0.3949
 5971SOL    HW118747   5.639   6.549   3.716  1.0401  1.1980  0.3689
 5971SOL    HW218748   5.693   6.558   3.575  0.2202  0.5378  0.0036
 5972SOL     OW18749   4.519   6.767   2.413 -0.0922  0.2684 -0.0053
 5972SOL    HW118750   4.546   6.771   2.322  0.1849 -0.4584  0.0399
 5972SOL    HW218751   4.488   6.856   2.433  2.5863  1.2704  0.0622
 5973SOL     OW18752   5.052   2.606   3.658 -0.0270  0.3004 -0.3609
 5973SOL    HW118753   5.078   2.693   3.627 -0.6301  0.4866 -0.3647
 5973SOL    HW218754   4.986   2.577   3.595 -1.0409  0.5479  0.5522
 5974SOL     OW18755   1.326   6.968   2.778  0.6029 -0.3555  0.1944
 5974SOL    HW118756   1.419   6.977   2.794  0.3366  0.7171  1.2505
 5974SOL    HW218757   1.318   6.973   2.682  1.6445 -0.7631  0.0763
 5975SOL     OW18758   4.630   1.264   4.830 -0.4866 -0.8120  0.0977
 5975SOL    HW118759   4.538   1.238   4.839 -1.3030  1.5636 -0.8251
 5975SOL    HW218760   4.634   1.312   4.747  1.8666 -1.8659 -0.4806
 5976SOL     OW18761   2.726   3.431   6.750 -0.9722  0.0682  0.0814
 5976SOL    HW118762   2.646   3.482   6.744 -0.9922 -0.1096 -1.4856
 5976SOL    HW218763   2.738   3.416   6.844 -0.2264  4.0763  0.7894
 5977SOL     OW18764   2.246   0.570   1.822  0.3540  0.5844  0.2064
 5977SOL    HW118765   2.270   0.640   1.882 -0.0840  1.9868 -1.1960
 5977SOL    HW218766   2.323   0.558   1.766  0.5721 -0.3407  0.6919
 5978SOL     OW18767   3.777   5.940   6.341 -0.0777  0.0933  0.5940
 5978SOL    HW118768   3.867   5.910   6.356 -0.0987 -0.0594  0.4053
 5978SOL    HW218769   3.769   5.947   6.246 -0.8592 -1.7133  0.4938
 5979SOL     OW18770   1.758   3.025   2.255  0.2154 -0.6088  0.6475
 5979SOL    HW118771   1.754   2.982   2.170  0.3629 -0.5626  0.6173
 5979SOL    HW218772   1.681   3.082   2.258  1.5714  1.3978 -0.5168
 5980SOL     OW18773   3.790   0.197   4.853  0.1798  0.3318  0.2014
 5980SOL    HW118774   3.798   0.173   4.945 -0.3596 -0.0757  0.1442
 5980SOL    HW218775   3.800   0.114   4.805 -1.5634  0.1979 -0.0005
 5981SOL     OW18776   6.264   3.317   7.321  0.0061  0.1723  0.0139
 5981SOL    HW118777   6.326   3.296   7.391 -0.5335  0.8208  0.7045
 5981SOL    HW218778   6.312   3.378   7.265 -0.5268  2.0407  1.4816
 5982SOL     OW18779   6.878   3.797   5.568  0.3251 -0.0086 -0.3489
 5982SOL    HW118780   6.848   3.842   5.489 -0.2671  0.1270 -0.0497
 5982SOL    HW218781   6.907   3.711   5.537 -1.6902 -0.7058 -0.4830
 5983SOL     OW18782   0.973   5.909   6.279  0.2150 -0.2533  0.0634
 5983SOL    HW118783   0.942   5.985   6.329  0.8052  0.7030 -0.9748
 5983SOL    HW218784   0.929   5.916   6.195  0.6352 -0.8117 -0.2058
 5984SOL     OW18785   2.725   0.757   7.705  0.2994  0.2515 -0.1306
 5984SOL    HW118786   2.790   0.826   7.716 -0.7647  1.3161 -0.2575
 5984SOL    HW218787   2.771   0.687   7.659  1.4203  0.8667  0.0318
 5985SOL     OW18788   5.203   2.349   3.118  0.0262  0.1622  0.2675
 5985SOL    HW118789   5.186   2.258   3.141 -2.8671  0.7911  1.0237
 5985SOL    HW218790   5.279   2.374   3.171  1.1201 -1.8690 -0.2577
 5986SOL     OW18791   0.828   4.448   1.269 -0.2117  0.1356  0.2194
 5986SOL    HW118792   0.886   4.483   1.336  0.8635  0.9350 -1.0738
 5986SOL    HW218793   0.744   4.491   1.285  0.3792  1.3029  0.2801
 5987SOL     OW18794   1.304   5.976   3.745  0.0768 -0.1168  0.1078
 5987SOL    HW118795   1.235   5.979   3.679 -0.0542  0.3181  0.2565
 5987SOL    HW218796   1.290   6.056   3.797  0.7462  0.0203  0.0870
 5988SOL     OW18797   6.553   1.683   2.723  0.0873  0.1197  0.7340
 5988SOL    HW118798   6.496   1.694   2.799  0.0655  0.8532  0.6187
 5988SOL    HW218799   6.577   1.590   2.724 -2.0887 -0.4966  0.0793
 5989SOL     OW18800   3.945   0.801   3.221 -0.0118  0.2529 -0.3499
 5989SOL    HW118801   3.882   0.815   3.292  0.4658  1.1573 -0.0896
 5989SOL    HW218802   3.934   0.709   3.197 -1.4067  0.3819 -0.2878
 5990SOL     OW18803   4.040   0.280   6.345 -0.2859 -0.1330  0.2337
 5990SOL    HW118804   3.951   0.312   6.357 -0.3548  0.3165 -1.2421
 5990SOL    HW218805   4.036   0.226   6.266  0.6192 -0.6193  0.5097
 5991SOL     OW18806   5.999   5.323   1.859  0.1382  0.3156 -0.2311
 5991SOL    HW118807   6.060   5.259   1.897  0.7182  0.3637 -1.0551
 5991SOL    HW218808   5.928   5.269   1.823 -0.8928  0.3141  1.6751
 5992SOL     OW18809   0.102   3.114   1.229  0.2895 -0.0353  0.9539
 5992SOL    HW118810   0.079   3.026   1.258 -1.5808  0.5261  1.3136
 5992SOL    HW218811   0.066   3.172   1.296 -1.6018  1.1573 -0.9505
 5993SOL     OW18812   3.795   7.034   1.986  0.3761 -0.0996 -0.1706
 5993SOL    HW118813   3.810   7.071   2.073 -0.2957 -0.1089 -0.0430
 5993SOL    HW218814   3.704   7.003   1.989  0.3592 -0.1294 -0.8647
 5994SOL     OW18815   4.129   7.281   3.322  0.0655  0.1637  0.2868
 5994SOL    HW118816   4.117   7.212   3.257 -1.0600  0.4035  0.2137
 5994SOL    HW218817   4.071   7.352   3.293  0.9660  1.0307  0.5283
 5995SOL     OW18818   6.715   5.587   6.522 -0.2718 -0.0478 -0.4748
 5995SOL    HW118819   6.807   5.559   6.515  0.0874  1.3819 -1.8963
 5995SOL    HW218820   6.670   5.537   6.454 -0.3674  0.0131 -0.4558
 5996SOL     OW18821   1.632   4.811   1.803  0.3280  0.1290 -0.2414
 5996SOL    HW118822   1.690   4.861   1.860  1.6112  1.8936 -2.9141
 5996SOL    HW218823   1.556   4.868   1.790 -0.5974 -0.8432  0.7235
 5997SOL     OW18824   4.505   2.175   5.838 -0.6443 -0.2881 -0.6242
 5997SOL    HW118825   4.568   2.242   5.864 -1.2510 -0.3825  1.2244
 5997SOL    HW218826   4.558   2.109   5.794  0.5278 -0.2133  0.5987
 5998SOL     OW18827   3.664   2.028   2.389 -0.3221 -0.1258  0.1072
 5998SOL    HW118828   3.758   2.018   2.378 -0.3796  0.3728 -0.9505
 5998SOL    HW218829   3.644   1.979   2.469  0.8498 -0.0998  0.4375
 5999SOL     OW18830   4.528   5.299   4.459  0.0847  0.2326  0.7526
 5999SOL    HW118831   4.436   5.285   4.436 -0.1021  0.7321  1.1758
 5999SOL    HW218832   4.575   5.285   4.377 -0.0389 -2.9551  1.1059
 6000SOL     OW18833   2.198   4.022   4.466  0.2776 -0.3351 -0.2847
 6000SOL    HW118834   2.249   3.968   4.527 -1.4736 -1.1437  0.5422
 6000SOL    HW218835   2.108   4.017   4.499 -0.6615 -0.3903 -2.6644
 6001SOL     OW18836   4.816   7.014   0.729 -0.2958 -0.1492  0.3685
 6001SOL    HW118837   4.911   7.008   0.729 -0.1583 -1.4724  4.8113
 6001SOL    HW218838   4.786   6.925   0.711 -0.5106 -0.3794  1.7184
 6002SOL     OW18839   4.624   1.598   3.362 -0.1379 -0.4027 -0.0876
 6002SOL    HW118840   4.544   1.547   3.375  0.6873 -1.4778  1.0357
 6002SOL    HW218841   4.603   1.658   3.291 -1.0076 -2.6755 -1.8829
 6003SOL     OW18842   3.343   4.284   7.215 -0.3204 -0.2924 -0.6425
 6003SOL    HW118843   3.416   4.231   7.183 -0.0034  0.9208 -2.0227
 6003SOL    HW218844   3.331   4.256   7.306  2.2191 -0.1379 -0.1912
 6004SOL     OW18845   7.037   6.934   6.984  0.3547  0.7239  0.7634
 6004SOL    HW118846   7.024   7.000   7.052 -0.0076  0.1502  1.2638
 6004SOL    HW218847   6.960   6.878   6.990  0.3301  0.6526 -0.1154
 6005SOL     OW18848   1.467   7.659   0.070 -0.0642 -0.2967 -0.4465
 6005SOL    HW118849   1.497   7.723   0.134  0.6271  0.0437 -1.1124
 6005SOL    HW218850   1.371   7.669   0.070  0.0212  0.5605 -0.3763
 6006SOL     OW18851   4.517   5.586   6.608 -0.4076  0.2187  0.0361
 6006SOL    HW118852   4.441   5.627   6.566 -1.6983 -0.4943  1.5659
 6006SOL    HW218853   4.547   5.522   6.544 -1.5225  0.0437 -0.3419
 6007SOL     OW18854   7.599   4.125   3.303 -0.0886  0.1982  0.4818
 6007SOL    HW118855   7.655   4.067   3.251  0.5981  0.6535  0.7157
 6007SOL    HW218856   7.655   4.158   3.373 -0.6523  0.6402  0.7393
 6008SOL     OW18857   2.989   5.109   0.488 -0.0255  0.2006  0.0577
 6008SOL    HW118858   2.959   5.199   0.477  0.1555  0.0517 -2.3805
 6008SOL    HW218859   2.908   5.057   0.486 -0.0025  0.1604 -1.4445
 6009SOL     OW18860   0.144   4.288   4.688 -0.0697 -0.1045  0.3108
 6009SOL    HW118861   0.135   4.381   4.711  0.6488  0.1241 -0.3235
 6009SOL    HW218862   0.221   4.259   4.736 -0.1075 -0.2968  0.2565
 6010SOL     OW18863   6.106   0.308   3.606 -0.0768 -0.3866  0.1875
 6010SOL    HW118864   6.119   0.331   3.514 -0.6550 -1.0578 -0.0723
 6010SOL    HW218865   6.149   0.223   3.615 -2.4060 -1.6698 -0.1853
 6011SOL     OW18866   7.537   5.090   6.755  0.0085  0.0108  0.5947
 6011SOL    HW118867   7.462   5.143   6.783  0.5119  0.4103  1.2194
 6011SOL    HW218868   7.601   5.154   6.724 -0.3027 -0.3891 -0.9652
 6012SOL     OW18869   5.739   2.602   2.850  0.6143  0.1266  0.2697
 6012SOL    HW118870   5.740   2.697   2.864 -1.0053  0.2547 -0.2254
 6012SOL    HW218871   5.789   2.590   2.769 -0.0518  0.7007 -0.2499
 6013SOL     OW18872   0.145   0.816   4.149  0.0055 -0.0216  0.5347
 6013SOL    HW118873   0.092   0.737   4.146  0.0498 -0.1226  1.6496
 6013SOL    HW218874   0.235   0.784   4.144  0.0011  0.0318  0.0999
 6014SOL     OW18875   6.689   2.862   1.458 -0.4875  0.0970  0.4841
 6014SOL    HW118876   6.705   2.873   1.552  1.4981  3.7941 -0.0912
 6014SOL    HW218877   6.616   2.921   1.439  0.5790  1.1199 -0.5903
 6015SOL     OW18878   1.046   1.481   4.884  0.1101 -0.4922 -0.0887
 6015SOL    HW118879   1.105   1.450   4.953  0.1861 -0.1012  0.0232
 6015SOL    HW218880   0.960   1.484   4.927  0.1120 -0.5011 -0.0838
 6016SOL     OW18881   7.161   6.468   7.831  0.0429 -0.6450 -0.1665
 6016SOL    HW118882   7.208   6.387   7.810  0.4071 -0.9236  1.5575
 6016SOL    HW218883   7.211   6.507   7.903  0.8714  2.0372 -2.0478
 6017SOL     OW18884   4.926   5.146   4.092 -0.1882 -0.4053 -0.0460
 6017SOL    HW118885   4.924   5.169   3.999 -0.9754 -1.1647 -0.2327
 6017SOL    HW218886   4.971   5.219   4.134 -0.0402  0.0638 -0.9879
 6018SOL     OW18887   5.605   5.061   6.632  0.5557 -0.1041  0.2844
 6018SOL    HW118888   5.628   5.152   6.647  0.9683 -0.4010  1.6243
 6018SOL    HW218889   5.650   5.037   6.551 -1.3071  1.4460 -1.3144
 6019SOL     OW18890   7.523   4.796   6.818 -0.4582 -0.5323  0.2157
 6019SOL    HW118891   7.561   4.881   6.838  0.3682 -0.9235  0.3488
 6019SOL    HW218892   7.515   4.795   6.722  1.6226 -1.1554  0.0163
 6020SOL     OW18893   0.997   2.602   3.934  0.1806  0.4429 -0.3420
 6020SOL    HW118894   0.926   2.548   3.898 -0.4072 -0.9475  2.6014
 6020SOL    HW218895   1.077   2.563   3.897 -0.3242 -1.5125  0.4878
 6021SOL     OW18896   1.866   6.337   3.877  0.2535 -0.0482 -0.0417
 6021SOL    HW118897   1.864   6.309   3.969  0.7880 -1.7755 -0.5127
 6021SOL    HW218898   1.822   6.266   3.830  0.9606  0.2855 -1.2352
 6022SOL     OW18899   4.501   5.446   6.831  0.2084  0.0929  0.2803
 6022SOL    HW118900   4.572   5.386   6.807  1.5583  1.1328  1.5167
 6022SOL    HW218901   4.503   5.514   6.765  0.7418  0.4124  0.6208
 6023SOL     OW18902   2.239   2.255   5.640  0.4624 -0.1966  0.1355
 6023SOL    HW118903   2.318   2.223   5.597  0.1787 -0.7498  0.0153
 6023SOL    HW218904   2.186   2.293   5.569  1.0926  1.1794  0.3730
 6024SOL     OW18905   3.588   4.810   5.173  0.0689  0.1538 -0.1032
 6024SOL    HW118906   3.672   4.776   5.140 -0.0784 -1.1364  0.7855
 6024SOL    HW218907   3.613   4.874   5.240  0.3620 -0.2858  0.2167
 6025SOL     OW18908   5.220   3.921   4.157  0.2247  0.0631 -0.3584
 6025SOL    HW118909   5.224   3.871   4.075  3.2079  1.3484 -1.1266
 6025SOL    HW218910   5.197   4.010   4.131 -0.6845  0.0856  0.4630
 6026SOL     OW18911   6.722   2.643   4.395 -0.2196  0.1205  0.1479
 6026SOL    HW118912   6.690   2.710   4.334 -0.6098  0.4463  0.6929
 6026SOL    HW218913   6.669   2.657   4.474 -1.0837 -1.5504 -0.0981
 6027SOL     OW18914   4.822   3.171   1.347 -0.4489 -0.4299 -0.1810
 6027SOL    HW118915   4.826   3.247   1.289 -0.5329  0.3487  0.8177
 6027SOL    HW218916   4.888   3.188   1.415  0.9962 -2.2071 -1.0363
 6028SOL     OW18917   0.509   4.568   0.941  0.3170  0.2674 -0.6034
 6028SOL    HW118918   0.447   4.500   0.968  1.2934  0.1735  1.6028
 6028SOL    HW218919   0.570   4.522   0.883  0.5844 -0.6023  0.3381
 6029SOL     OW18920   7.475   2.349   2.456  0.2014 -0.3656  0.0143
 6029SOL    HW118921   7.480   2.284   2.386 -2.1188  0.2741 -0.8567
 6029SOL    HW218922   7.381   2.361   2.470  0.6005  0.9417  1.9378
 6030SOL     OW18923   1.878   4.286   4.993  0.3697 -0.2236  0.1136
 6030SOL    HW118924   1.855   4.355   4.930  2.4885 -0.9439 -1.5384
 6030SOL    HW218925   1.973   4.285   4.994  0.3900 -2.6470  0.6638
 6031SOL     OW18926   6.345   6.865   2.623 -0.2834  0.2448 -0.2586
 6031SOL    HW118927   6.356   6.774   2.650 -2.0554 -0.5050 -1.8646
 6031SOL    HW218928   6.305   6.908   2.699 -1.3067 -0.8230 -0.1620
 6032SOL     OW18929   2.756   3.622   1.404  0.1998 -0.0063 -0.3556
 6032SOL    HW118930   2.799   3.593   1.323  0.4183 -1.2541  0.1819
 6032SOL    HW218931   2.817   3.687   1.440  1.4275 -1.3483  0.1106
 6033SOL     OW18932   6.764   0.975   5.523  0.0845 -0.1741  0.0327
 6033SOL    HW118933   6.850   0.959   5.484  0.1797  3.5259 -1.6912
 6033SOL    HW218934   6.713   0.897   5.500  2.2352 -1.3491 -1.1414
 6034SOL     OW18935   0.670   2.411   7.208  0.5871 -0.0314 -0.3627
 6034SOL    HW118936   0.642   2.437   7.120 -1.5323  1.2071  0.6149
 6034SOL    HW218937   0.763   2.389   7.197  0.4581  0.3336 -2.8465
 6035SOL     OW18938   3.004   2.938   1.047  0.3219  0.1328  0.1841
 6035SOL    HW118939   3.091   2.976   1.059  0.7329 -0.6945 -0.1342
 6035SOL    HW218940   2.972   2.975   0.965  2.4159 -3.2234 -2.3952
 6036SOL     OW18941   6.387   3.622   3.113 -0.1276 -0.4882 -0.4735
 6036SOL    HW118942   6.455   3.682   3.141 -0.7014  0.4149 -0.9505
 6036SOL    HW218943   6.420   3.585   3.031 -0.8057  1.0393 -1.4665
 6037SOL     OW18944   3.035   5.672   2.280 -0.0824  0.8131 -0.1157
 6037SOL    HW118945   3.119   5.628   2.274 -1.3963 -2.0359  0.6806
 6037SOL    HW218946   3.034   5.710   2.369 -0.2093 -0.4916  0.4569
 6038SOL     OW18947   2.454   1.669   4.794 -0.0952  0.3465 -0.0720
 6038SOL    HW118948   2.515   1.738   4.821  1.2427 -0.1452 -1.6703
 6038SOL    HW218949   2.410   1.643   4.875  0.2073  2.2413  0.7611
 6039SOL     OW18950   3.903   0.235   6.006 -0.0900  0.3592  0.5142
 6039SOL    HW118951   3.980   0.288   5.984 -0.3070  0.3962 -0.1836
 6039SOL    HW218952   3.937   0.164   6.061  0.1815  1.2990  1.6014
 6040SOL     OW18953   0.529   0.599   0.324  0.4365  0.1111  0.6972
 6040SOL    HW118954   0.613   0.590   0.280 -0.8398  0.8550 -2.1097
 6040SOL    HW218955   0.518   0.693   0.338  0.4155 -0.0452  1.8403
 6041SOL     OW18956   1.228   6.669   4.047  0.4781 -0.4716 -0.4540
 6041SOL    HW118957   1.213   6.689   4.139  1.9002 -0.5217 -0.1841
 6041SOL    HW218958   1.162   6.719   4.000  0.7613  0.8363  0.5049
 6042SOL     OW18959   5.889   6.707   4.998 -0.0256  0.2740  0.1616
 6042SOL    HW118960   5.823   6.673   4.937  0.4969  1.1133 -0.9090
 6042SOL    HW218961   5.910   6.794   4.964 -0.5851  1.2908  2.2218
 6043SOL     OW18962   3.071   1.294   6.449  0.2424 -0.2573 -0.1460
 6043SOL    HW118963   3.082   1.274   6.357  1.9623 -0.5250  0.0822
 6043SOL    HW218964   3.160   1.295   6.484 -0.1648  2.0892  1.0381
 6044SOL     OW18965   1.207   1.337   5.311 -0.0101 -0.1450 -0.2585
 6044SOL    HW118966   1.182   1.333   5.404  0.8457 -1.0616 -0.0496
 6044SOL    HW218967   1.247   1.252   5.294  1.0402  0.5006 -1.1165
 6045SOL     OW18968   6.446   5.212   4.756 -0.0596 -0.0140 -0.0566
 6045SOL    HW118969   6.447   5.128   4.801 -0.6679  0.6197  1.1917
 6045SOL    HW218970   6.392   5.269   4.811 -1.0798  0.7402 -1.7229
 6046SOL     OW18971   1.926   6.608   3.890  0.0513 -0.0771  0.1323
 6046SOL    HW118972   1.871   6.663   3.835  1.0811 -0.8030 -1.6996
 6046SOL    HW218973   1.881   6.523   3.892  0.0387 -0.0665  0.4040
 6047SOL     OW18974   1.723   2.426   6.812 -0.2095  0.2044 -0.8063
 6047SOL    HW118975   1.772   2.350   6.781  0.9508  0.7792 -0.4466
 6047SOL    HW218976   1.777   2.463   6.883 -0.4245  1.7136 -1.3797
 6048SOL     OW18977   0.059   0.530   5.540  0.7633  0.7714  0.4606
 6048SOL    HW118978  -0.005   0.476   5.586  1.6366 -1.5921 -0.9094
 6048SOL    HW218979   0.014   0.613   5.524 -0.9960  0.1320  1.8256
 6049SOL     OW18980   0.731   4.985   5.612  0.2259 -0.0593  0.0881
 6049SOL    HW118981   0.718   4.921   5.542 -0.3880 -0.4519  0.5528
 6049SOL    HW218982   0.729   4.933   5.692  1.5589  0.2984  0.3701
 6050SOL     OW18983   1.416   5.425   5.657  0.3402 -0.0623  0.3911
 6050SOL    HW118984   1.464   5.392   5.580  1.4580  1.0625  0.5760
 6050SOL    HW218985   1.453   5.512   5.673 -0.3965  0.0248  1.7660
 6051SOL     OW18986   7.215   4.733   2.126 -0.4277  0.5770  1.1006
 6051SOL    HW118987   7.259   4.800   2.073 -0.2178 -0.1654  0.3037
 6051SOL    HW218988   7.186   4.668   2.061  1.0371 -1.0605  2.0179
 6052SOL     OW18989   7.833   2.487   4.320  0.1002 -0.1183 -0.5502
 6052SOL    HW118990   7.815   2.441   4.402  0.8300  0.1482 -0.2242
 6052SOL    HW218991   7.793   2.433   4.252 -1.3365  0.1429  0.0534
 6053SOL     OW18992   5.099   0.693   4.409 -0.1427 -0.4274 -0.6862
 6053SOL    HW118993   5.059   0.692   4.322 -0.0366  0.4794 -0.7550
 6053SOL    HW218994   5.049   0.757   4.459  0.4481 -0.1692 -0.4039
 6054SOL     OW18995   2.539   2.929   5.939 -0.1973  0.1916 -0.0402
 6054SOL    HW118996   2.601   2.928   5.866  0.5488 -1.6848  0.5563
 6054SOL    HW218997   2.473   2.865   5.914 -1.0353  0.9886  0.0772
 6055SOL     OW18998   5.884   0.642   1.397 -0.6518  0.0385 -0.6348
 6055SOL    HW118999   5.970   0.683   1.401 -0.8994  0.4895  0.2883
 6055SOL    HW219000   5.902   0.550   1.381  0.1088 -0.1742  1.1989
 6056SOL     OW19001   4.480   0.022   0.996 -0.2370  0.2985 -0.4190
 6056SOL    HW119002   4.491  -0.064   1.036  0.9964  0.6211 -0.0389
 6056SOL    HW219003   4.401   0.058   1.038  0.6143  0.3295  1.2196
 6057SOL     OW19004   7.646   2.545   4.548  0.1200 -0.7684 -0.5732
 6057SOL    HW119005   7.618   2.582   4.465  0.8204 -0.0046 -0.4832
 6057SOL    HW219006   7.729   2.589   4.567 -0.7006  0.1143  1.2003
 6058SOL     OW19007   4.416   5.369   1.552  0.7807 -0.4291 -0.3580
 6058SOL    HW119008   4.504   5.380   1.587  0.6533 -0.3459 -0.0605
 6058SOL    HW219009   4.395   5.455   1.514  0.1682  0.0975  1.0943
 6059SOL     OW19010   3.766   2.847   2.612  0.4437 -0.2452 -0.5552
 6059SOL    HW119011   3.780   2.887   2.526  1.2804  1.2627  0.2311
 6059SOL    HW219012   3.847   2.800   2.630  0.5884  0.1201 -0.2497
 6060SOL     OW19013   2.815   4.921   1.230 -0.5435  0.0742  0.0964
 6060SOL    HW119014   2.874   4.993   1.251  0.3692 -1.1355  1.9500
 6060SOL    HW219015   2.873   4.855   1.191 -0.9624 -0.4936  0.4305
 6061SOL     OW19016   5.510   4.375   5.329  0.0303  0.8701  0.4811
 6061SOL    HW119017   5.593   4.420   5.316  1.3797 -1.1254  1.6494
 6061SOL    HW219018   5.450   4.415   5.266  1.1085  4.1673  1.3591
 6062SOL     OW19019   3.736   1.838   1.458 -0.5281 -0.0586 -0.1410
 6062SOL    HW119020   3.825   1.840   1.495 -0.2733 -1.2327 -0.6216
 6062SOL    HW219021   3.746   1.873   1.370 -1.0740  2.4204  0.7187
 6063SOL     OW19022   0.455   7.203   0.793  0.0164 -0.4418 -0.0514
 6063SOL    HW119023   0.424   7.292   0.813 -0.1650 -0.4946 -0.0956
 6063SOL    HW219024   0.544   7.216   0.762  0.7650 -0.4698  1.9699
 6064SOL     OW19025   1.621   0.319   7.052 -0.1797  1.1030  0.9023
 6064SOL    HW119026   1.673   0.398   7.038 -1.8287  2.6402  2.7991
 6064SOL    HW219027   1.661   0.277   7.128 -1.1832  1.8596  1.8687
 6065SOL     OW19028   6.146   7.715   1.906  0.2288  0.0112  0.5343
 6065SOL    HW119029   6.139   7.622   1.929  0.3484 -0.1122  0.0769
 6065SOL    HW219030   6.187   7.715   1.819 -1.5675  0.3980 -0.3539
 6066SOL     OW19031   2.603   3.093   2.046  0.4945 -0.3606  0.3545
 6066SOL    HW119032   2.552   3.079   2.126  0.8095 -1.2973  0.3965
 6066SOL    HW219033   2.660   3.017   2.040  1.0550  0.1027 -0.3299
 6067SOL     OW19034   7.264   4.086   6.851 -0.0905 -0.2861 -0.6248
 6067SOL    HW119035   7.218   4.157   6.807 -2.4926 -2.1933 -1.4089
 6067SOL    HW219036   7.357   4.103   6.835 -0.6397  2.0758 -1.6314
 6068SOL     OW19037   1.728   4.503   4.880  0.5502  0.1528  0.3154
 6068SOL    HW119038   1.702   4.595   4.875 -1.5555 -0.4134 -0.0585
 6068SOL    HW219039   1.699   4.475   4.967  2.9529  0.2808  1.2353
 6069SOL     OW19040   3.127   7.082   3.926  0.4842 -0.1355  0.4400
 6069SOL    HW119041   3.093   7.114   4.010  0.2909 -2.0369  1.1238
 6069SOL    HW219042   3.213   7.047   3.946  0.7427  0.0322 -0.3160
 6070SOL     OW19043   5.082   0.940   2.952 -0.3004 -0.4504 -0.2765
 6070SOL    HW119044   5.067   0.966   2.861 -1.8401  0.1807  0.1167
 6070SOL    HW219045   5.045   1.012   3.003  0.0694 -1.0470  0.8525
 6071SOL     OW19046   6.975   2.225   3.501  0.1907  0.0300 -0.4281
 6071SOL    HW119047   7.043   2.275   3.456 -0.5502  0.1263 -1.4895
 6071SOL    HW219048   6.907   2.213   3.435 -0.2491 -1.1998  0.2117
 6072SOL     OW19049   3.544   0.525   6.313 -0.3564  0.3555  0.0864
 6072SOL    HW119050   3.509   0.598   6.261 -0.4250  0.5865  0.4571
 6072SOL    HW219051   3.639   0.530   6.301 -0.3588  0.5311  0.1511
 6073SOL     OW19052   3.897   2.938   3.445 -1.1420  0.5440 -0.0234
 6073SOL    HW119053   3.852   2.872   3.393 -1.4151  0.6759  0.0437
 6073SOL    HW219054   3.871   3.021   3.406 -2.2698  0.7090  1.0263
 6074SOL     OW19055   6.406   0.219   0.200  0.3249  0.1836  0.5807
 6074SOL    HW119056   6.432   0.200   0.109 -0.4209 -0.0285  0.4095
 6074SOL    HW219057   6.443   0.146   0.250 -0.0266 -0.1743  0.3241
 6075SOL     OW19058   7.832   4.478   0.688  0.1453 -0.0876 -0.0050
 6075SOL    HW119059   7.903   4.488   0.624  2.0094 -0.1571  1.9109
 6075SOL    HW219060   7.871   4.423   0.757 -1.6179  0.3163  1.3727
 6076SOL     OW19061   0.030   7.408   6.868 -0.0728 -0.0104 -0.2098
 6076SOL    HW119062   0.090   7.482   6.877 -0.4446  0.3410 -0.5596
 6076SOL    HW219063  -0.056   7.444   6.887  0.0174 -0.9623  2.4041
 6077SOL     OW19064   1.052   6.926   5.578  0.1974  0.0590 -0.0855
 6077SOL    HW119065   1.038   6.832   5.578  0.4253 -0.0187 -2.1567
 6077SOL    HW219066   1.063   6.949   5.671 -0.1389 -1.8819  0.4735
 6078SOL     OW19067   1.995   6.139   2.167  0.4869 -0.0471  0.2390
 6078SOL    HW119068   1.963   6.050   2.179  1.3355 -0.6277 -1.4199
 6078SOL    HW219069   2.006   6.148   2.072  1.3260  1.5002  0.4449
 6079SOL     OW19070   6.472   3.017   5.777 -0.0336 -0.8391 -0.2525
 6079SOL    HW119071   6.516   3.091   5.818  0.2021 -1.4087  0.5311
 6079SOL    HW219072   6.379   3.034   5.790  0.0480 -1.8035  1.9857
 6080SOL     OW19073   5.009   4.663   0.967 -0.6124 -0.0967 -0.0715
 6080SOL    HW119074   5.070   4.612   0.913 -0.5672 -0.4078  0.2699
 6080SOL    HW219075   4.939   4.602   0.989 -1.1206  0.2937 -0.5623
 6081SOL     OW19076   0.542   3.035   6.358 -0.0460  0.3092 -0.1432
 6081SOL    HW119077   0.488   3.082   6.421 -1.5999  0.5744 -1.6107
 6081SOL    HW219078   0.485   2.967   6.322  1.0684 -0.4005 -0.6245
 6082SOL     OW19079   2.960   3.974   2.753 -0.2373  0.2184  0.3887
 6082SOL    HW119080   3.054   3.964   2.738  0.2655  1.5451  2.3247
 6082SOL    HW219081   2.921   3.899   2.707  1.5982  0.4303 -1.6716
 6083SOL     OW19082   3.171   4.377   1.423 -0.4777  0.2318  0.2037
 6083SOL    HW119083   3.187   4.292   1.463  0.5798  0.3271  0.0138
 6083SOL    HW219084   3.183   4.440   1.495  4.3805  0.6657 -0.6821
 6084SOL     OW19085   6.217   1.244   2.230  0.2984  0.3011  0.1895
 6084SOL    HW119086   6.241   1.181   2.299  0.8966 -1.2658 -1.3846
 6084SOL    HW219087   6.253   1.327   2.261  3.0282 -0.8925  0.5216
 6085SOL     OW19088   4.620   1.501   4.611 -0.0235 -0.5889 -0.1642
 6085SOL    HW119089   4.695   1.546   4.650  0.3041 -1.9726  0.9176
 6085SOL    HW219090   4.549   1.564   4.615  1.3677  1.3073 -2.5743
 6086SOL     OW19091   1.591   6.498   3.102 -0.0847  0.4623 -0.4639
 6086SOL    HW119092   1.554   6.446   3.174 -0.2377  1.0252 -0.1346
 6086SOL    HW219093   1.631   6.433   3.044 -0.2554 -0.0235 -0.0436
 6087SOL     OW19094   6.189   1.756   3.954 -0.5062 -1.1528  0.1980
 6087SOL    HW119095   6.217   1.744   3.863 -1.1231 -1.9765  0.1079
 6087SOL    HW219096   6.270   1.748   4.004  0.1554  1.1314 -0.3743
 6088SOL     OW19097   2.778   0.023   0.440  0.2917 -0.6434  0.1152
 6088SOL    HW119098   2.698   0.050   0.394  0.1280 -0.7068  0.3622
 6088SOL    HW219099   2.754   0.024   0.533  0.3599 -1.3891  0.1454
 6089SOL     OW19100   3.571   5.749   4.331  0.0810  0.3116  0.2607
 6089SOL    HW119101   3.632   5.803   4.281 -0.1921  0.8889  0.5415
 6089SOL    HW219102   3.501   5.728   4.269  1.2671 -1.6057 -0.5087
 6090SOL     OW19103   5.425   0.195   6.640  0.9569  0.0843 -0.1495
 6090SOL    HW119104   5.410   0.220   6.548  0.0711  2.7330  0.6271
 6090SOL    HW219105   5.520   0.198   6.650  0.9614  2.1550 -0.4440
 6091SOL     OW19106   1.647   2.888   4.295 -0.0775 -0.2440 -0.0463
 6091SOL    HW119107   1.591   2.944   4.349 -0.5868  1.6538 -2.3325
 6091SOL    HW219108   1.727   2.876   4.347 -0.6927  1.1136  1.2962
 6092SOL     OW19109   5.594   0.854   3.515 -0.3573  0.1199 -0.3049
 6092SOL    HW119110   5.522   0.834   3.456 -0.6915 -1.5373  0.5822
 6092SOL    HW219111   5.611   0.771   3.561  2.6276  0.1940 -1.0301
 6093SOL     OW19112   1.482   5.747   7.130 -0.5924 -0.2884 -0.1348
 6093SOL    HW119113   1.428   5.672   7.157 -0.3045 -0.6497 -0.5391
 6093SOL    HW219114   1.423   5.822   7.133 -0.3851 -0.1634  2.2140
 6094SOL     OW19115   5.623   1.150   5.342  0.1142 -0.6131 -0.3940
 6094SOL    HW119116   5.616   1.130   5.249 -1.1780 -1.1311 -0.2104
 6094SOL    HW219117   5.537   1.187   5.364  1.3754  2.4538 -0.0668
 6095SOL     OW19118   5.143   4.156   4.065  0.2624  0.3798 -0.0982
 6095SOL    HW119119   5.099   4.165   3.981  0.4916  0.1339 -0.2437
 6095SOL    HW219120   5.218   4.216   4.059  0.6175 -0.0776 -0.2950
 6096SOL     OW19121   3.063   6.700   4.966  0.7027 -0.5381  0.0181
 6096SOL    HW119122   3.050   6.789   5.001  0.4547 -0.1211 -1.1001
 6096SOL    HW219123   3.128   6.661   5.025  0.7884  0.3734  0.5506
 6097SOL     OW19124   6.080   4.266   5.021 -0.2151 -0.3392  0.0577
 6097SOL    HW119125   6.044   4.197   5.077  0.6760 -1.2423 -0.4476
 6097SOL    HW219126   6.038   4.255   4.937 -2.1983  1.5570  0.6980
 6098SOL     OW19127   1.581   0.979   5.623  0.0773 -0.3291 -0.9480
 6098SOL    HW119128   1.493   1.006   5.648 -0.0891 -0.5085 -1.3200
 6098SOL    HW219129   1.631   1.060   5.619  1.2998 -0.5314  4.1351
 6099SOL     OW19130   4.845   3.847   6.647  0.3455  0.0435 -0.2960
 6099SOL    HW119131   4.759   3.816   6.620 -0.2332 -0.3150  1.7521
 6099SOL    HW219132   4.905   3.813   6.582 -1.0190  0.0338 -1.5961
 6100SOL     OW19133   1.362   2.534   5.917  0.2075  0.1536 -0.5372
 6100SOL    HW119134   1.420   2.538   5.841 -0.4193 -1.4572 -1.1586
 6100SOL    HW219135   1.276   2.561   5.884 -0.0668 -0.5445 -0.4286
 6101SOL     OW19136   3.105   5.148   2.906 -0.4406 -0.0874  0.1248
 6101SOL    HW119137   3.055   5.230   2.909  1.5421  1.2062 -0.4210
 6101SOL    HW219138   3.052   5.089   2.852 -1.0600  1.4601 -1.0191
 6102SOL     OW19139   3.734   7.854   6.998 -0.1761  0.3314 -0.4531
 6102SOL    HW119140   3.761   7.916   6.930  1.5600 -0.6432 -0.7271
 6102SOL    HW219141   3.726   7.770   6.952  0.5680 -0.2502  0.4269
 6103SOL     OW19142   0.845   0.252   7.288  0.0597 -0.1552 -0.4823
 6103SOL    HW119143   0.898   0.331   7.293  0.5945 -0.5869  1.1477
 6103SOL    HW219144   0.884   0.202   7.215 -0.4707  1.1618 -1.7116
 6104SOL     OW19145   2.357   1.818   6.397 -0.1552 -0.3839 -0.9445
 6104SOL    HW119146   2.450   1.840   6.384  0.0957  0.1653  1.3809
 6104SOL    HW219147   2.314   1.902   6.407 -0.2436 -0.6629  1.6635
 6105SOL     OW19148   6.421   0.557   1.523 -0.2908  0.9019 -0.6473
 6105SOL    HW119149   6.408   0.559   1.618 -1.7002  1.8961 -0.8287
 6105SOL    HW219150   6.478   0.481   1.508 -1.0372 -0.0017  0.8603
 6106SOL     OW19151   7.110   4.543   4.690 -0.3608 -0.2305 -0.7783
 6106SOL    HW119152   7.125   4.520   4.782  1.5456 -0.6721 -1.1544
 6106SOL    HW219153   7.194   4.577   4.660 -0.8405 -0.4264 -2.4552
 6107SOL     OW19154   6.813   2.336   1.298  0.0470  0.0483 -0.1828
 6107SOL    HW119155   6.875   2.347   1.370 -1.7968  2.2335  1.2467
 6107SOL    HW219156   6.748   2.273   1.331 -0.2655  0.2979 -0.3119
 6108SOL     OW19157   1.416   2.516   7.302  0.0338 -0.1965 -0.7502
 6108SOL    HW119158   1.339   2.524   7.247 -0.2061 -1.7090 -0.6817
 6108SOL    HW219159   1.419   2.598   7.352 -0.9161  0.3156 -1.5031
 6109SOL     OW19160   3.205   2.070   4.464  0.4093 -0.5169  0.4448
 6109SOL    HW119161   3.119   2.029   4.473  0.2889  0.1580  3.1176
 6109SOL    HW219162   3.258   2.004   4.420 -1.9560 -0.0865 -3.6149
 6110SOL     OW19163   6.362   6.871   3.765 -0.0996  0.2234 -0.4084
 6110SOL    HW119164   6.457   6.869   3.752 -0.2516  0.3332 -1.6230
 6110SOL    HW219165   6.343   6.794   3.819  1.0027  1.7165  2.3132
 6111SOL     OW19166   3.092   1.368   7.682 -0.4685 -0.0168 -0.0611
 6111SOL    HW119167   3.158   1.349   7.615  0.7902 -0.5895  1.2762
 6111SOL    HW219168   3.028   1.297   7.673  1.2508 -1.8418  1.2083
 6112SOL     OW19169   6.710   6.956   6.268 -0.5970  0.1408  0.5588
 6112SOL    HW119170   6.654   6.894   6.315  0.3134 -1.8470 -0.8636
 6112SOL    HW219171   6.653   6.997   6.203 -0.7300 -0.8612  0.0319
 6113SOL     OW19172   4.681   0.312   1.970  0.0314  0.3189 -0.5357
 6113SOL    HW119173   4.656   0.302   1.878 -3.1181  3.0544 -0.1794
 6113SOL    HW219174   4.618   0.260   2.019 -0.0223  0.9871  0.1403
 6114SOL     OW19175   4.445   3.502   2.780 -0.3128 -0.0931  0.1474
 6114SOL    HW119176   4.378   3.444   2.742 -1.5762  0.6094  1.2112
 6114SOL    HW219177   4.410   3.526   2.866  0.3503  1.9192 -0.0919
 6115SOL     OW19178   2.302   5.907   6.253  0.2797  0.0904  0.6630
 6115SOL    HW119179   2.362   5.912   6.178  0.8799 -0.3822  1.1045
 6115SOL    HW219180   2.284   5.998   6.274 -0.5467  0.2373 -0.5613
 6116SOL     OW19181   3.045   7.160   4.152  0.3433  0.0941  0.4657
 6116SOL    HW119182   3.070   7.237   4.203  0.8371 -0.1564  0.6116
 6116SOL    HW219183   3.060   7.086   4.211 -0.2355 -0.1105  0.3656
 6117SOL     OW19184   4.856   4.068   6.164 -0.5898 -0.1978 -0.1013
 6117SOL    HW119185   4.797   3.992   6.170 -0.4131 -0.5877 -2.4823
 6117SOL    HW219186   4.837   4.106   6.078  0.1382  1.8091  0.5789
 6118SOL     OW19187   3.787   2.923   2.351  0.2752 -0.2994  0.2686
 6118SOL    HW119188   3.732   3.001   2.358 -0.0799 -0.2608 -2.0598
 6118SOL    HW219189   3.731   2.858   2.309  1.0538 -1.3010  0.7460
 6119SOL     OW19190   1.317   5.546   7.218 -0.4954  0.1311  0.0010
 6119SOL    HW119191   1.362   5.466   7.246 -0.2300  0.1773 -0.2817
 6119SOL    HW219192   1.240   5.552   7.275  0.2153  0.4144  0.9527
 6120SOL     OW19193   1.117   0.266   1.052  0.1295 -0.1818 -0.2339
 6120SOL    HW119194   1.038   0.213   1.052 -1.2286  1.6647 -1.8507
 6120SOL    HW219195   1.141   0.273   0.959  0.1973  2.0140 -0.1000
 6121SOL     OW19196   5.808   7.875   1.757  0.2329  0.0600  0.2189
 6121SOL    HW119197   5.753   7.951   1.742 -0.3621 -0.3201  0.4603
 6121SOL    HW219198   5.818   7.870   1.852 -0.4792 -0.6861  0.2588
 6122SOL     OW19199   6.338   2.830   6.996  0.1157  0.2041  0.2844
 6122SOL    HW119200   6.296   2.872   7.070  1.1936  2.1020 -0.1139
 6122SOL    HW219201   6.266   2.793   6.945 -0.8000  0.7603  1.1404
 6123SOL     OW19202   1.351   6.861   0.902 -0.2046 -0.1316  0.0507
 6123SOL    HW119203   1.266   6.845   0.861 -1.3384 -0.7871  2.4903
 6123SOL    HW219204   1.337   6.843   0.995  2.1948  1.3886  0.7947
 6124SOL     OW19205   0.592   5.843   2.844 -0.4594  0.0305  0.2035
 6124SOL    HW119206   0.670   5.888   2.876  0.1058  0.2806 -1.4436
 6124SOL    HW219207   0.520   5.905   2.861  0.0904  0.9200 -0.5918
 6125SOL     OW19208   3.233   3.391   7.758 -0.1979  0.5506  0.0740
 6125SOL    HW119209   3.169   3.420   7.822  0.0789  0.9483  0.1785
 6125SOL    HW219210   3.264   3.307   7.792 -0.2058  0.6582  0.3563
 6126SOL     OW19211   0.052   3.919   4.101 -0.0426  0.1047 -0.2926
 6126SOL    HW119212   0.116   3.915   4.172 -0.1736  1.5597 -0.0743
 6126SOL    HW219213   0.072   3.999   4.054 -0.6367 -0.2941 -1.2686
 6127SOL     OW19214   2.335   4.334   5.788 -0.4822  0.4747 -0.3092
 6127SOL    HW119215   2.289   4.371   5.863 -1.1645 -0.9109 -0.0158
 6127SOL    HW219216   2.315   4.394   5.716 -1.9728  0.4181  0.0234
 6128SOL     OW19217   1.398   6.267   5.829 -0.2499 -0.0635  0.3596
 6128SOL    HW119218   1.310   6.245   5.799  0.2146 -2.0128  0.3279
 6128SOL    HW219219   1.446   6.184   5.827  1.2650  0.7366  1.4985
 6129SOL     OW19220   4.410   0.147   4.419  0.0868  0.0050  0.1164
 6129SOL    HW119221   4.487   0.127   4.472  0.6467  2.3864  0.3111
 6129SOL    HW219222   4.437   0.129   4.329  0.6423  0.1411  0.2509
 6130SOL     OW19223   4.275   7.735   1.208 -0.3806  0.3755  0.1271
 6130SOL    HW119224   4.265   7.655   1.158 -0.1220  0.4340 -0.0199
 6130SOL    HW219225   4.370   7.750   1.211 -0.4349  0.7536  0.0246
 6131SOL     OW19226   6.738   3.502   0.459 -0.2511 -0.5915 -0.1713
 6131SOL    HW119227   6.735   3.542   0.546  1.6453 -0.8936  0.0859
 6131SOL    HW219228   6.700   3.568   0.401 -3.3485 -1.1328  1.0602
 6132SOL     OW19229   6.937   7.534   6.940  0.1617  0.5144  0.3090
 6132SOL    HW119230   6.980   7.522   7.025  0.9785 -1.1088 -0.3009
 6132SOL    HW219231   7.008   7.537   6.877 -0.5174 -0.7633 -0.5615
 6133SOL     OW19232   0.011   1.136   0.961 -0.1076 -0.2080  0.0456
 6133SOL    HW119233   0.063   1.079   1.018  1.0615 -0.5840 -1.3460
 6133SOL    HW219234   0.024   1.100   0.873 -1.1230  0.9107 -0.5865
 6134SOL     OW19235   0.481   0.457   0.064 -0.6241 -0.4352  0.7598
 6134SOL    HW119236   0.404   0.469   0.119 -2.0127 -1.0737 -0.9719
 6134SOL    HW219237   0.455   0.390  -0.000  0.2240  1.6000 -1.8727
 6135SOL     OW19238   2.284   2.236   4.734  0.0579  0.1151 -0.5157
 6135SOL    HW119239   2.329   2.153   4.717  0.1105 -0.0184  0.2130
 6135SOL    HW219240   2.351   2.303   4.720  0.1061  0.0117 -0.7816
 6136SOL     OW19241   0.295   5.868   0.861  0.5723 -0.4831  0.2823
 6136SOL    HW119242   0.212   5.843   0.820  2.1971 -3.5817 -1.5191
 6136SOL    HW219243   0.270   5.898   0.948 -2.4655 -0.5160 -0.4345
 6137SOL     OW19244   6.435   3.845   1.457 -0.0532  0.4411  0.3025
 6137SOL    HW119245   6.506   3.881   1.510  1.0775 -1.3100  0.0573
 6137SOL    HW219246   6.420   3.758   1.494 -0.1270 -0.3144 -1.4365
 6138SOL     OW19247   1.117   7.159   3.324 -0.2115 -0.3160  0.2145
 6138SOL    HW119248   1.041   7.102   3.315  0.5446 -1.2411 -0.5496
 6138SOL    HW219249   1.146   7.146   3.414 -1.9876  1.4313  1.1152
 6139SOL     OW19250   7.016   7.609   2.034  0.1453 -0.1871  0.6915
 6139SOL    HW119251   6.938   7.583   2.085  0.7758 -0.5191  1.5127
 6139SOL    HW219252   7.080   7.541   2.054  1.0802  0.7926  1.0747
 6140SOL     OW19253   6.705   2.086   7.378 -0.5836 -0.4487  0.0751
 6140SOL    HW119254   6.623   2.135   7.388  1.4529  3.0352  1.6959
 6140SOL    HW219255   6.726   2.056   7.466  0.6754  0.2224  0.0301
 6141SOL     OW19256   0.014   6.940   0.703  0.1861  0.4269 -0.2302
 6141SOL    HW119257   0.100   6.952   0.744 -0.3066 -1.1559  1.3889
 6141SOL    HW219258  -0.046   6.985   0.762 -0.3742 -0.6782  0.0655
 6142SOL     OW19259   0.365   3.131   3.819 -0.9412  0.0901  0.1123
 6142SOL    HW119260   0.339   3.039   3.828  1.4872 -0.5739  0.9320
 6142SOL    HW219261   0.449   3.137   3.863  0.7406  1.9028 -3.0095
 6143SOL     OW19262   7.576   6.509   3.014  0.2959 -0.0859  0.5428
 6143SOL    HW119263   7.630   6.472   3.084  2.4617 -0.6586 -1.2626
 6143SOL    HW219264   7.566   6.436   2.952 -1.2316  0.5012  0.0572
 6144SOL     OW19265   1.534   5.048   6.131 -0.4621  0.1266  0.2702
 6144SOL    HW119266   1.579   5.130   6.151 -0.6594  0.5647 -0.9622
 6144SOL    HW219267   1.498   5.062   6.043 -0.5364 -1.2590  0.0624
 6145SOL     OW19268   5.945   5.459   3.253  0.1337  0.0430  0.2050
 6145SOL    HW119269   6.011   5.519   3.217  0.3889 -1.0529 -1.2805
 6145SOL    HW219270   5.906   5.507   3.326 -0.0517  2.2191 -1.2316
 6146SOL     OW19271   4.709   4.665   3.303 -0.1481 -0.5852  0.6264
 6146SOL    HW119272   4.632   4.691   3.252 -0.4528 -1.7369  0.4591
 6146SOL    HW219273   4.706   4.721   3.381 -0.6958 -0.0528  0.2364
 6147SOL     OW19274   0.958   4.850   0.617 -0.0493 -0.0651 -0.0231
 6147SOL    HW119275   1.026   4.917   0.602 -0.6399  0.3658 -0.8936
 6147SOL    HW219276   0.905   4.885   0.688  1.5747 -1.1693  1.8278
 6148SOL     OW19277   5.026   0.973   0.031  0.0129 -0.3651 -0.1644
 6148SOL    HW119278   4.960   0.985  -0.037  0.7397  1.1596 -0.6347
 6148SOL    HW219279   5.105   1.014  -0.003  0.9781 -1.3796  0.7611
 6149SOL     OW19280   6.528   7.049   6.589  0.2766 -0.1572  0.0361
 6149SOL    HW119281   6.588   7.016   6.655  0.6032  1.0432  0.3449
 6149SOL    HW219282   6.441   7.030   6.624  0.4369 -1.7900 -0.3618
 6150SOL     OW19283   4.540   3.569   3.145 -0.8378 -0.4484 -0.6640
 6150SOL    HW119284   4.603   3.640   3.130 -0.0175 -1.3572 -1.6441
 6150SOL    HW219285   4.512   3.581   3.236 -0.6917  1.1002 -0.7883
 6151SOL     OW19286   3.634   0.634   5.360 -0.0939 -0.1294 -0.0060
 6151SOL    HW119287   3.620   0.603   5.449  2.0696  0.5957  0.6455
 6151SOL    HW219288   3.655   0.555   5.310 -1.5184 -0.5668  0.0386
 6152SOL     OW19289   3.903   3.049   0.351  0.4418 -0.4024 -0.1655
 6152SOL    HW119290   3.986   3.002   0.352  1.5826  1.5158 -0.0948
 6152SOL    HW219291   3.905   3.100   0.270 -0.3861  0.1753  0.1679
 6153SOL     OW19292   0.006   4.045   1.432 -0.4095 -0.1932  0.2634
 6153SOL    HW119293   0.030   3.999   1.352 -0.5564 -0.0826  0.1557
 6153SOL    HW219294   0.060   4.004   1.500 -1.0164 -0.9642  0.2879
 6154SOL     OW19295   0.430   2.633   5.291 -0.4341 -0.4458  0.6784
 6154SOL    HW119296   0.426   2.612   5.198  1.9809  1.8622 -0.0651
 6154SOL    HW219297   0.385   2.560   5.334 -0.7326 -2.1019 -2.2034
 6155SOL     OW19298   0.518   7.834   7.515 -0.1623 -0.1187  0.5090
 6155SOL    HW119299   0.430   7.849   7.480  0.3579  0.3573 -0.6471
 6155SOL    HW219300   0.569   7.908   7.483  0.4469  0.1296  1.9978
 6156SOL     OW19301   0.338   4.180   3.422  0.4485  0.2472  0.2337
 6156SOL    HW119302   0.263   4.222   3.380  0.3600 -0.7852 -0.6793
 6156SOL    HW219303   0.386   4.139   3.350  0.0065 -2.0495  1.1517
 6157SOL     OW19304   6.283   2.381   7.806 -0.4408 -0.2940 -0.1217
 6157SOL    HW119305   6.354   2.368   7.869  0.0739 -0.1867 -0.6728
 6157SOL    HW219306   6.206   2.344   7.849 -0.2088  0.2405  0.7906
 6158SOL     OW19307   0.510   7.063   7.341 -0.0137 -0.2881  0.0385
 6158SOL    HW119308   0.436   7.017   7.303  0.0119  0.4343 -0.9089
 6158SOL    HW219309   0.500   7.154   7.312  1.2016 -0.1706 -0.0622
 6159SOL     OW19310   2.227   4.176   3.282  0.5357  0.5287 -0.0249
 6159SOL    HW119311   2.257   4.185   3.192  3.1852  2.5141  0.9231
 6159SOL    HW219312   2.307   4.174   3.334 -0.8587 -1.6434  2.2770
 6160SOL     OW19313   5.614   6.563   0.471 -0.3935 -0.1720 -0.1372
 6160SOL    HW119314   5.553   6.590   0.403 -1.2230  1.4526  1.1673
 6160SOL    HW219315   5.641   6.475   0.446 -2.1367 -0.3597 -1.5406
 6161SOL     OW19316   3.190   4.565   4.979  0.4035  0.9033  0.5373
 6161SOL    HW119317   3.202   4.490   4.922 -0.4803  0.4591  0.9183
 6161SOL    HW219318   3.276   4.581   5.018  0.9055  0.9316 -0.5596
 6162SOL     OW19319   0.393   5.898   7.529  0.0814  0.5355  0.1005
 6162SOL    HW119320   0.445   5.889   7.449 -0.1946 -2.0545  0.1147
 6162SOL    HW219321   0.302   5.897   7.499 -0.0687 -1.7455  0.4272
 6163SOL     OW19322   7.496   5.548   2.271  0.5765 -0.3345  0.3337
 6163SOL    HW119323   7.496   5.453   2.270  1.2156 -0.3549 -1.5359
 6163SOL    HW219324   7.542   5.573   2.191 -0.7690  1.5443  0.0869
 6164SOL     OW19325   5.268   2.947   6.298  0.2725  0.6353 -0.1067
 6164SOL    HW119326   5.336   2.957   6.365  0.9742  0.8272 -0.8242
 6164SOL    HW219327   5.245   2.854   6.302  0.6269  0.5514  0.1053
 6165SOL     OW19328   2.654   3.618   2.652  0.2276  0.6913  0.3855
 6165SOL    HW119329   2.628   3.707   2.675  1.4425  1.4186 -0.8892
 6165SOL    HW219330   2.748   3.616   2.665  0.2916 -0.2591 -0.1113
 6166SOL     OW19331   1.930   6.088   0.602 -0.7550 -0.1192 -0.1181
 6166SOL    HW119332   1.879   6.118   0.677  0.8723 -0.4534  1.1750
 6166SOL    HW219333   1.939   5.994   0.615  0.9670  0.0620  0.2206
 6167SOL     OW19334   2.799   6.134   1.199 -0.2157  0.2988  0.0769
 6167SOL    HW119335   2.837   6.079   1.131  1.4162 -0.5321  1.5991
 6167SOL    HW219336   2.783   6.218   1.156  2.1007  0.2554 -0.9881
 6168SOL     OW19337   4.761   3.970   4.096 -0.2421 -0.0295  0.9971
 6168SOL    HW119338   4.836   3.924   4.060 -1.7376 -2.4257  0.7120
 6168SOL    HW219339   4.685   3.930   4.053 -1.7787  1.3196  2.2899
 6169SOL     OW19340   3.987   7.574   0.172 -0.6719 -0.6122  0.3100
 6169SOL    HW119341   4.032   7.627   0.105  0.0422 -1.4068  0.1395
 6169SOL    HW219342   3.897   7.605   0.170 -0.7239 -0.7485 -1.1822
 6170SOL     OW19343   5.461   4.886   6.969 -0.6442  0.9624  0.1209
 6170SOL    HW119344   5.394   4.850   7.027 -1.0829  1.4449 -0.0723
 6170SOL    HW219345   5.439   4.979   6.961 -0.3264  0.9986 -0.4523
 6171SOL     OW19346   1.810   2.918   0.212  0.1026 -0.0924  0.5272
 6171SOL    HW119347   1.825   2.867   0.291  0.3786  0.1185  0.6125
 6171SOL    HW219348   1.776   3.002   0.243  0.0186 -0.0825  0.4107
 6172SOL     OW19349   4.991   0.420   7.101  0.2656 -0.3740 -0.7055
 6172SOL    HW119350   4.971   0.330   7.074  1.1818 -1.4265  1.8357
 6172SOL    HW219351   4.913   0.449   7.149  0.6016 -0.4374 -0.1148
 6173SOL     OW19352   0.116   3.549   3.862  0.3643  0.1610  0.1726
 6173SOL    HW119353   0.193   3.512   3.818 -0.3350 -0.9974 -0.1278
 6173SOL    HW219354   0.130   3.643   3.860  1.5227 -0.0024 -0.3403
 6174SOL     OW19355   5.454   3.748   7.684  0.1094  0.6569 -0.1816
 6174SOL    HW119356   5.403   3.782   7.758  0.6449  0.9700  0.0546
 6174SOL    HW219357   5.481   3.826   7.636 -0.6757  0.4229 -1.0109
 6175SOL     OW19358   3.342   0.026   7.641 -0.7469  0.1791 -0.3856
 6175SOL    HW119359   3.402  -0.044   7.615  0.3865  0.4840  1.3211
 6175SOL    HW219360   3.263  -0.020   7.668 -0.5116 -0.3543 -0.5795
 6176SOL     OW19361   6.763   7.779   7.366  0.0110  0.0887  0.6601
 6176SOL    HW119362   6.699   7.708   7.360  0.0296  0.1731 -2.1562
 6176SOL    HW219363   6.718   7.848   7.414 -1.7140 -0.2258 -0.4075
 6177SOL     OW19364   0.542   7.436   6.190  0.4477  0.3437  0.3844
 6177SOL    HW119365   0.466   7.489   6.211  1.1656  2.2972 -1.5669
 6177SOL    HW219366   0.593   7.434   6.270 -1.0476 -0.0075  1.3695
 6178SOL     OW19367   3.042   3.181   5.509  0.2534  0.5173 -0.3623
 6178SOL    HW119368   3.099   3.173   5.585 -0.1370  0.1472 -0.1061
 6178SOL    HW219369   3.101   3.203   5.437  0.6225  0.8515  0.0422
 6179SOL     OW19370   6.312   1.249   7.634  0.2648  0.5531  0.3044
 6179SOL    HW119371   6.252   1.203   7.575  0.8421  0.3863 -0.1585
 6179SOL    HW219372   6.326   1.334   7.592  1.3418  0.1224 -0.2568
 6180SOL     OW19373   2.173   4.784   4.160 -0.0162  1.2914 -0.7811
 6180SOL    HW119374   2.241   4.778   4.093  0.3327 -1.8934 -0.2957
 6180SOL    HW219375   2.100   4.731   4.126 -0.4523  0.9181  0.6553
 6181SOL     OW19376   6.473   3.415   2.827  0.2960  0.2693 -0.2025
 6181SOL    HW119377   6.466   3.507   2.800  1.0700  0.4448  0.1733
 6181SOL    HW219378   6.557   3.410   2.872  0.6350 -0.8035 -0.9210
 6182SOL     OW19379   1.738   1.123   3.740  0.3240 -0.2186  0.4460
 6182SOL    HW119380   1.743   1.215   3.766  1.1830 -0.1547  0.0709
 6182SOL    HW219381   1.647   1.098   3.757  0.2880  0.4723  1.2986
 6183SOL     OW19382   3.843   0.269   5.724  0.1172 -0.1712  0.0970
 6183SOL    HW119383   3.935   0.283   5.701  0.6485 -2.3924  0.6252
 6183SOL    HW219384   3.844   0.247   5.817 -0.7051 -2.0606 -0.3050
 6184SOL     OW19385   0.392   4.057   4.400  0.4690  0.4929 -0.4521
 6184SOL    HW119386   0.426   4.057   4.490 -0.4200  1.4491 -0.1038
 6184SOL    HW219387   0.466   4.088   4.347  0.6110  1.1130  0.1023
 6185SOL     OW19388   0.245   7.870   4.534 -0.2541  0.3817 -0.2644
 6185SOL    HW119389   0.236   7.813   4.611 -0.2652 -1.6087 -1.6443
 6185SOL    HW219390   0.340   7.877   4.521 -0.2586  0.3373 -0.3220
 6186SOL     OW19391   2.358   3.890   6.213 -0.4353  0.5255  0.2181
 6186SOL    HW119392   2.345   3.964   6.153  1.1212 -0.6991 -1.7686
 6186SOL    HW219393   2.429   3.839   6.173 -1.0460 -1.7442  1.8310
 6187SOL     OW19394   2.809   6.080   3.465  0.0550  0.4699  0.2510
 6187SOL    HW119395   2.757   6.004   3.439  1.8683 -0.3590 -1.1619
 6187SOL    HW219396   2.839   6.059   3.554  2.4918 -1.7150 -0.9272
 6188SOL     OW19397   0.930   0.285   2.013 -0.1504 -0.2884 -0.3796
 6188SOL    HW119398   0.866   0.342   1.970 -0.7333  1.4620  2.5237
 6188SOL    HW219399   1.005   0.342   2.029  0.3392 -1.0979  0.2500
 6189SOL     OW19400   7.401   4.524   4.280 -0.4580 -0.1248 -0.3354
 6189SOL    HW119401   7.352   4.444   4.263 -1.3455  0.4839 -0.7018
 6189SOL    HW219402   7.492   4.495   4.288 -0.9561 -1.4033  1.2477
 6190SOL     OW19403   7.302   3.151   1.352 -0.0297  0.1168  0.3856
 6190SOL    HW119404   7.216   3.175   1.319 -0.5543 -2.5102 -0.3650
 6190SOL    HW219405   7.284   3.104   1.434  0.7589  0.2144  0.6269
 6191SOL     OW19406   0.617   0.496   4.363  0.1520  0.8332  0.0438
 6191SOL    HW119407   0.682   0.554   4.401 -0.2157  0.9308  0.5348
 6191SOL    HW219408   0.668   0.424   4.326  0.6293  1.5614 -0.7587
 6192SOL     OW19409   0.077   2.998   5.622  0.0543  0.1592  0.3182
 6192SOL    HW119410   0.052   2.937   5.552 -0.2009  0.3741  0.2216
 6192SOL    HW219411   0.072   3.085   5.582  0.5525  0.2379  0.4177
 6193SOL     OW19412   3.163   2.997   3.996 -0.0825 -0.2369 -0.3392
 6193SOL    HW119413   3.071   3.024   3.998 -0.0707 -0.1874 -0.4572
 6193SOL    HW219414   3.160   2.901   4.004 -0.0898 -0.1528  0.8478
 6194SOL     OW19415   2.064   0.592   5.865 -0.7375  0.2750  0.0199
 6194SOL    HW119416   2.006   0.635   5.803 -1.9052 -1.1646  0.0723
 6194SOL    HW219417   2.078   0.656   5.935 -1.0430  1.1662 -0.7298
 6195SOL     OW19418   5.519   5.057   3.689 -0.0579  1.3461 -0.1040
 6195SOL    HW119419   5.545   5.118   3.620  0.8897  1.1116  0.0349
 6195SOL    HW219420   5.536   5.105   3.771 -0.0073  1.1662 -0.0088
 6196SOL     OW19421   6.509   7.711   0.350 -0.3624 -0.6027  0.4482
 6196SOL    HW119422   6.452   7.763   0.407  0.5342 -0.1403  0.9341
 6196SOL    HW219423   6.474   7.726   0.262  0.3202  1.4464  0.4728
 6197SOL     OW19424   5.877   0.737   5.945  0.3922  0.9375 -0.2383
 6197SOL    HW119425   5.950   0.799   5.949 -1.1710  2.8376  0.9106
 6197SOL    HW219426   5.827   0.765   5.868  0.0834  0.5833 -0.1662
 6198SOL     OW19427   2.722   4.231   5.004  0.2816  0.0222 -0.3069
 6198SOL    HW119428   2.695   4.195   4.920  1.9499 -0.1612 -0.8010
 6198SOL    HW219429   2.744   4.322   4.985 -0.1650  0.2279  0.1271
 6199SOL     OW19430   0.068   0.825   6.102  0.4766  0.3095  0.5944
 6199SOL    HW119431   0.071   0.898   6.040 -2.9074 -0.8680 -1.1555
 6199SOL    HW219432   0.004   0.852   6.167 -0.0220 -0.6639  0.5153
 6200SOL     OW19433   7.696   2.245   1.094 -0.4884  0.2345 -0.3366
 6200SOL    HW119434   7.693   2.230   1.188 -0.5185  0.5949 -0.2794
 6200SOL    HW219435   7.652   2.329   1.081 -1.6595 -0.4343 -0.8131
 6201SOL     OW19436   0.958   3.968   5.431 -0.1422  0.3246 -0.3770
 6201SOL    HW119437   0.891   4.007   5.487 -0.0192 -1.2867  0.9522
 6201SOL    HW219438   0.912   3.944   5.351 -1.2079 -0.8939  0.5735
 6202SOL     OW19439   4.382   1.460   3.118  0.0695 -0.6173 -0.0510
 6202SOL    HW119440   4.343   1.537   3.160  2.0871  1.0828 -1.1263
 6202SOL    HW219441   4.379   1.392   3.185 -1.6984  0.3787  0.9704
 6203SOL     OW19442   0.291   4.158   4.881 -0.0649  0.1263  0.0640
 6203SOL    HW119443   0.250   4.089   4.829 -0.8500  0.1160  0.6717
 6203SOL    HW219444   0.312   4.115   4.964 -0.1793  0.5115  0.2935
 6204SOL     OW19445   4.880   2.973   1.183  0.4059  0.3199 -0.0859
 6204SOL    HW119446   4.807   2.937   1.133  0.2645  0.6356 -0.1104
 6204SOL    HW219447   4.845   3.054   1.221  1.1386  1.1741 -1.1838
 6205SOL     OW19448   4.080   6.655   6.972 -0.3268 -0.5125  0.2037
 6205SOL    HW119449   4.020   6.725   6.946 -0.6054 -1.2428 -1.2290
 6205SOL    HW219450   4.167   6.690   6.955 -0.4740 -0.5979 -0.7913
 6206SOL     OW19451   6.589   3.380   2.305  0.4174 -0.0254 -0.0399
 6206SOL    HW119452   6.637   3.375   2.223  0.2810 -1.0930 -0.0806
 6206SOL    HW219453   6.497   3.378   2.279  0.3724 -0.1913  0.1270
 6207SOL     OW19454   6.583   2.958   0.671 -0.1129 -0.1501  0.2158
 6207SOL    HW119455   6.583   3.053   0.656 -0.6372 -0.1746  0.0380
 6207SOL    HW219456   6.675   2.934   0.673  0.0250  0.3719  0.3002
 6208SOL     OW19457   6.017   0.906   6.470 -0.7043  0.7526  0.4563
 6208SOL    HW119458   6.051   0.973   6.411 -0.6438  0.8173  0.5652
 6208SOL    HW219459   5.961   0.852   6.414 -2.6775  2.2969  0.8304
 6209SOL     OW19460   1.593   3.761   2.129 -0.4118  0.1084 -0.0891
 6209SOL    HW119461   1.512   3.717   2.105  0.5399 -2.9057  1.5933
 6209SOL    HW219462   1.646   3.761   2.049 -0.3054 -2.3607 -0.0907
 6210SOL     OW19463   1.379   2.944   1.914 -0.4321 -0.3046  0.2681
 6210SOL    HW119464   1.344   3.026   1.951 -0.0811 -0.1934  0.3637
 6210SOL    HW219465   1.362   2.879   1.982 -0.1003 -0.1700  0.4832
 6211SOL     OW19466   0.537   1.988   1.660  0.5468 -0.5141 -0.1483
 6211SOL    HW119467   0.613   1.932   1.643  0.3959 -0.9628  0.6361
 6211SOL    HW219468   0.500   1.955   1.741  0.7231  1.0165  0.5849
 6212SOL     OW19469   1.625   0.906   7.894  0.4843  0.1718  0.1466
 6212SOL    HW119470   1.692   0.924   7.960  1.5162 -1.1525 -0.5066
 6212SOL    HW219471   1.649   0.962   7.820 -0.6754  1.6595  0.8219
 6213SOL     OW19472   5.179   2.190   6.602  0.0172 -0.3400 -0.4477
 6213SOL    HW119473   5.162   2.252   6.672 -2.1804  1.4149 -2.3687
 6213SOL    HW219474   5.273   2.200   6.584 -0.2383  2.4972 -0.6617
 6214SOL     OW19475   5.486   5.750   2.110  0.4183 -0.2335 -0.3510
 6214SOL    HW119476   5.413   5.772   2.051 -0.4524 -1.9982 -0.0123
 6214SOL    HW219477   5.472   5.658   2.130  1.4378  0.0015  1.6009
 6215SOL     OW19478   5.430   0.485   3.761  0.3915 -0.1362  0.0622
 6215SOL    HW119479   5.452   0.518   3.848  0.6773 -1.5759  0.5696
 6215SOL    HW219480   5.338   0.507   3.749  0.9930  2.5143 -0.4648
 6216SOL     OW19481   6.611   1.196   5.559  0.4855  0.0404 -0.3251
 6216SOL    HW119482   6.526   1.174   5.597  0.7395  0.4344  0.5049
 6216SOL    HW219483   6.659   1.113   5.558  0.1342 -0.1609 -0.6939
 6217SOL     OW19484   0.218   4.352   3.769 -0.1815 -0.1060  0.2902
 6217SOL    HW119485   0.146   4.367   3.831 -1.6163 -1.0958 -1.0463
 6217SOL    HW219486   0.203   4.417   3.700 -1.0478 -1.6040 -0.9970
 6218SOL     OW19487   2.691   7.676   6.238 -0.4470  0.0116 -0.3557
 6218SOL    HW119488   2.713   7.768   6.226 -0.4276 -0.0845 -1.0638
 6218SOL    HW219489   2.763   7.628   6.198  1.1173 -0.3755  2.6180
 6219SOL     OW19490   7.551   5.115   7.386 -0.5430 -0.4121  0.1006
 6219SOL    HW119491   7.465   5.150   7.361  0.0532  1.7982  0.8805
 6219SOL    HW219492   7.611   5.150   7.321  0.1024  0.2144  0.9978
 6220SOL     OW19493   1.659   7.860   0.208 -0.1145  0.3435  0.1629
 6220SOL    HW119494   1.614   7.936   0.246 -1.2386 -0.2545  0.0410
 6220SOL    HW219495   1.727   7.839   0.273  0.8464  2.0059 -0.2322
 6221SOL     OW19496   6.871   5.705   1.326 -0.1514 -0.1376  0.1931
 6221SOL    HW119497   6.873   5.699   1.422 -1.8921  1.3350  0.3938
 6221SOL    HW219498   6.928   5.779   1.305  0.1873 -0.4264  0.0969
 6222SOL     OW19499   6.024   7.008   5.616 -0.0891 -0.1306 -0.1473
 6222SOL    HW119500   6.066   6.954   5.549 -0.8915 -2.5542  1.1607
 6222SOL    HW219501   5.938   7.028   5.580  0.4456  0.8983 -0.9110
 6223SOL     OW19502   0.039   4.502   6.016  0.0736 -0.1492 -0.3217
 6223SOL    HW119503   0.039   4.586   6.062  2.3945 -0.7887  1.0208
 6223SOL    HW219504   0.100   4.514   5.943  0.3040 -0.6079 -0.2095
 6224SOL     OW19505   4.635   3.102   0.375  0.5348  0.4783  0.3100
 6224SOL    HW119506   4.670   3.045   0.444 -0.3502 -1.0030 -0.4233
 6224SOL    HW219507   4.657   3.057   0.293 -2.3145 -0.1600 -0.2179
 6225SOL     OW19508   5.479   1.303   6.062 -0.2860 -0.0807  0.1693
 6225SOL    HW119509   5.502   1.348   6.143 -0.7655 -0.3139  0.4397
 6225SOL    HW219510   5.554   1.247   6.043  0.8383  1.6636 -0.7961
 6226SOL     OW19511   1.064   5.903   2.732  0.0183 -0.5070  0.3569
 6226SOL    HW119512   1.131   5.945   2.785 -0.3253 -0.5166  0.8058
 6226SOL    HW219513   1.088   5.924   2.642 -0.2758  0.8562  0.5755
 6227SOL     OW19514   7.329   7.847   2.271  0.1254  0.9439  0.6252
 6227SOL    HW119515   7.241   7.812   2.287  0.4523 -0.8206 -0.9933
 6227SOL    HW219516   7.319   7.942   2.276 -2.1245  0.8396 -0.5436
 6228SOL     OW19517   0.202   0.830   5.341  0.0867 -0.6955  0.2357
 6228SOL    HW119518   0.259   0.804   5.414  0.2980  0.4227  0.4939
 6228SOL    HW219519   0.181   0.748   5.297 -0.3656 -1.4458  1.7759
 6229SOL     OW19520   0.089   0.294   1.020  0.3502  0.5393 -0.0589
 6229SOL    HW119521   0.068   0.261   1.107  0.2487  2.1442  0.5622
 6229SOL    HW219522   0.063   0.386   1.023 -0.2114  0.4797 -1.9911
 6230SOL     OW19523   7.663   5.169   6.054  0.2397 -0.2197 -0.6418
 6230SOL    HW119524   7.678   5.092   5.999  0.5069 -0.9318  0.4093
 6230SOL    HW219525   7.572   5.194   6.038  0.4138 -0.2066 -1.6555
 6231SOL     OW19526   2.166   1.816   2.109  0.0078  0.0160 -0.0848
 6231SOL    HW119527   2.206   1.736   2.144 -0.0547 -0.3787 -0.8786
 6231SOL    HW219528   2.130   1.861   2.185  2.9683  1.0058  0.8777
 6232SOL     OW19529   4.745   6.856   5.106 -0.2695 -0.2903  0.4279
 6232SOL    HW119530   4.780   6.921   5.045 -0.3133  0.3711  1.0979
 6232SOL    HW219531   4.710   6.787   5.050 -2.1712  1.2383 -0.3882
 6233SOL     OW19532   0.815   7.304   7.927 -0.1162 -0.1956 -0.5719
 6233SOL    HW119533   0.851   7.387   7.896  3.6507 -1.0207  1.0209
 6233SOL    HW219534   0.825   7.244   7.853  4.2181 -0.9246  0.3481
 6234SOL     OW19535   2.943   3.786   6.367  0.3794  0.4224 -0.1872
 6234SOL    HW119536   2.973   3.745   6.448  0.1574 -0.2628 -0.4468
 6234SOL    HW219537   2.971   3.726   6.298 -0.3365  0.4871 -0.5449
 6235SOL     OW19538   7.677   6.367   5.213  0.0365 -0.2353 -0.2441
 6235SOL    HW119539   7.602   6.315   5.241 -0.5664  0.7468  0.0277
 6235SOL    HW219540   7.648   6.409   5.132 -0.6692  2.0922  1.1138
 6236SOL     OW19541   2.149   5.333   3.139 -0.0342 -0.6070  0.0861
 6236SOL    HW119542   2.127   5.392   3.067 -0.4362  0.8649  1.3480
 6236SOL    HW219543   2.244   5.325   3.134  0.0979  0.6275  0.2125
 6237SOL     OW19544   2.522   0.629   5.130 -0.2087 -0.3461  0.1502
 6237SOL    HW119545   2.515   0.693   5.059 -0.5116 -0.4188  0.1154
 6237SOL    HW219546   2.577   0.559   5.093 -1.7616 -1.2037 -0.6182
 6238SOL     OW19547   4.208   1.242   5.522 -0.3031  0.0022 -0.5313
 6238SOL    HW119548   4.292   1.210   5.491 -0.5343  1.0311 -2.3650
 6238SOL    HW219549   4.226   1.278   5.608  0.8676 -0.8702 -0.3887
 6239SOL     OW19550   0.508   5.339   7.774 -0.8255  0.6037  0.1060
 6239SOL    HW119551   0.559   5.269   7.814 -0.8478  0.3476 -0.3103
 6239SOL    HW219552   0.506   5.408   7.840  1.5065  1.3043 -0.4559
 6240SOL     OW19553   7.658   3.132   7.208 -0.2009  0.0674  0.2922
 6240SOL    HW119554   7.721   3.119   7.137  1.6051  2.1433  1.3974
 6240SOL    HW219555   7.624   3.220   7.195 -2.4500 -0.7783  0.1072
 6241SOL     OW19556   5.066   4.253   6.848 -0.0963 -0.0401  0.4702
 6241SOL    HW119557   5.068   4.172   6.798 -1.8442  0.3522 -0.3144
 6241SOL    HW219558   5.023   4.230   6.931 -0.7066  0.0994  0.1960
 6242SOL     OW19559   5.753   5.815   1.350 -0.2618  0.1112  0.3802
 6242SOL    HW119560   5.761   5.847   1.260 -1.3815 -0.2851  0.1242
 6242SOL    HW219561   5.842   5.817   1.384  0.1528  0.4403 -0.6766
 6243SOL     OW19562   3.749   1.469   5.911 -0.0884 -0.5144  0.4158
 6243SOL    HW119563   3.763   1.465   6.005  0.5468  2.0868  0.4956
 6243SOL    HW219564   3.670   1.522   5.901  0.5163  0.2413 -0.5260
 6244SOL     OW19565   1.316   2.512   5.099  0.2707 -0.5501 -0.2659
 6244SOL    HW119566   1.318   2.475   5.187 -0.6201  2.1128  0.9702
 6244SOL    HW219567   1.330   2.606   5.111 -0.5029  0.0052 -2.9149
 6245SOL     OW19568   7.491   2.027   7.673  0.7731 -0.0642  0.2825
 6245SOL    HW119569   7.430   2.017   7.599 -1.5592 -1.0248  2.2077
 6245SOL    HW219570   7.575   2.047   7.632 -0.2077 -1.4467 -2.6778
 6246SOL     OW19571   3.917   6.812   4.043 -0.0799 -0.0743  0.5988
 6246SOL    HW119572   3.955   6.735   4.086  1.6938 -0.1303 -0.9610
 6246SOL    HW219573   3.977   6.832   3.971 -1.2182  1.9767  0.1394
 6247SOL     OW19574   1.375   7.801   6.013 -0.1649  0.1949  0.2009
 6247SOL    HW119575   1.412   7.871   5.959  2.8559 -0.5619  1.0968
 6247SOL    HW219576   1.444   7.735   6.017 -2.8719 -2.9415 -0.6028
 6248SOL     OW19577   0.356   0.689   7.733  0.0980  0.1060 -0.1661
 6248SOL    HW119578   0.341   0.760   7.795  1.0913  0.6581 -0.5266
 6248SOL    HW219579   0.320   0.611   7.776  0.5802  0.5088  1.0125
 6249SOL     OW19580   4.465   3.268   3.598 -0.0553  0.2596  0.6180
 6249SOL    HW119581   4.436   3.278   3.507  0.9951  0.2250  0.2695
 6249SOL    HW219582   4.457   3.175   3.616  0.1556  0.2053  0.4240
 6250SOL     OW19583   1.140   2.187   7.785  0.0366  0.2686 -0.2447
 6250SOL    HW119584   1.140   2.223   7.696  1.5345  2.0327  0.4166
 6250SOL    HW219585   1.174   2.257   7.840  1.3075 -1.5242  1.4136
 6251SOL     OW19586   0.210   2.274   6.324  0.3545  0.7974 -0.4376
 6251SOL    HW119587   0.148   2.305   6.390 -1.2223 -1.7522 -0.5753
 6251SOL    HW219588   0.294   2.312   6.350 -0.9318  3.0194  0.7218
 6252SOL     OW19589   2.696   1.125   1.068 -0.2436 -0.6542 -0.1973
 6252SOL    HW119590   2.677   1.043   1.023 -1.0800 -0.6368  0.1040
 6252SOL    HW219591   2.638   1.125   1.144 -0.2912  0.2330 -0.2186
 6253SOL     OW19592   6.830   4.954   5.101  0.2367 -0.2101  0.1008
 6253SOL    HW119593   6.828   4.876   5.157  1.9126 -0.0683  0.4383
 6253SOL    HW219594   6.833   5.027   5.163  2.2258 -0.0552 -0.0930
 6254SOL     OW19595   6.666   1.216   3.424 -0.5964 -0.3318  0.2891
 6254SOL    HW119596   6.637   1.126   3.435 -1.5812  0.0135  0.6043
 6254SOL    HW219597   6.639   1.260   3.505  1.1262 -0.0603  0.7681
 6255SOL     OW19598   6.320   1.584   0.113  0.1463 -0.2317 -0.1911
 6255SOL    HW119599   6.325   1.577   0.017  2.9253 -0.4889 -0.0841
 6255SOL    HW219600   6.305   1.494   0.142 -1.7497 -0.0153 -0.3734
 6256SOL     OW19601   2.200   6.556   5.769 -0.5535  0.0058 -0.1285
 6256SOL    HW119602   2.266   6.586   5.831 -1.4912  0.3890  0.7022
 6256SOL    HW219603   2.165   6.476   5.808  0.9733 -1.5026 -1.6690
 6257SOL     OW19604   2.304   1.099   2.628 -0.2791 -0.4390 -0.4225
 6257SOL    HW119605   2.277   1.013   2.595 -4.6497  0.1172  1.0118
 6257SOL    HW219606   2.278   1.160   2.559 -1.1100 -0.0029  0.2551
 6258SOL     OW19607   4.264   1.740   0.230  0.3025 -0.3781 -0.1004
 6258SOL    HW119608   4.279   1.831   0.254  1.1895 -1.0167  2.0006
 6258SOL    HW219609   4.180   1.717   0.269 -0.0016 -0.4279 -0.7697
 6259SOL     OW19610   0.845   2.687   7.728  0.3338 -0.2434  0.2723
 6259SOL    HW119611   0.800   2.702   7.645 -0.4760 -2.4598  0.2460
 6259SOL    HW219612   0.776   2.690   7.794  1.1481  2.9650  1.1817
 6260SOL     OW19613   6.215   1.260   6.278  0.0211 -0.2906  0.2305
 6260SOL    HW119614   6.261   1.314   6.342  1.8459 -0.1185 -1.1466
 6260SOL    HW219615   6.200   1.319   6.204 -1.6877 -0.6005  0.2718
 6261SOL     OW19616   7.373   5.532   2.583 -0.5374 -0.0628  0.0653
 6261SOL    HW119617   7.436   5.535   2.511 -0.0813  2.2632  0.4781
 6261SOL    HW219618   7.423   5.499   2.658  0.0933  1.3053  0.2673
 6262SOL     OW19619   0.473   3.732   0.362 -0.0818  0.0408 -0.3773
 6262SOL    HW119620   0.448   3.641   0.371  2.6697 -1.2150 -3.3645
 6262SOL    HW219621   0.417   3.766   0.292  0.7265 -0.2510 -1.1906
 6263SOL     OW19622   7.143   0.944   2.959  0.2742 -0.2051 -0.0044
 6263SOL    HW119623   7.146   0.913   2.868  1.0622  0.3023 -0.1622
 6263SOL    HW219624   7.178   1.033   2.955 -2.0186  0.7900  0.4238
 6264SOL     OW19625   2.199   5.226   1.275  0.0054  0.4957 -0.1163
 6264SOL    HW119626   2.236   5.139   1.289 -2.3786 -0.7193 -0.8168
 6264SOL    HW219627   2.273   5.286   1.287  1.6298 -1.5691  0.7899
 6265SOL     OW19628   1.327   1.763   7.484 -0.3036  0.3853 -0.2396
 6265SOL    HW119629   1.385   1.838   7.500 -0.5528  0.7302 -0.9308
 6265SOL    HW219630   1.264   1.766   7.557  0.0309  0.5134  0.0458
 6266SOL     OW19631   2.608   4.986   1.922 -0.1188 -0.0980  0.1139
 6266SOL    HW119632   2.629   5.079   1.929  0.6877 -0.3188  0.6619
 6266SOL    HW219633   2.560   4.979   1.839 -0.1771  0.8006  0.0650
 6267SOL     OW19634   5.026   2.350   0.609  0.5055 -0.3134 -0.4560
 6267SOL    HW119635   5.047   2.269   0.655  3.0236 -0.6696 -2.0371
 6267SOL    HW219636   5.019   2.416   0.678  0.2827 -1.5233  0.7089
 6268SOL     OW19637   0.935   2.185   3.403  0.1818 -0.3986 -0.2803
 6268SOL    HW119638   1.010   2.229   3.444  0.3718  0.7049 -1.7072
 6268SOL    HW219639   0.922   2.106   3.454  3.4266 -1.5481 -0.9892
 6269SOL     OW19640   4.043   6.713   6.443  0.0696 -0.3232  0.3023
 6269SOL    HW119641   3.974   6.779   6.440  0.3696  0.0902  1.5504
 6269SOL    HW219642   4.054   6.686   6.353  0.4375  1.8673 -0.3813
 6270SOL     OW19643   4.908   3.396   3.215 -0.2912 -0.3257 -0.0092
 6270SOL    HW119644   5.000   3.371   3.199 -0.5827 -1.5651  0.1245
 6270SOL    HW219645   4.884   3.448   3.138  0.3859 -0.3935 -0.2783
 6271SOL     OW19646   5.961   3.294   1.410  0.3231 -0.0984  0.1077
 6271SOL    HW119647   5.952   3.247   1.327 -0.0270  0.5494 -0.2299
 6271SOL    HW219648   6.011   3.235   1.465  1.6643 -0.0233 -0.9766
 6272SOL     OW19649   7.092   6.175   7.619  0.5226 -0.0323 -0.1080
 6272SOL    HW119650   7.000   6.199   7.630  0.8345  1.2385 -0.1790
 6272SOL    HW219651   7.089   6.082   7.597 -0.7499  0.0042 -0.1930
 6273SOL     OW19652   3.299   4.076   2.219  0.3257 -0.0857 -0.5146
 6273SOL    HW119653   3.255   4.011   2.275  0.5266  0.2293  0.0080
 6273SOL    HW219654   3.284   4.044   2.130  0.8767 -1.1392 -0.2443
 6274SOL     OW19655   0.881   3.725   2.166 -0.2570 -0.6358  0.5110
 6274SOL    HW119656   0.888   3.773   2.249 -0.7223  1.5502 -0.6329
 6274SOL    HW219657   0.792   3.741   2.137 -0.1719 -1.5865 -0.3208
 6275SOL     OW19658   3.822   6.644   6.099 -0.3891  0.0061  1.2470
 6275SOL    HW119659   3.881   6.715   6.124  1.0209 -1.3965  2.0350
 6275SOL    HW219660   3.804   6.660   6.006  3.0479 -0.7022  0.3404
 6276SOL     OW19661   7.258   2.778   2.835 -0.0731  0.6648 -0.3310
 6276SOL    HW119662   7.252   2.741   2.747  1.4431  0.2835 -0.3114
 6276SOL    HW219663   7.250   2.873   2.821 -1.3816  0.5146 -0.6848
 6277SOL     OW19664   6.909   7.129   7.686  0.2574 -0.5392 -0.3926
 6277SOL    HW119665   6.849   7.061   7.655  0.7538 -1.4948  0.6774
 6277SOL    HW219666   6.854   7.188   7.738 -0.3265  0.3602 -1.9439
 6278SOL     OW19667   0.268   2.819   5.475  0.4585  0.6113 -0.2877
 6278SOL    HW119668   0.300   2.814   5.385 -0.6509  3.2349 -0.9136
 6278SOL    HW219669   0.173   2.817   5.467  0.2954 -1.7924  1.1228
 6279SOL     OW19670   0.821   0.436   6.323  0.3117  1.2109  0.0012
 6279SOL    HW119671   0.895   0.440   6.262  0.4780  1.3959  0.2154
 6279SOL    HW219672   0.846   0.493   6.395  0.0338  1.1364  0.1573
 6280SOL     OW19673   0.146   3.612   3.361  0.1744 -0.1269  0.0449
 6280SOL    HW119674   0.188   3.624   3.276  1.0038 -0.5861  0.3752
 6280SOL    HW219675   0.136   3.517   3.369 -1.7898 -0.0102 -0.4099
 6281SOL     OW19676   1.949   2.414   3.604 -0.1041  0.4333  0.5234
 6281SOL    HW119677   1.980   2.324   3.610  0.1019  0.3949 -0.7421
 6281SOL    HW219678   2.006   2.463   3.664 -1.0935 -0.4565  2.2607
 6282SOL     OW19679   1.688   6.251   1.201  0.5352  0.1732 -0.3301
 6282SOL    HW119680   1.739   6.332   1.193  2.0130 -0.6590  0.1934
 6282SOL    HW219681   1.695   6.229   1.294 -1.2676  0.3128 -0.1407
 6283SOL     OW19682   0.147   5.310   4.865  0.2662 -0.0145  0.1597
 6283SOL    HW119683   0.175   5.398   4.890  1.3582  0.1136 -1.4085
 6283SOL    HW219684   0.055   5.319   4.841  0.6769  0.9496 -1.1138
 6284SOL     OW19685   4.641   4.909   1.452  0.3617 -0.0593 -0.2699
 6284SOL    HW119686   4.561   4.940   1.410 -1.7344 -1.8536  2.0664
 6284SOL    HW219687   4.655   4.822   1.415  0.0414 -0.5485  0.7220
 6285SOL     OW19688   3.863   5.861   3.520 -0.4704  0.3013  0.1440
 6285SOL    HW119689   3.915   5.782   3.510 -1.2922 -0.1917 -0.3811
 6285SOL    HW219690   3.927   5.931   3.531  0.3182 -0.2045 -1.0283
 6286SOL     OW19691   4.188   7.175   7.023 -0.1071 -0.4159 -0.2925
 6286SOL    HW119692   4.249   7.107   7.051  0.3256 -0.2871 -0.9170
 6286SOL    HW219693   4.144   7.138   6.946 -0.5330 -0.3463 -0.0884
 6287SOL     OW19694   4.725   3.872   0.129  0.1508 -0.4157  0.4506
 6287SOL    HW119695   4.718   3.791   0.079 -1.7684 -0.9272  1.4588
 6287SOL    HW219696   4.672   3.857   0.207 -0.8323  2.0417  0.3440
 6288SOL     OW19697   1.660   5.204   3.213 -0.5093 -0.4640  0.1716
 6288SOL    HW119698   1.698   5.142   3.276  1.2710  1.4458  1.0769
 6288SOL    HW219699   1.624   5.148   3.144  0.8901 -2.5188  0.9998
 6289SOL     OW19700   6.868   2.722   7.350  0.1393 -0.4667 -0.0105
 6289SOL    HW119701   6.819   2.671   7.285  0.7506 -1.9859  0.6742
 6289SOL    HW219702   6.902   2.796   7.301 -0.1473 -1.1023 -1.2257
 6290SOL     OW19703   7.814   6.853   4.210  0.7507 -0.0461  0.0739
 6290SOL    HW119704   7.754   6.828   4.139 -0.1455  0.8163  0.5003
 6290SOL    HW219705   7.839   6.943   4.190  1.6788 -0.2989  0.0698
 6291SOL     OW19706   5.527   3.609   0.894 -0.1040 -0.1560 -0.5227
 6291SOL    HW119707   5.436   3.596   0.867  0.2718  0.3085 -2.1273
 6291SOL    HW219708   5.521   3.634   0.986 -1.6851  0.9450 -0.8762
 6292SOL     OW19709   5.609   3.231   1.724  0.4976 -0.6039  0.2073
 6292SOL    HW119710   5.521   3.268   1.719  0.0703 -1.6530 -0.4256
 6292SOL    HW219711   5.645   3.265   1.806 -0.6893 -0.5606  0.7293
 6293SOL     OW19712   0.882   2.017   3.046 -0.1392  0.3246  0.0484
 6293SOL    HW119713   0.929   1.950   3.095  2.1003 -1.0361 -3.5401
 6293SOL    HW219714   0.792   1.985   3.041  0.6942 -2.0469 -0.8332
 6294SOL     OW19715   5.336   1.764   7.189 -0.1346  0.0180 -0.1615
 6294SOL    HW119716   5.345   1.709   7.111  0.7505  1.1161 -0.8642
 6294SOL    HW219717   5.374   1.849   7.163  2.8068 -0.3677  2.2898
 6295SOL     OW19718   2.913   3.935   4.796  0.6135 -0.7024  0.4347
 6295SOL    HW119719   2.874   3.848   4.803 -0.1929 -0.3079  0.9668
 6295SOL    HW219720   2.841   3.992   4.769  0.3881  0.3537  3.0321
 6296SOL     OW19721   2.688   2.722   0.136  0.8045 -1.2358  0.2065
 6296SOL    HW119722   2.742   2.700   0.061  0.8345  0.9802 -0.5139
 6296SOL    HW219723   2.599   2.725   0.102  0.6279 -1.6683  0.6188
 6297SOL     OW19724   7.891   5.093   3.236 -0.3461 -0.1180  0.2389
 6297SOL    HW119725   7.967   5.069   3.184 -0.1833  1.0706 -0.1096
 6297SOL    HW219726   7.899   5.188   3.248 -1.3042 -0.1101  0.9418
 6298SOL     OW19727   4.290   2.439   3.521  0.2767  0.5491 -0.1387
 6298SOL    HW119728   4.307   2.526   3.557 -1.4783  0.6454  0.5375
 6298SOL    HW219729   4.222   2.403   3.577  2.0161 -1.8962  0.5404
 6299SOL     OW19730   7.543   6.657   2.592  0.2788  0.1252 -0.0812
 6299SOL    HW119731   7.469   6.704   2.630 -1.4246 -1.8904 -0.7065
 6299SOL    HW219732   7.616   6.675   2.652 -0.5363  2.5695  0.2928
 6300SOL     OW19733   5.682   0.195   2.716 -0.4637  0.7630  0.0330
 6300SOL    HW119734   5.593   0.208   2.751 -0.8323  0.5128 -0.7863
 6300SOL    HW219735   5.716   0.120   2.766 -1.3967 -0.2972 -0.8578
 6301SOL     OW19736   6.556   3.553   4.908 -0.0619 -0.1740  0.1265
 6301SOL    HW119737   6.486   3.499   4.871 -1.1507  1.9509 -1.1009
 6301SOL    HW219738   6.633   3.533   4.854 -0.5148 -0.2910 -0.4769
 6302SOL     OW19739   1.496   3.937   3.254 -0.3686  0.0845  0.0027
 6302SOL    HW119740   1.557   3.916   3.325 -0.3510 -3.2515 -0.8077
 6302SOL    HW219741   1.442   4.007   3.288  1.1270  0.1678  2.4147
 6303SOL     OW19742   6.163   5.248   0.392  0.2596 -0.4677 -0.0876
 6303SOL    HW119743   6.258   5.241   0.395  0.5698  1.3873 -2.4567
 6303SOL    HW219744   6.140   5.296   0.472  1.4053 -0.2812  0.1454
 6304SOL     OW19745   1.156   4.594   5.936 -0.5494  0.0256 -0.9056
 6304SOL    HW119746   1.175   4.687   5.926  0.8826  0.0878  1.5234
 6304SOL    HW219747   1.069   4.591   5.976  0.2083  0.4765  0.8740
 6305SOL     OW19748   1.087   3.289   2.442  0.4602 -0.0081 -0.0477
 6305SOL    HW119749   1.026   3.235   2.493 -0.5980  0.9725 -0.2445
 6305SOL    HW219750   1.156   3.312   2.505 -0.7327  1.0355  0.9610
 6306SOL     OW19751   1.992   2.682   2.187  0.1777 -0.4059  0.3568
 6306SOL    HW119752   1.940   2.735   2.248 -0.6783  1.3830 -1.7658
 6306SOL    HW219753   2.073   2.732   2.176 -0.0322 -0.2462 -0.5650
 6307SOL     OW19754   7.164   6.879   5.625 -0.0005  0.7121  0.0055
 6307SOL    HW119755   7.095   6.820   5.595 -0.0954  0.7322  0.1863
 6307SOL    HW219756   7.187   6.931   5.547 -0.2806  0.7979 -0.0211
 6308SOL     OW19757   1.724   5.969   6.895 -0.1768 -0.4778 -0.0502
 6308SOL    HW119758   1.738   5.899   6.959 -0.0685 -0.3884  0.0251
 6308SOL    HW219759   1.810   6.010   6.886 -0.2215 -0.4085 -0.1572
 6309SOL     OW19760   7.298   2.343   3.776  0.1682 -0.1723  0.5214
 6309SOL    HW119761   7.337   2.394   3.848 -1.3685  0.5818  0.8437
 6309SOL    HW219762   7.364   2.347   3.706  0.5784  1.2917  0.9505
 6310SOL     OW19763   3.365   5.244   6.807  0.1497 -0.3172 -0.6657
 6310SOL    HW119764   3.414   5.326   6.794 -0.5802  0.1928 -0.2576
 6310SOL    HW219765   3.431   5.175   6.797  0.8255  0.3295 -0.7701
 6311SOL     OW19766   6.286   5.807   1.765  0.0014  0.3467  0.1516
 6311SOL    HW119767   6.246   5.720   1.778 -0.3422  0.5289  0.3354
 6311SOL    HW219768   6.322   5.830   1.851 -0.9940  0.9201  0.4316
 6312SOL     OW19769   1.197   1.866   3.996 -0.5999  0.0388 -0.6976
 6312SOL    HW119770   1.281   1.824   3.979 -1.1483 -1.2159 -0.4231
 6312SOL    HW219771   1.135   1.794   4.002 -1.8371  0.9903 -1.6222
 6313SOL     OW19772   5.025   6.304   5.728  0.5633 -0.0608  0.2103
 6313SOL    HW119773   5.118   6.281   5.726  0.9025  1.2309  0.5559
 6313SOL    HW219774   5.022   6.397   5.708 -0.4518  0.4274  2.3147
 6314SOL     OW19775   2.479   2.056   6.577 -0.4107  0.2139 -0.0128
 6314SOL    HW119776   2.500   2.018   6.662  1.0711  1.1752  0.0822
 6314SOL    HW219777   2.518   2.143   6.579 -0.4651  0.3021 -1.6368
 6315SOL     OW19778   5.600   1.588   4.465  0.0722  0.1850  0.5155
 6315SOL    HW119779   5.689   1.622   4.478 -0.1087 -0.4801  4.4501
 6315SOL    HW219780   5.552   1.662   4.428  1.5948  1.5078  1.0644
 6316SOL     OW19781   1.538   4.306   5.954  0.5588 -0.0805  0.0953
 6316SOL    HW119782   1.462   4.342   5.908 -0.1866 -0.9407  0.6319
 6316SOL    HW219783   1.613   4.342   5.907 -0.1756  0.1775 -0.9191
 6317SOL     OW19784   1.514   6.137   4.723  0.1642  0.0782 -0.2885
 6317SOL    HW119785   1.464   6.195   4.667  1.0440  1.5241  0.3781
 6317SOL    HW219786   1.486   6.049   4.697  0.1413  0.7067 -2.5910
 6318SOL     OW19787   1.340   1.152   4.481  0.1581  0.0866  0.1289
 6318SOL    HW119788   1.246   1.135   4.470  0.2546 -0.0028 -0.6158
 6318SOL    HW219789   1.379   1.064   4.485  0.2985  0.1174 -0.4378
 6319SOL     OW19790   5.853   2.421   7.088  0.1749  0.5638 -0.2381
 6319SOL    HW119791   5.906   2.400   7.011 -0.6194  1.1315 -0.9635
 6319SOL    HW219792   5.803   2.498   7.062 -2.7474 -1.2457 -0.4629
 6320SOL     OW19793   6.338   2.914   1.782 -0.1083  0.5350  0.2932
 6320SOL    HW119794   6.309   3.005   1.790 -0.2112  0.6603 -1.2687
 6320SOL    HW219795   6.258   2.862   1.789 -0.6811  0.8195 -2.8453
 6321SOL     OW19796   5.910   4.159   5.342 -0.2369 -0.2430 -0.5742
 6321SOL    HW119797   5.845   4.114   5.396  1.2147 -0.3229  1.2154
 6321SOL    HW219798   5.889   4.252   5.353  2.3078  0.0780  3.5084
 6322SOL     OW19799   7.905   4.425   3.503 -0.9719  0.2230 -0.2081
 6322SOL    HW119800   7.962   4.430   3.426 -0.0491 -1.5991  0.2771
 6322SOL    HW219801   7.917   4.508   3.548 -0.5197  0.7971 -1.3523
 6323SOL     OW19802   3.272   1.198   1.023  0.2960 -0.1563  0.3451
 6323SOL    HW119803   3.309   1.157   1.102  1.0990  1.3206  0.7794
 6323SOL    HW219804   3.348   1.234   0.977 -0.1695 -0.9681 -1.1105
 6324SOL     OW19805   6.558   6.493   6.894  0.5418 -0.0662  0.1886
 6324SOL    HW119806   6.518   6.407   6.908  0.9691 -0.4561 -0.8536
 6324SOL    HW219807   6.561   6.533   6.981 -0.4221 -0.7620  0.5622
 6325SOL     OW19808   1.582   6.065   1.039  0.1431  0.1894  0.0501
 6325SOL    HW119809   1.487   6.073   1.033  0.2568  1.0282 -1.1088
 6325SOL    HW219810   1.607   6.124   1.110 -0.0966  1.1301 -0.6161
 6326SOL     OW19811   2.516   4.553   1.086  0.0794 -0.2604  0.0613
 6326SOL    HW119812   2.501   4.466   1.124  0.3901 -1.0346 -1.5030
 6326SOL    HW219813   2.598   4.545   1.038  0.0449  0.8616 -0.2190
 6327SOL     OW19814   2.749   1.154   0.117  0.3620 -0.2495  0.2644
 6327SOL    HW119815   2.678   1.105   0.077  1.6943 -1.6677 -0.4989
 6327SOL    HW219816   2.829   1.110   0.087  1.6219  1.7902  0.3669
 6328SOL     OW19817   4.843   3.440   2.493  0.1960 -0.4369  0.4886
 6328SOL    HW119818   4.879   3.369   2.439 -1.1669 -0.2541 -0.7232
 6328SOL    HW219819   4.748   3.429   2.487 -0.0530  1.4354  0.3297
 6329SOL     OW19820   5.111   1.947   7.211 -0.1983 -0.1816 -0.1572
 6329SOL    HW119821   5.135   2.005   7.138  0.7090  0.7706  0.8723
 6329SOL    HW219822   5.177   1.878   7.210  1.0143  0.9161  0.9524
 6330SOL     OW19823   1.936   1.554   5.986 -0.1819  1.3753 -0.2104
 6330SOL    HW119824   1.982   1.609   5.923  0.2570  1.4240  0.1515
 6330SOL    HW219825   1.905   1.615   6.053  2.3725  0.9705  1.4866
 6331SOL     OW19826   1.351   3.127   5.663 -0.4913 -0.1792 -0.7144
 6331SOL    HW119827   1.345   3.200   5.601  0.9061 -1.0479 -1.9404
 6331SOL    HW219828   1.443   3.100   5.659 -0.7389 -1.2938  0.5494
 6332SOL     OW19829   3.455   3.613   4.662 -0.0331 -0.0593  0.3286
 6332SOL    HW119830   3.484   3.523   4.649  2.2649  0.5928  0.5950
 6332SOL    HW219831   3.535   3.666   4.655 -1.0503  1.8021  1.8319
 6333SOL     OW19832   7.685   3.239   1.510  0.3663  0.1552 -0.1477
 6333SOL    HW119833   7.612   3.210   1.564  2.0565 -2.1829  1.0194
 6333SOL    HW219834   7.643   3.282   1.435 -2.0864  2.0870  2.1194
 6334SOL     OW19835   6.164   1.289   0.388 -0.1367 -0.0701  0.6119
 6334SOL    HW119836   6.212   1.286   0.306  0.2311  0.6543  0.7907
 6334SOL    HW219837   6.084   1.241   0.371 -0.2424  0.4053 -0.2941
 6335SOL     OW19838   1.553   6.100   7.616  0.0963  0.1363  0.2225
 6335SOL    HW119839   1.619   6.167   7.602 -0.3917  0.7184  0.6507
 6335SOL    HW219840   1.470   6.148   7.618 -0.4488 -0.6882 -1.2714
 6336SOL     OW19841   7.796   7.134   2.104 -0.0550 -0.6804 -0.1109
 6336SOL    HW119842   7.763   7.044   2.105  1.2572 -1.2649 -2.1976
 6336SOL    HW219843   7.722   7.187   2.074  0.1298 -1.6189 -2.3838
 6337SOL     OW19844   1.019   1.944   4.949 -0.1372 -0.8509 -0.1317
 6337SOL    HW119845   1.100   1.892   4.944  0.4109 -0.5491  3.2276
 6337SOL    HW219846   1.048   2.035   4.943 -0.5615 -0.7712 -1.2864
 6338SOL     OW19847   4.902   4.000   0.626  0.3259  0.4688  0.2396
 6338SOL    HW119848   4.826   3.992   0.568  0.7740  0.7950 -0.4114
 6338SOL    HW219849   4.866   4.028   0.710 -0.4241 -0.8637  0.3737
 6339SOL     OW19850   7.885   6.359   7.200  0.0390  0.2022  0.2833
 6339SOL    HW119851   7.956   6.317   7.248 -0.4033 -3.3073 -1.7620
 6339SOL    HW219852   7.918   6.368   7.111 -0.5101  2.9636  0.2736
 6340SOL     OW19853   5.529   6.876   5.621  0.4490 -0.1935  0.6442
 6340SOL    HW119854   5.448   6.846   5.579  0.3157 -0.6248  1.2092
 6340SOL    HW219855   5.503   6.903   5.709  0.8275  0.1895  0.6457
 6341SOL     OW19856   6.427   4.707   0.200  0.2528 -0.2147  0.4204
 6341SOL    HW119857   6.374   4.674   0.272  0.9101 -1.5332  0.3201
 6341SOL    HW219858   6.437   4.801   0.218  0.4897 -0.5356  2.0903
 6342SOL     OW19859   4.281   7.498   1.068  0.2075  0.4484  0.3579
 6342SOL    HW119860   4.339   7.448   1.011 -0.3653  0.7418 -0.5140
 6342SOL    HW219861   4.214   7.435   1.096  0.1632  0.4408  0.2355
 6343SOL     OW19862   2.481   0.366   7.098  0.1547  0.0590  0.8773
 6343SOL    HW119863   2.405   0.402   7.053  1.5676 -1.3648 -3.1685
 6343SOL    HW219864   2.468   0.388   7.190 -4.7350  0.4848  0.3567
 6344SOL     OW19865   6.316   6.387   2.449 -0.5132  0.3029 -0.4807
 6344SOL    HW119866   6.350   6.349   2.368 -0.5705 -0.8840  0.0331
 6344SOL    HW219867   6.384   6.369   2.514 -0.4961  1.1868 -0.2420
 6345SOL     OW19868   0.022   1.272   2.925 -0.6144  0.1696  0.0498
 6345SOL    HW119869   0.038   1.366   2.925  0.7923 -0.0317 -0.9609
 6345SOL    HW219870   0.104   1.234   2.893 -1.7012 -1.2859 -1.1477
 6346SOL     OW19871   3.484   1.724   0.730 -0.2462  0.4422  0.0902
 6346SOL    HW119872   3.578   1.714   0.718  0.1566  2.8088  0.7238
 6346SOL    HW219873   3.458   1.651   0.785  1.0547 -0.6858 -0.7334
 6347SOL     OW19874   6.257   0.773   0.510  0.2222  0.5018 -0.3290
 6347SOL    HW119875   6.352   0.762   0.505  0.0043 -2.5251  0.2675
 6347SOL    HW219876   6.245   0.854   0.560  2.5583 -0.1990  1.5693
 6348SOL     OW19877   2.498   3.678   6.386 -0.8401  0.2714 -0.2596
 6348SOL    HW119878   2.443   3.711   6.315 -1.5453 -1.1787 -0.4228
 6348SOL    HW219879   2.523   3.590   6.358  1.1149  0.6801  0.0858
 6349SOL     OW19880   7.089   7.076   5.806 -0.3338  0.0621  0.0569
 6349SOL    HW119881   7.131   6.997   5.771  1.2778  0.8763  0.0472
 6349SOL    HW219882   7.017   7.043   5.859  1.0117 -1.5180  1.0168
 6350SOL     OW19883   4.058   6.141   2.743 -0.5447 -0.5645 -0.1193
 6350SOL    HW119884   4.108   6.221   2.727  2.3779 -2.2189 -0.0887
 6350SOL    HW219885   4.065   6.092   2.661 -0.4222 -1.6655  0.5317
 6351SOL     OW19886   0.532   3.662   2.828  0.1753 -0.4123  0.7126
 6351SOL    HW119887   0.586   3.702   2.897 -1.0894  0.1425  1.4113
 6351SOL    HW219888   0.541   3.568   2.842  2.0070 -0.3803 -0.0172
 6352SOL     OW19889   7.168   0.684   2.541 -0.0746 -0.1800 -0.3105
 6352SOL    HW119890   7.208   0.733   2.470  0.8125  1.7806  1.4133
 6352SOL    HW219891   7.127   0.609   2.499  2.2375 -0.2820 -2.6069
 6353SOL     OW19892   7.414   1.965   5.228  0.2457  0.3212  0.2870
 6353SOL    HW119893   7.328   1.951   5.187  1.3539  0.6713 -2.3412
 6353SOL    HW219894   7.472   1.904   5.182  1.4379  0.1128  2.0018
 6354SOL     OW19895   6.757   7.786   4.579  0.6392  0.5224  0.2157
 6354SOL    HW119896   6.730   7.802   4.670  1.4504 -0.2102  0.5941
 6354SOL    HW219897   6.822   7.854   4.561  0.7895  0.4098  0.3291
 6355SOL     OW19898   1.873   2.668   0.962 -0.0449 -0.1444  0.1036
 6355SOL    HW119899   1.805   2.734   0.979  0.1527  0.2648 -0.6260
 6355SOL    HW219900   1.902   2.640   1.048  0.2784  1.1691  0.4454
 6356SOL     OW19901   0.841   6.666   1.496  0.3159 -0.5545 -0.1941
 6356SOL    HW119902   0.802   6.680   1.409  0.5689  0.1525 -0.1991
 6356SOL    HW219903   0.934   6.652   1.479  0.4745  0.1822 -0.0082
 6357SOL     OW19904   1.273   3.784   2.821 -0.3541  0.4812  0.2419
 6357SOL    HW119905   1.246   3.807   2.910 -1.1938  1.3151 -0.2087
 6357SOL    HW219906   1.272   3.689   2.820 -0.5209  0.4650  1.0764
 6358SOL     OW19907   2.006   4.986   2.473 -0.3823  0.1813 -0.2229
 6358SOL    HW119908   1.994   4.934   2.552  0.8294 -0.8242 -0.6699
 6358SOL    HW219909   1.980   5.074   2.498 -0.4813 -0.2170  1.1541
 6359SOL     OW19910   5.678   2.860   5.722  0.2161  0.3957  0.1764
 6359SOL    HW119911   5.768   2.891   5.715  0.4897 -0.4787 -0.3809
 6359SOL    HW219912   5.625   2.933   5.690  0.6753  1.1504  1.1078
 6360SOL     OW19913   1.307   5.383   1.225 -0.7285  0.2046 -0.2253
 6360SOL    HW119914   1.242   5.439   1.266 -0.7158  0.2085 -0.2105
 6360SOL    HW219915   1.385   5.438   1.215 -0.8578  0.3246 -0.6178
 6361SOL     OW19916   2.895   6.918   7.605  0.1069 -0.3542 -0.3489
 6361SOL    HW119917   2.894   6.853   7.535 -1.0545 -0.3380 -0.3596
 6361SOL    HW219918   2.830   6.983   7.579  1.9387  1.3743 -0.8307
 6362SOL     OW19919   2.571   0.287   0.619  0.1203  0.4776 -0.1649
 6362SOL    HW119920   2.644   0.344   0.596  0.2745 -0.1674 -1.3350
 6362SOL    HW219921   2.496   0.323   0.571  0.1322 -0.0772 -0.6030
 6363SOL     OW19922   2.769   4.707   3.134 -0.6161 -0.1876  0.2444
 6363SOL    HW119923   2.832   4.692   3.205 -1.3962  0.1482  1.0346
 6363SOL    HW219924   2.712   4.776   3.167 -2.7658 -1.9534  0.5102
 6364SOL     OW19925   4.929   0.508   0.535 -0.4938 -0.1780  0.2771
 6364SOL    HW119926   4.868   0.583   0.538  1.1218  1.1928  0.3743
 6364SOL    HW219927   4.934   0.485   0.442 -2.4729 -1.5002  0.4279
 6365SOL     OW19928   7.251   1.682   5.432  0.1577 -0.0044 -0.0397
 6365SOL    HW119929   7.237   1.756   5.373 -1.7613  0.5024  0.9518
 6365SOL    HW219930   7.264   1.607   5.374 -0.2860  0.7039 -1.0871
 6366SOL     OW19931   7.722   1.260   1.643  0.0465 -0.1058 -0.0219
 6366SOL    HW119932   7.708   1.250   1.549 -1.8761  0.5268  0.1673
 6366SOL    HW219933   7.802   1.311   1.650  0.7952 -1.0380 -1.2740
 6367SOL     OW19934   2.787   0.860   7.377 -0.4707  0.0989 -0.3248
 6367SOL    HW119935   2.771   0.787   7.317 -0.9992 -1.6650  1.8034
 6367SOL    HW219936   2.878   0.885   7.362 -0.8367  0.2888 -2.4040
 6368SOL     OW19937   3.727   1.055   3.678 -0.2644  0.5497  0.1688
 6368SOL    HW119938   3.695   1.128   3.626 -2.0313  1.5619  2.4549
 6368SOL    HW219939   3.655   0.991   3.676 -0.0329  0.2614  0.6912
 6369SOL     OW19940   5.294   6.533   3.229  0.8521  0.1963  0.3241
 6369SOL    HW119941   5.232   6.551   3.158  2.7348  1.9543 -1.0142
 6369SOL    HW219942   5.294   6.438   3.237 -1.0325  0.0779 -0.5184
 6370SOL     OW19943   4.781   0.916   1.894  0.0395 -0.0867 -0.5848
 6370SOL    HW119944   4.692   0.895   1.864  0.3620 -0.0285 -1.6307
 6370SOL    HW219945   4.792   0.867   1.975 -1.8800  1.8993  1.0095
 6371SOL     OW19946   5.344   4.707   2.680 -0.3344 -0.1377  0.1784
 6371SOL    HW119947   5.437   4.718   2.659 -0.4082  0.0879 -0.0339
 6371SOL    HW219948   5.308   4.796   2.678 -0.6017 -0.2479  0.0361
 6372SOL     OW19949   6.551   7.570   2.330 -0.1431 -0.1070 -0.5862
 6372SOL    HW119950   6.634   7.540   2.367  0.2292 -0.8980 -1.9765
 6372SOL    HW219951   6.486   7.510   2.366  0.0513 -0.1946 -0.3767
 6373SOL     OW19952   6.461   2.446   0.291  0.2331  0.1991 -0.2866
 6373SOL    HW119953   6.378   2.493   0.291 -0.3412 -0.7738  0.5643
 6373SOL    HW219954   6.514   2.491   0.357  1.6095  2.7539 -2.8500
 6374SOL     OW19955   2.798   6.637   7.458  0.1089 -0.5813  0.0401
 6374SOL    HW119956   2.822   6.551   7.425  0.5730 -0.6838  0.6301
 6374SOL    HW219957   2.821   6.697   7.387  3.0734 -0.5629  0.8800
 6375SOL     OW19958   5.876   2.601   1.015  0.1104 -0.2912  0.2962
 6375SOL    HW119959   5.799   2.549   1.037 -0.3199 -0.5840 -1.7312
 6375SOL    HW219960   5.901   2.643   1.098 -0.5361 -2.3514  1.6176
 6376SOL     OW19961   2.283   4.258   1.992  0.1493 -0.8281  0.2598
 6376SOL    HW119962   2.313   4.212   2.071  1.0861  0.9514  0.9913
 6376SOL    HW219963   2.271   4.349   2.020 -3.5045 -0.8738 -0.6570
 6377SOL     OW19964   7.394   1.392   7.704  0.6011 -0.5805  0.0871
 6377SOL    HW119965   7.454   1.368   7.774  0.7121 -2.7091 -0.6796
 6377SOL    HW219966   7.327   1.324   7.704 -0.4175  0.3693 -0.7248
 6378SOL     OW19967   2.410   6.337   5.220 -0.6805  0.0223 -0.9390
 6378SOL    HW119968   2.443   6.350   5.309  0.9164 -1.1666 -1.3037
 6378SOL    HW219969   2.411   6.242   5.208 -0.7762  0.1763 -2.2537
 6379SOL     OW19970   0.383   4.666   6.803 -0.2759 -0.0137 -0.1093
 6379SOL    HW119971   0.423   4.740   6.757 -0.4465  0.2790  0.2155
 6379SOL    HW219972   0.298   4.655   6.761 -0.2493 -0.0316 -0.1598
 6380SOL     OW19973   1.914   0.296   3.132 -0.0237  0.1788 -0.5003
 6380SOL    HW119974   2.000   0.266   3.102  1.2469  2.0645  1.0236
 6380SOL    HW219975   1.861   0.216   3.135  2.0047 -1.2498 -0.4124
 6381SOL     OW19976   6.536   5.535   4.247  0.5273 -0.3218  1.0265
 6381SOL    HW119977   6.540   5.582   4.330  0.6567 -0.3575  1.0403
 6381SOL    HW219978   6.445   5.545   4.219  0.3596 -0.7284  1.4142
 6382SOL     OW19979   4.242   3.995   3.497  0.4388 -0.1214 -0.2211
 6382SOL    HW119980   4.268   4.080   3.531  0.5751 -0.9510  1.9180
 6382SOL    HW219981   4.149   4.004   3.478  0.5929  0.6805 -0.6242
 6383SOL     OW19982   5.428   3.905   1.920 -0.2584 -0.1802 -0.2540
 6383SOL    HW119983   5.376   3.940   1.848 -0.5765  1.0440  0.5434
 6383SOL    HW219984   5.388   3.942   1.999 -0.4889 -2.2030  0.6430
 6384SOL     OW19985   3.017   6.389   4.547  0.2448 -0.3610  0.3545
 6384SOL    HW119986   3.020   6.293   4.551  1.2708 -0.3360  0.4636
 6384SOL    HW219987   3.021   6.417   4.638  0.0164 -0.2067  0.3183
 6385SOL     OW19988   3.414   7.623   1.481 -0.3206 -0.0609 -0.0994
 6385SOL    HW119989   3.490   7.598   1.428  1.1852  0.7563  1.5493
 6385SOL    HW219990   3.411   7.557   1.551 -1.5618 -0.4616 -0.5024
 6386SOL     OW19991   0.652   0.479   5.702 -0.1365  0.2198  0.6308
 6386SOL    HW119992   0.722   0.427   5.740 -0.1911 -0.2120  0.1453
 6386SOL    HW219993   0.579   0.418   5.692 -0.2734  0.4384  0.2688
 6387SOL     OW19994   1.316   7.429   2.042 -0.8846  0.2607 -0.2579
 6387SOL    HW119995   1.262   7.416   2.120 -0.9118  1.8798  0.0246
 6387SOL    HW219996   1.258   7.409   1.968 -1.5143  0.8014  0.0829
 6388SOL     OW19997   6.095   6.201   7.212 -0.3812 -0.3442 -0.2808
 6388SOL    HW119998   6.184   6.193   7.247 -0.8909 -0.6173  1.0222
 6388SOL    HW219999   6.104   6.259   7.137  0.7722  0.3479  0.3585
 6389SOL     OW20000   4.081   6.631   5.367 -0.0035 -0.2080 -0.3861
 6389SOL    HW120001   4.025   6.596   5.297 -0.4317 -0.5125  0.0976
 6389SOL    HW220002   4.154   6.671   5.321 -0.0005 -0.8793 -0.9934
 6390SOL     OW20003   2.363   5.186   4.216 -0.2149 -0.3246  0.2432
 6390SOL    HW120004   2.394   5.134   4.142 -0.2622 -0.6758  0.4669
 6390SOL    HW220005   2.334   5.268   4.177  0.0918 -0.3716 -0.0824
 6391SOL     OW20006   1.446   6.530   1.267 -0.3738  0.1052 -0.3952
 6391SOL    HW120007   1.504   6.590   1.314 -1.6594  1.2322 -0.1899
 6391SOL    HW220008   1.500   6.496   1.195  0.9233  0.0956  0.5473
 6392SOL     OW20009   0.630   4.966   7.155 -0.1217 -0.0038  0.0054
 6392SOL    HW120010   0.679   4.974   7.073 -0.5596 -2.9839 -0.6693
 6392SOL    HW220011   0.697   4.978   7.223  0.6330  0.5875 -0.8148
 6393SOL     OW20012   5.885   7.278   4.716 -0.4954 -0.0463  0.5890
 6393SOL    HW120013   5.956   7.310   4.659 -0.9624 -0.8619 -0.4901
 6393SOL    HW220014   5.814   7.257   4.655 -1.2064 -0.4432  1.5430
 6394SOL     OW20015   7.530   2.896   2.645  0.0157 -0.3360 -0.1504
 6394SOL    HW120016   7.533   2.889   2.740 -0.9953 -0.1190 -0.0938
 6394SOL    HW220017   7.519   2.806   2.614  0.9854 -0.4803 -0.1030
 6395SOL     OW20018   3.212   7.301   6.975  0.5721  0.2155  0.6354
 6395SOL    HW120019   3.284   7.327   7.033  2.2901  0.7935 -1.5974
 6395SOL    HW220020   3.231   7.211   6.951  0.9101  0.5278 -0.3671
 6396SOL     OW20021   5.747   1.773   5.568  0.0177 -0.9862 -0.5073
 6396SOL    HW120022   5.832   1.794   5.529  0.4673  0.1567  1.0025
 6396SOL    HW220023   5.707   1.859   5.587 -0.1675 -1.4772  1.5061
 6397SOL     OW20024   2.577   1.988   0.110 -0.1393 -0.2772 -0.1489
 6397SOL    HW120025   2.587   1.894   0.091 -1.2541 -0.5381  0.4552
 6397SOL    HW220026   2.628   2.003   0.189  2.2136  0.2219 -1.6502
 6398SOL     OW20027   7.796   2.420   7.831 -0.2240  0.0011 -0.3384
 6398SOL    HW120028   7.857   2.487   7.862  1.4499 -1.8748  0.7472
 6398SOL    HW220029   7.823   2.402   7.741  0.9214 -0.8354  0.1444
 6399SOL     OW20030   3.038   7.626   0.937 -0.1790  0.5685  0.0894
 6399SOL    HW120031   3.073   7.686   1.003 -0.9337  0.3813  0.6658
 6399SOL    HW220032   2.991   7.683   0.876  0.5011  0.7385 -0.2862
 6400SOL     OW20033   7.649   1.149   4.304 -0.3558  0.6615  0.1923
 6400SOL    HW120034   7.620   1.091   4.374 -0.4411 -1.1712 -1.2847
 6400SOL    HW220035   7.744   1.154   4.315  0.0969 -2.2930 -1.3768
 6401SOL     OW20036   1.847   6.919   6.118 -0.0710  0.2001 -0.3483
 6401SOL    HW120037   1.811   7.000   6.082 -2.2468  0.1255  1.4362
 6401SOL    HW220038   1.779   6.853   6.104  1.0082 -0.9450 -0.3735
 6402SOL     OW20039   2.179   7.894   2.609  0.1317  0.1337  0.0255
 6402SOL    HW120040   2.169   7.799   2.611  1.2929  0.0063  1.2497
 6402SOL    HW220041   2.110   7.927   2.667  1.1519 -0.1565  1.4776
 6403SOL     OW20042   3.455   0.241   0.143  0.1182 -0.2161  0.7804
 6403SOL    HW120043   3.517   0.191   0.089 -0.5811  0.4476 -0.6919
 6403SOL    HW220044   3.499   0.325   0.157  0.9544 -0.9087  2.5895
 6404SOL     OW20045   4.843   5.741   7.587  0.3030  0.0220  0.0673
 6404SOL    HW120046   4.872   5.756   7.497  1.6019  0.8737  0.5922
 6404SOL    HW220047   4.922   5.751   7.640  0.3220 -3.7909  1.0514
 6405SOL     OW20048   3.706   1.223   4.448 -0.5329  0.1527  0.2032
 6405SOL    HW120049   3.742   1.230   4.537 -2.6233  1.4702  1.0210
 6405SOL    HW220050   3.627   1.171   4.458 -0.2428 -0.5892 -1.1113
 6406SOL     OW20051   6.188   7.825   3.960 -0.3383 -0.6313 -0.3398
 6406SOL    HW120052   6.127   7.885   3.917  0.6503  0.2022 -0.6367
 6406SOL    HW220053   6.264   7.821   3.901  0.6085 -0.2848  0.8053
 6407SOL     OW20054   0.251   0.618   0.095  0.2298 -0.3016  0.5094
 6407SOL    HW120055   0.156   0.619   0.094  0.2075  1.2494  1.1940
 6407SOL    HW220056   0.274   0.628   0.187  1.0351  0.3480  0.2519
 6408SOL     OW20057   2.032   0.767   4.822 -0.0427  0.2024 -0.3253
 6408SOL    HW120058   2.080   0.720   4.890 -0.7116  1.2314  0.9131
 6408SOL    HW220059   1.941   0.761   4.849 -0.1904  1.7419 -0.3930
 6409SOL     OW20060   3.432   3.968   4.436 -0.2452 -0.1472 -0.6328
 6409SOL    HW120061   3.363   3.902   4.426  0.0855 -0.4030 -1.2409
 6409SOL    HW220062   3.480   3.966   4.354  0.4276  0.1035 -0.2570
 6410SOL     OW20063   5.613   2.982   7.394 -0.3106  0.0411  0.0513
 6410SOL    HW120064   5.676   3.007   7.325  1.6376 -1.1542  1.3087
 6410SOL    HW220065   5.528   2.981   7.349  0.7249  0.3919 -2.0660
 6411SOL     OW20066   0.736   5.239   4.172 -0.0846 -0.2912  0.1641
 6411SOL    HW120067   0.830   5.225   4.179 -0.1193  0.1794  2.7398
 6411SOL    HW220068   0.702   5.218   4.259 -2.4232 -0.7197 -0.7661
 6412SOL     OW20069   1.936   4.907   2.716  0.1070 -0.4366 -0.0673
 6412SOL    HW120070   1.846   4.918   2.744 -0.3721 -1.4061 -1.1498
 6412SOL    HW220071   1.971   4.839   2.774  0.5101  0.7300  1.0954
 6413SOL     OW20072   5.984   0.588   4.603 -0.4031 -0.1992  0.4064
 6413SOL    HW120073   6.000   0.672   4.559 -1.3957  1.2246  2.5808
 6413SOL    HW220074   6.037   0.525   4.554 -1.4464  1.1850 -2.8121
 6414SOL     OW20075   7.841   7.201   0.533  0.0811 -0.2737  0.5845
 6414SOL    HW120076   7.783   7.126   0.540 -1.0096  0.4383 -0.5268
 6414SOL    HW220077   7.921   7.166   0.495 -1.3029 -0.4972 -2.3561
 6415SOL     OW20078   2.417   6.365   6.634 -0.3110  0.0497 -0.2169
 6415SOL    HW120079   2.452   6.276   6.638 -1.0987 -0.3694 -1.7179
 6415SOL    HW220080   2.461   6.405   6.559 -0.1437  0.8583  0.2977
 6416SOL     OW20081   5.041   6.863   4.130  0.7621 -0.4037 -0.3046
 6416SOL    HW120082   5.053   6.823   4.217  1.6417 -0.9272 -0.6570
 6416SOL    HW220083   5.097   6.812   4.072  0.5151  0.2208 -1.1134
 6417SOL     OW20084   2.478   3.075   3.010 -0.0544  0.4348  0.2382
 6417SOL    HW120085   2.494   2.984   2.985 -1.4161  0.4846 -0.9447
 6417SOL    HW220086   2.407   3.104   2.952 -0.2557  1.9779  1.1921
 6418SOL     OW20087   4.899   5.185   5.819  0.0573 -0.0523 -0.2856
 6418SOL    HW120088   4.858   5.257   5.867  1.0031  0.8289 -0.7649
 6418SOL    HW220089   4.993   5.200   5.830  0.3289 -2.4982  1.5197
 6419SOL     OW20090   0.259   6.516   7.894  0.6121 -0.3711  0.1692
 6419SOL    HW120091   0.341   6.472   7.873  0.2724  0.0222 -2.2573
 6419SOL    HW220092   0.191   6.451   7.877  0.2949  0.0969 -0.4055
 6420SOL     OW20093   5.187   1.790   5.848  0.1787  0.3625  0.7541
 6420SOL    HW120094   5.228   1.871   5.820  0.2630 -0.8027 -3.1300
 6420SOL    HW220095   5.260   1.729   5.860 -0.0332  0.1181  0.8161
 6421SOL     OW20096   5.398   4.428   3.019  0.0205 -0.0188 -0.3814
 6421SOL    HW120097   5.311   4.434   3.058 -0.9936 -0.0163 -2.5139
 6421SOL    HW220098   5.449   4.495   3.064 -1.5628  1.1359 -0.2346
 6422SOL     OW20099   1.063   0.408   6.159  0.2848 -0.5161 -0.7577
 6422SOL    HW120100   1.125   0.336   6.175  1.7457  0.9248  0.3477
 6422SOL    HW220101   1.116   0.477   6.119 -0.0217  1.5443  2.0999
 6423SOL     OW20102   4.009   4.894   7.403 -0.2288 -0.0968 -0.1361
 6423SOL    HW120103   3.918   4.906   7.429  0.0776  1.0830  0.4436
 6423SOL    HW220104   4.046   4.838   7.471 -0.1976  0.5140  0.3635
 6424SOL     OW20105   2.863   1.942   5.721  0.1845  0.1024  0.7219
 6424SOL    HW120106   2.938   1.891   5.754 -0.4089 -1.7144 -0.5766
 6424SOL    HW220107   2.869   1.934   5.625 -1.8719 -0.4429  0.5908
 6425SOL     OW20108   2.933   6.640   3.541 -0.9875  0.0325 -0.4899
 6425SOL    HW120109   2.943   6.710   3.604 -1.6244  0.7145 -1.1203
 6425SOL    HW220110   2.998   6.575   3.566 -1.2418  0.2705  0.8722
 6426SOL     OW20111   7.010   5.709   3.397 -0.0320 -0.1229  0.0917
 6426SOL    HW120112   7.080   5.765   3.430 -1.2100  0.7904  1.1860
 6426SOL    HW220113   6.965   5.678   3.476 -1.1491 -0.2724 -0.5787
 6427SOL     OW20114   7.631   1.704   7.547  0.5168  0.2250  0.2454
 6427SOL    HW120115   7.598   1.621   7.513  0.3119  0.2509  0.3800
 6427SOL    HW220116   7.698   1.679   7.611  1.3227  0.1845 -0.5924
 6428SOL     OW20117   2.396   1.527   5.285 -0.7607 -0.8100  0.2984
 6428SOL    HW120118   2.379   1.617   5.313 -0.2398 -0.6856  0.2147
 6428SOL    HW220119   2.433   1.484   5.362 -1.6779 -1.1597  0.5656
 6429SOL     OW20120   4.334   1.762   5.363 -0.4826 -0.6436  0.3579
 6429SOL    HW120121   4.366   1.777   5.452 -0.8776 -2.7098  0.9077
 6429SOL    HW220122   4.387   1.689   5.331  0.1399  0.5216 -1.4141
 6430SOL     OW20123   6.253   7.674   5.207 -0.4427 -0.2276 -0.0345
 6430SOL    HW120124   6.206   7.677   5.123 -0.5892 -2.0885 -0.0410
 6430SOL    HW220125   6.301   7.592   5.205  0.8572  0.4750  1.0462
 6431SOL     OW20126   5.381   4.119   0.430 -0.5689 -0.3596  0.6990
 6431SOL    HW120127   5.305   4.105   0.374 -0.6463  0.9214  0.4653
 6431SOL    HW220128   5.346   4.115   0.519 -1.2581  1.8538  0.5849
 6432SOL     OW20129   3.184   4.171   6.996  0.7381 -0.1881 -0.2333
 6432SOL    HW120130   3.240   4.182   7.074 -2.6712  1.2364  2.2530
 6432SOL    HW220131   3.200   4.249   6.944 -0.0595  1.0708  1.3132
 6433SOL     OW20132   0.769   4.502   5.304  0.2506 -0.1214  0.1802
 6433SOL    HW120133   0.833   4.574   5.303  0.4113 -0.2135  1.3842
 6433SOL    HW220134   0.684   4.544   5.300  0.2905  0.2816  2.2801
 6434SOL     OW20135   5.401   0.552   7.813 -0.1041  0.1375 -0.4305
 6434SOL    HW120136   5.434   0.577   7.727  2.1223  1.2950  0.6453
 6434SOL    HW220137   5.445   0.469   7.833  1.3132  1.0592  0.4996
 6435SOL     OW20138   3.074   5.230   5.754 -0.6780  0.5888  0.1581
 6435SOL    HW120139   3.058   5.275   5.671  0.9824 -0.0560 -0.5659
 6435SOL    HW220140   3.034   5.144   5.743 -1.4584  0.9079  0.4779
 6436SOL     OW20141   6.863   0.437   3.433 -0.2436 -0.5145 -1.0726
 6436SOL    HW120142   6.828   0.522   3.461 -0.3487 -0.4424 -1.4251
 6436SOL    HW220143   6.859   0.439   3.338 -0.2867 -0.9319 -1.0819
 6437SOL     OW20144   2.950   0.382   7.288 -0.2358  0.0429  0.2533
 6437SOL    HW120145   2.909   0.298   7.269  0.1602 -0.5340  1.8061
 6437SOL    HW220146   2.984   0.373   7.377 -1.0535  2.1737  0.8614
 6438SOL     OW20147   2.617   0.259   2.067  0.2800  0.2681 -0.0499
 6438SOL    HW120148   2.537   0.238   2.115 -0.9249  1.3019 -1.5328
 6438SOL    HW220149   2.589   0.274   1.977  2.2037  0.2816 -0.7048
 6439SOL     OW20150   0.127   6.254   1.537  0.4267 -0.3523  0.3198
 6439SOL    HW120151   0.145   6.276   1.628 -0.4983 -0.3567  0.5105
 6439SOL    HW220152   0.033   6.235   1.534  0.5073 -0.6980 -0.5636
 6440SOL     OW20153   7.052   4.863   6.436 -0.1076  0.2373  0.7481
 6440SOL    HW120154   7.085   4.849   6.348 -1.2293  0.5288  0.2724
 6440SOL    HW220155   7.078   4.952   6.459 -1.5287  0.8919 -0.0788
 6441SOL     OW20156   2.907   4.482   4.812  0.0771 -0.1217  0.1063
 6441SOL    HW120157   2.938   4.391   4.811 -1.6567 -0.8677  2.5949
 6441SOL    HW220158   2.987   4.534   4.824  0.9315 -1.4736  0.5518
 6442SOL     OW20159   4.316   2.714   3.670 -0.1518  0.2188  0.1794
 6442SOL    HW120160   4.254   2.786   3.674 -0.5238 -0.1090  0.4519
 6442SOL    HW220161   4.356   2.711   3.757  0.8990  0.9801 -0.2523
 6443SOL     OW20162   7.643   2.185   6.479 -0.2462 -0.7732 -0.5868
 6443SOL    HW120163   7.699   2.124   6.528 -0.2720 -0.1478  0.2290
 6443SOL    HW220164   7.583   2.221   6.544 -0.6203 -0.3135 -1.1764
 6444SOL     OW20165   7.605   7.726   5.549 -0.0923 -0.2297  0.5740
 6444SOL    HW120166   7.565   7.810   5.569 -0.7189 -0.6396  1.1010
 6444SOL    HW220167   7.535   7.677   5.504  0.3061 -0.4247  0.1578
 6445SOL     OW20168   0.134   1.906   4.352  0.0190 -0.3573  0.2935
 6445SOL    HW120169   0.080   1.868   4.283 -0.8145  0.4092  0.5132
 6445SOL    HW220170   0.217   1.858   4.346 -0.1232 -0.4575 -1.0773
 6446SOL     OW20171   0.891   4.732   5.254 -0.0491  0.4450 -0.4933
 6446SOL    HW120172   0.964   4.702   5.198 -0.4995  1.4227 -1.6565
 6446SOL    HW220173   0.888   4.826   5.240  0.4539  0.8929  2.0085
 6447SOL     OW20174   5.802   1.506   2.817  0.3744  0.6186  0.5814
 6447SOL    HW120175   5.735   1.559   2.774  0.9422 -2.3403 -4.9409
 6447SOL    HW220176   5.753   1.445   2.873 -1.6015 -0.4359 -2.0942
 6448SOL     OW20177   6.247   6.749   5.142  0.2122 -0.3188 -0.7521
 6448SOL    HW120178   6.312   6.819   5.150 -1.4013  1.1407  0.5257
 6448SOL    HW220179   6.254   6.719   5.052  1.9616  0.4782 -0.9099
 6449SOL     OW20180   5.104   1.650   2.781  0.2433  0.3885 -0.3336
 6449SOL    HW120181   5.160   1.717   2.818 -0.3516  0.2576  0.8372
 6449SOL    HW220182   5.026   1.697   2.751  0.5653  0.4441 -1.1033
 6450SOL     OW20183   6.823   3.446   4.284 -0.1923  0.0319  0.1507
 6450SOL    HW120184   6.764   3.403   4.223 -0.2108  0.7663 -0.3640
 6450SOL    HW220185   6.844   3.530   4.242  1.1218 -0.1623  0.3738
 6451SOL     OW20186   5.898   5.595   5.307  0.4636  0.1436  0.3492
 6451SOL    HW120187   5.836   5.667   5.298  0.9623  0.4807 -0.5350
 6451SOL    HW220188   5.845   5.521   5.336 -0.2485  0.5770  0.1801
 6452SOL     OW20189   0.038   3.530   5.958  0.5716  0.4114  0.2519
 6452SOL    HW120190  -0.017   3.459   5.991 -0.8723  1.3017 -0.1546
 6452SOL    HW220191   0.031   3.524   5.863  1.2130  0.5195  0.1918
 6453SOL     OW20192   2.900   6.784   1.614  0.3809  0.0278  0.0908
 6453SOL    HW120193   2.988   6.748   1.626  0.0985 -0.6198  0.3171
 6453SOL    HW220194   2.858   6.773   1.700  0.8890  2.6845  0.7599
 6454SOL     OW20195   0.246   6.987   1.363  0.6873  0.2943 -0.1255
 6454SOL    HW120196   0.286   7.066   1.401  1.1617  0.0234 -0.0597
 6454SOL    HW220197   0.316   6.945   1.313 -0.0204  0.8272 -1.6268
 6455SOL     OW20198   3.220   5.039   1.872  0.3165  0.0729 -0.0345
 6455SOL    HW120199   3.258   5.115   1.917  1.8027 -0.0401 -1.0176
 6455SOL    HW220200   3.171   5.077   1.799  2.5816  0.1290 -1.6589
 6456SOL     OW20201   6.352   7.481   3.391  0.1180 -0.2972  0.0300
 6456SOL    HW120202   6.372   7.387   3.396  0.8718 -0.0985  1.0927
 6456SOL    HW220203   6.282   7.494   3.455 -0.5579 -0.2606 -0.6987
 6457SOL     OW20204   4.448   5.464   4.802  0.1326 -0.2729  0.4258
 6457SOL    HW120205   4.508   5.405   4.847 -0.6006 -0.3803  1.2822
 6457SOL    HW220206   4.499   5.544   4.789  1.0267 -0.9617 -0.4473
 6458SOL     OW20207   2.541   6.253   4.081  0.6216  0.6566 -0.7476
 6458SOL    HW120208   2.581   6.250   3.994  1.9610  0.0685 -0.1446
 6458SOL    HW220209   2.474   6.185   4.079  2.3441 -1.1441 -0.5631
 6459SOL     OW20210   2.271   4.491   2.095 -0.3298 -0.5739  0.4905
 6459SOL    HW120211   2.344   4.545   2.123 -1.5942  1.5247 -0.0188
 6459SOL    HW220212   2.204   4.554   2.066 -1.1576 -2.4290 -2.0186
 6460SOL     OW20213   1.487   3.389   1.956 -0.0033  0.6076  0.1497
 6460SOL    HW120214   1.434   3.468   1.958  0.6437  1.0385  1.6120
 6460SOL    HW220215   1.572   3.415   1.992  1.7596  0.2810 -3.2905
 6461SOL     OW20216   1.162   3.918   2.206 -0.1719 -0.2165  0.1090
 6461SOL    HW120217   1.159   3.993   2.147 -0.9164 -0.0985  0.2809
 6461SOL    HW220218   1.115   3.849   2.159 -1.7091  0.1944  0.9602
 6462SOL     OW20219   5.864   6.746   7.589 -0.0580 -0.4797  0.6542
 6462SOL    HW120220   5.885   6.652   7.594  3.7812  0.1076 -0.7441
 6462SOL    HW220221   5.935   6.788   7.638 -1.2819  1.7429  0.6075
 6463SOL     OW20222   2.149   3.044   3.079  0.0789 -0.3330 -0.1757
 6463SOL    HW120223   2.127   2.966   3.131 -3.1742  1.8276  2.0757
 6463SOL    HW220224   2.196   3.101   3.140 -0.3767  0.7311 -0.8027
 6464SOL     OW20225   0.756   2.949   7.703 -0.3654 -0.0869 -0.1693
 6464SOL    HW120226   0.822   2.919   7.766  0.4677 -0.1263 -1.0216
 6464SOL    HW220227   0.705   2.871   7.683 -1.4816  0.1882  1.3838
 6465SOL     OW20228   1.443   2.692   7.873  0.1243 -0.1567 -0.7588
 6465SOL    HW120229   1.395   2.694   7.956 -1.7769  1.2541 -1.8174
 6465SOL    HW220230   1.528   2.730   7.893 -0.5543  0.8196  0.4076
 6466SOL     OW20231   5.893   3.002   1.274 -0.1965  0.1687  0.0222
 6466SOL    HW120232   5.855   2.997   1.362  0.3770  0.7635  0.3099
 6466SOL    HW220233   5.848   2.933   1.225  1.3484 -2.0665  1.4972
 6467SOL     OW20234   5.106   3.309   2.553 -0.3221  0.0012 -0.2247
 6467SOL    HW120235   5.179   3.296   2.614  2.0640 -2.4601 -3.2677
 6467SOL    HW220236   5.056   3.228   2.558 -0.7826  0.2501 -0.7120
 6468SOL     OW20237   3.809   3.973   7.388  0.8716  0.2487  0.8139
 6468SOL    HW120238   3.899   3.943   7.374  0.6743  0.6303 -1.8504
 6468SOL    HW220239   3.757   3.893   7.395  1.4131  0.0232  2.6516
 6469SOL     OW20240   4.727   4.642   1.338  0.2765 -0.0694  0.1268
 6469SOL    HW120241   4.813   4.670   1.371  0.5427  1.8473 -1.9761
 6469SOL    HW220242   4.748   4.584   1.265 -0.2233 -0.0782 -0.0096
 6470SOL     OW20243   7.623   3.850   3.691  0.1618 -0.9532  0.4178
 6470SOL    HW120244   7.538   3.829   3.730 -0.0138  2.4221  2.2207
 6470SOL    HW220245   7.685   3.839   3.763  0.5438  0.7673  0.3967
 6471SOL     OW20246   3.075   3.344   2.751 -0.0185 -0.0912  0.2482
 6471SOL    HW120247   3.077   3.404   2.826  1.0879 -0.1660  0.2991
 6471SOL    HW220248   3.151   3.369   2.698 -0.5365 -0.3302 -0.6201
 6472SOL     OW20249   0.280   2.661   4.543 -0.0041 -0.2546  0.1466
 6472SOL    HW120250   0.285   2.578   4.590  0.0484  0.7977  2.1265
 6472SOL    HW220251   0.355   2.660   4.483  0.2468 -1.4474  0.4636
 6473SOL     OW20252   6.234   4.328   2.964  0.7901 -0.1456 -0.1220
 6473SOL    HW120253   6.265   4.394   2.902 -2.5768  2.0376  0.2912
 6473SOL    HW220254   6.282   4.347   3.045 -0.0664  1.8768 -0.0219
 6474SOL     OW20255   0.407   7.536   1.933  0.5507  0.3091  0.1553
 6474SOL    HW120256   0.489   7.545   1.884  1.8658 -0.2570  2.1450
 6474SOL    HW220257   0.344   7.504   1.868  2.1872 -0.3638 -1.1812
 6475SOL     OW20258   4.920   2.844   6.373  0.2769 -0.4174  0.5583
 6475SOL    HW120259   4.993   2.898   6.341  0.7319 -0.8153  0.9164
 6475SOL    HW220260   4.958   2.790   6.442 -0.2623 -0.9415  0.4534
 6476SOL     OW20261   4.408   7.530   5.763  0.2565 -0.4627 -0.0196
 6476SOL    HW120262   4.469   7.489   5.700  0.0642 -0.3751 -0.2637
 6476SOL    HW220263   4.322   7.517   5.724  0.1406 -0.3612  0.2041
 6477SOL     OW20264   2.681   2.097   2.156 -0.0373 -0.9600 -0.7015
 6477SOL    HW120265   2.640   2.117   2.241  0.0449 -1.3680 -0.5644
 6477SOL    HW220266   2.772   2.080   2.176 -0.1654 -1.7753 -0.7682
 6478SOL     OW20267   3.753   2.607   7.195 -0.5430  0.2312 -0.1093
 6478SOL    HW120268   3.759   2.618   7.290  0.2322 -1.5994  0.1024
 6478SOL    HW220269   3.813   2.672   7.159 -0.7252  0.8389  0.6436
 6479SOL     OW20270   3.516   1.316   3.305  0.4372  0.0573 -0.3236
 6479SOL    HW120271   3.592   1.367   3.332  2.3561 -2.0446 -1.3956
 6479SOL    HW220272   3.537   1.285   3.217 -1.7379 -0.4994 -0.7125
 6480SOL     OW20273   4.939   7.078   5.323 -0.6534 -0.5939  0.0198
 6480SOL    HW120274   4.993   7.014   5.276 -1.0564 -0.1904 -1.0121
 6480SOL    HW220275   4.961   7.162   5.283 -0.4694 -0.1367  1.0528
 6481SOL     OW20276   1.064   3.151   6.108 -0.2977 -0.3519  0.2479
 6481SOL    HW120277   0.976   3.141   6.072 -0.1912 -3.3246  0.5708
 6481SOL    HW220278   1.120   3.099   6.050  0.7337 -0.8812  1.6537
 6482SOL     OW20279   0.965   4.263   3.872  0.2810 -0.3677  0.2854
 6482SOL    HW120280   0.870   4.253   3.865 -0.0291  0.3306  2.4737
 6482SOL    HW220281   0.997   4.257   3.783 -1.9898  0.8981 -0.6997
 6483SOL     OW20282   3.640   5.388   6.050  0.2173  0.5744  0.0137
 6483SOL    HW120283   3.690   5.403   5.970 -0.0510  3.7003  0.3060
 6483SOL    HW220284   3.591   5.307   6.033  2.3731 -0.4454 -1.7725
 6484SOL     OW20285   2.033   0.957   1.443  0.4092 -0.1809  0.4037
 6484SOL    HW120286   2.105   0.959   1.380  0.4970 -0.5005  0.4897
 6484SOL    HW220287   1.963   0.910   1.397 -0.0819  0.9236 -0.0215
 6485SOL     OW20288   1.438   7.385   4.999 -0.2763  0.0376 -0.2680
 6485SOL    HW120289   1.435   7.480   5.015 -0.7612  0.2346 -1.4308
 6485SOL    HW220290   1.531   7.364   4.997 -0.1680  0.2831  1.0513
 6486SOL     OW20291   1.762   1.496   3.118 -0.0423  0.4771 -0.0176
 6486SOL    HW120292   1.854   1.473   3.104 -0.2041 -0.4216  0.2983
 6486SOL    HW220293   1.734   1.437   3.188 -1.0342  0.2776 -0.5752
 6487SOL     OW20294   7.294   1.483   6.431  0.4826  0.2220  0.4298
 6487SOL    HW120295   7.271   1.575   6.415  1.5453  0.7507  1.7479
 6487SOL    HW220296   7.301   1.476   6.526  1.2290 -1.0114  0.3071
 6488SOL     OW20297   4.019   7.138   6.455 -0.1372  0.1394 -0.6612
 6488SOL    HW120298   4.105   7.106   6.427 -0.6929 -1.0937 -1.0479
 6488SOL    HW220299   3.964   7.059   6.459 -1.0596  0.7976  0.3164
 6489SOL     OW20300   0.645   5.324   2.994 -0.2996 -0.0207  0.5625
 6489SOL    HW120301   0.578   5.346   2.931  0.5610 -0.9565 -0.7215
 6489SOL    HW220302   0.662   5.406   3.041  0.9017  1.4768 -2.2163
 6490SOL     OW20303   0.455   6.709   1.140  0.0525  0.2648  0.1842
 6490SOL    HW120304   0.513   6.683   1.069 -0.0903  1.2426 -0.3134
 6490SOL    HW220305   0.369   6.719   1.099 -0.5310 -1.3595  0.9475
 6491SOL     OW20306   6.260   4.808   2.537 -0.5629 -0.2817 -0.0711
 6491SOL    HW120307   6.313   4.745   2.585  0.0505 -0.0833 -0.4813
 6491SOL    HW220308   6.246   4.880   2.600 -0.3061 -0.3127  0.0223
 6492SOL     OW20309   0.407   5.707   3.118 -0.1639 -0.0317 -0.2888
 6492SOL    HW120310   0.428   5.628   3.168  0.9335  0.2691 -0.2571
 6492SOL    HW220311   0.492   5.747   3.099 -0.4960 -0.3262 -2.7079
 6493SOL     OW20312   3.038   0.962   2.732  0.9001  0.1573 -0.5608
 6493SOL    HW120313   3.003   0.899   2.669 -1.9038  0.7670  0.2364
 6493SOL    HW220314   3.099   0.912   2.786 -0.0056 -1.4613 -0.9764
 6494SOL     OW20315   6.969   4.890   1.006  0.4039  0.2749 -0.2334
 6494SOL    HW120316   6.917   4.816   1.037  1.4811 -0.2101  0.5009
 6494SOL    HW220317   6.965   4.884   0.910 -0.9031  0.2857 -0.1902
 6495SOL     OW20318   3.180   6.764   6.791  0.4623 -0.0418 -0.5633
 6495SOL    HW120319   3.151   6.776   6.700 -1.0161 -0.2159 -0.1451
 6495SOL    HW220320   3.105   6.792   6.843  0.7770 -1.2445  0.5824
 6496SOL     OW20321   7.761   7.678   5.859  0.1614 -0.4720 -0.0195
 6496SOL    HW120322   7.675   7.686   5.899  0.4135  0.1053  0.4121
 6496SOL    HW220323   7.759   7.593   5.815 -0.7599 -0.3029 -0.3358
 6497SOL     OW20324   5.450   2.952   1.004  0.5149  0.1432 -0.2986
 6497SOL    HW120325   5.370   2.942   1.054  0.3670 -2.2807 -0.8683
 6497SOL    HW220326   5.464   3.046   0.998 -1.9473  0.5999  0.3062
 6498SOL     OW20327   4.059   4.339   2.750 -0.7968 -0.3564 -0.4528
 6498SOL    HW120328   4.107   4.416   2.783  0.1226 -0.8004 -0.7236
 6498SOL    HW220329   3.978   4.375   2.713 -0.8122  0.3809  0.2697
 6499SOL     OW20330   3.700   1.126   4.848  0.5876 -0.3542 -0.0670
 6499SOL    HW120331   3.608   1.097   4.851  0.1103  0.9235 -1.3436
 6499SOL    HW220332   3.749   1.046   4.828 -0.3672 -0.8655 -0.4810
 6500SOL     OW20333   1.806   0.027   3.195 -0.6512  0.2070 -0.2009
 6500SOL    HW120334   1.758   0.083   3.256 -1.3403  0.6357 -1.1098
 6500SOL    HW220335   1.738  -0.026   3.153 -0.1789 -0.1682 -0.5021
 6501SOL     OW20336   1.076   6.110   7.640  0.1574  0.5755 -0.6841
 6501SOL    HW120337   1.045   6.136   7.553 -0.9397  0.5968 -0.3004
 6501SOL    HW220338   1.132   6.034   7.624 -0.5658  0.1725 -1.3524
 6502SOL     OW20339   1.842   5.472   3.493 -0.5013 -0.3357 -0.4820
 6502SOL    HW120340   1.858   5.422   3.413  0.5495 -1.5512  0.4331
 6502SOL    HW220341   1.843   5.563   3.465  2.1048 -0.6000 -1.5753
 6503SOL     OW20342   3.832   6.439   2.123 -0.9025 -0.9196  0.4459
 6503SOL    HW120343   3.834   6.535   2.122 -0.7956 -0.9218  0.1211
 6503SOL    HW220344   3.780   6.416   2.046  0.0427 -1.1396 -0.1429
 6504SOL     OW20345   0.781   0.455   1.833  0.5422 -0.3972  0.1002
 6504SOL    HW120346   0.739   0.451   1.747  0.4759  0.0548  0.1113
 6504SOL    HW220347   0.859   0.509   1.819 -0.5484  1.4601  0.7621
 6505SOL     OW20348   2.248   2.922   7.028 -0.9223 -0.0200 -0.9179
 6505SOL    HW120349   2.324   2.883   6.985  0.5008  0.6579  0.8200
 6505SOL    HW220350   2.264   3.016   7.024 -0.5802  0.0715  1.2059
 6506SOL     OW20351   0.363   0.447   0.480 -1.3018  0.5583 -0.5679
 6506SOL    HW120352   0.426   0.500   0.431  0.2039 -0.5247  0.1083
 6506SOL    HW220353   0.392   0.453   0.571 -1.9574 -0.2658 -0.2882
 6507SOL     OW20354   3.768   1.449   3.385 -0.6316  0.3139 -0.0387
 6507SOL    HW120355   3.855   1.410   3.373 -1.2612 -0.7947 -1.2190
 6507SOL    HW220356   3.786   1.541   3.402  0.8739 -0.2822  2.1220
 6508SOL     OW20357   0.124   2.727   1.153  0.3875  0.6679  0.1104
 6508SOL    HW120358   0.040   2.686   1.136  1.1465 -0.5254 -0.8862
 6508SOL    HW220359   0.143   2.778   1.075 -0.6470  3.2455  1.4092
 6509SOL     OW20360   1.244   7.231   5.977 -0.1829  0.1366 -0.6611
 6509SOL    HW120361   1.282   7.262   5.894  0.6914 -2.1224 -1.1869
 6509SOL    HW220362   1.206   7.146   5.955 -0.8771 -0.0312  1.0545
 6510SOL     OW20363   6.308   4.693   5.499  0.2259  0.2709 -0.4092
 6510SOL    HW120364   6.391   4.688   5.451  1.2602 -1.2376  1.3470
 6510SOL    HW220365   6.335   4.699   5.591 -1.5688 -1.2476  0.2851
 6511SOL     OW20366   3.703   0.186   4.014  0.2687  0.4122  0.2546
 6511SOL    HW120367   3.791   0.158   4.036  0.9856  1.2906 -1.3246
 6511SOL    HW220368   3.653   0.105   4.003  1.5047 -0.1959 -1.1859
 6512SOL     OW20369   5.315   2.544   6.777 -0.3768  0.3070 -0.6955
 6512SOL    HW120370   5.320   2.596   6.697  0.4213 -0.0644 -0.8923
 6512SOL    HW220371   5.273   2.602   6.840 -1.3382  0.4750 -1.4746
 6513SOL     OW20372   0.911   4.070   6.679  0.3915  0.2133 -0.1941
 6513SOL    HW120373   0.835   4.125   6.700  0.7642  0.3693  0.7738
 6513SOL    HW220374   0.873   3.995   6.633 -0.2331  0.7990 -0.6512
 6514SOL     OW20375   1.336   5.159   7.514 -0.5147  0.0066 -0.0802
 6514SOL    HW120376   1.281   5.143   7.438  0.1270  0.5366 -0.6640
 6514SOL    HW220377   1.327   5.253   7.532 -0.3585 -0.0403  0.2615
 6515SOL     OW20378   7.143   7.591   0.128  0.2318  0.3707  0.6685
 6515SOL    HW120379   7.120   7.683   0.121 -0.6818  0.0266 -2.3317
 6515SOL    HW220380   7.229   7.585   0.086  0.1358 -0.1760  0.5445
 6516SOL     OW20381   4.660   1.935   7.340 -0.0958 -0.2424 -0.0559
 6516SOL    HW120382   4.701   1.985   7.270 -1.3810  0.1086 -0.5808
 6516SOL    HW220383   4.632   2.002   7.403  1.0489 -0.5520  0.8254
 6517SOL     OW20384   1.256   4.422   1.652 -0.6648  0.0882 -0.1508
 6517SOL    HW120385   1.245   4.382   1.738 -1.6728 -0.4286 -0.5072
 6517SOL    HW220386   1.290   4.510   1.671  0.0084 -0.3336  0.7143
 6518SOL     OW20387   1.091   2.305   0.470  1.1129 -0.0969 -0.0487
 6518SOL    HW120388   1.140   2.264   0.399  0.9621 -0.1963 -0.0965
 6518SOL    HW220389   1.066   2.391   0.434  0.0118 -0.6099 -0.5709
 6519SOL     OW20390   4.388   0.937   5.021  0.2046  0.3564  0.1519
 6519SOL    HW120391   4.360   0.976   4.938 -3.2533  0.2125  1.1128
 6519SOL    HW220392   4.369   1.004   5.087  1.1580 -0.2376  1.0718
 6520SOL     OW20393   6.829   3.497   7.178  0.1175 -0.0682 -0.2547
 6520SOL    HW120394   6.810   3.584   7.143  1.6574  0.2394 -0.4063
 6520SOL    HW220395   6.888   3.458   7.113 -0.1755 -1.0330  0.0526
 6521SOL     OW20396   5.399   3.810   3.173 -0.4939 -0.5342  0.2547
 6521SOL    HW120397   5.306   3.790   3.174 -0.4887 -0.7056  2.9215
 6521SOL    HW220398   5.442   3.729   3.198  0.3934 -0.4505 -0.9259
 6522SOL     OW20399   1.339   6.408   6.919  0.4551  0.0691  0.1253
 6522SOL    HW120400   1.264   6.356   6.949  0.5950 -0.8211 -0.9915
 6522SOL    HW220401   1.415   6.365   6.960  0.4512  0.3694  0.4590
 6523SOL     OW20402   2.829   3.420   5.877  0.6618 -0.4688  0.2680
 6523SOL    HW120403   2.830   3.332   5.916  1.0360  0.2398  1.9206
 6523SOL    HW220404   2.919   3.435   5.849  0.6447 -0.5109  0.1886
 6524SOL     OW20405   6.523   2.218   5.873 -0.6159 -0.2291  0.6719
 6524SOL    HW120406   6.585   2.149   5.898  0.2320  0.1092 -0.4169
 6524SOL    HW220407   6.486   2.248   5.956  0.4576 -0.6473  1.3294
 6525SOL     OW20408   0.972   2.950   0.489 -0.4887  0.4670  0.0552
 6525SOL    HW120409   0.957   2.959   0.394 -1.6263  1.1575  0.2878
 6525SOL    HW220410   0.944   3.034   0.525  1.3693  0.8054  0.8634
 6526SOL     OW20411   4.273   0.684   2.360 -0.0754  0.1353  0.3659
 6526SOL    HW120412   4.186   0.722   2.357 -0.2671 -0.1389  1.7221
 6526SOL    HW220413   4.262   0.603   2.410  0.7653 -0.4602 -0.3714
 6527SOL     OW20414   6.911   2.744   6.274 -0.3417 -0.8644 -0.2484
 6527SOL    HW120415   6.931   2.763   6.365 -0.1124 -1.0803 -0.2498
 6527SOL    HW220416   6.972   2.673   6.251  1.0905  0.6080 -1.1885
 6528SOL     OW20417   5.825   5.587   2.184  0.2294 -0.1864  0.3101
 6528SOL    HW120418   5.754   5.546   2.232 -0.4731 -0.9014 -1.2693
 6528SOL    HW220419   5.890   5.518   2.173  0.2176 -0.1383 -0.0823
 6529SOL     OW20420   4.652   1.353   7.080  0.8545 -0.0545  0.5973
 6529SOL    HW120421   4.602   1.400   7.147  1.0201  0.1986  0.5439
 6529SOL    HW220422   4.706   1.421   7.038 -0.0636 -0.0054 -0.5493
 6530SOL     OW20423   6.376   4.384   4.548  0.4660 -0.3004 -0.4236
 6530SOL    HW120424   6.439   4.445   4.586  1.1820 -0.2080 -1.6952
 6530SOL    HW220425   6.413   4.362   4.463 -1.5712  0.3197 -1.5388
 6531SOL     OW20426   6.193   5.875   0.763 -0.0656 -0.0162  0.1993
 6531SOL    HW120427   6.126   5.912   0.821 -0.5842 -2.4350  1.2458
 6531SOL    HW220428   6.276   5.906   0.800 -0.4863  0.3937  0.8226
 6532SOL     OW20429   0.718   6.053   0.403 -0.2481  0.2844 -0.5944
 6532SOL    HW120430   0.794   6.054   0.346 -0.5241  1.5165 -0.9736
 6532SOL    HW220431   0.645   6.081   0.347 -1.1145 -1.4132 -0.3891
 6533SOL     OW20432   6.705   6.932   4.098 -0.4097  0.8111  0.0557
 6533SOL    HW120433   6.727   6.902   4.186 -0.8958  0.2126 -0.0261
 6533SOL    HW220434   6.745   7.019   4.092  1.1896  0.1239  0.2162
 6534SOL     OW20435   4.800   2.627   3.501 -0.1081  0.1599  0.2784
 6534SOL    HW120436   4.753   2.682   3.438 -0.6578  1.1288  1.4789
 6534SOL    HW220437   4.738   2.617   3.574  1.1790  0.6716  1.4909
 6535SOL     OW20438   4.588   7.178   1.161 -0.0752  0.5198  0.6686
 6535SOL    HW120439   4.651   7.114   1.128  1.0626  2.2719 -0.7108
 6535SOL    HW220440   4.570   7.149   1.251  2.5776 -0.1743  1.0730
 6536SOL     OW20441   0.035   1.196   6.502 -0.6209  0.1058  0.3444
 6536SOL    HW120442   0.064   1.263   6.564 -0.9656  0.0376  0.5850
 6536SOL    HW220443  -0.045   1.161   6.541 -0.0730 -0.9387  0.5772
 6537SOL     OW20444   6.452   5.677   5.014  0.5617 -0.0149 -0.1954
 6537SOL    HW120445   6.517   5.666   5.084  0.4297  0.9186  0.0984
 6537SOL    HW220446   6.501   5.723   4.945  0.0331  1.4531  0.3599
 6538SOL     OW20447   2.261   4.768   3.418  0.2748  0.1548 -0.0933
 6538SOL    HW120448   2.301   4.839   3.367  0.7467 -2.1687 -3.2359
 6538SOL    HW220449   2.331   4.737   3.475  1.3001 -0.2271 -1.4984
 6539SOL     OW20450   7.530   5.194   1.198 -0.3959  0.2734  0.3866
 6539SOL    HW120451   7.450   5.203   1.250 -1.2605  0.6218 -0.9464
 6539SOL    HW220452   7.523   5.108   1.156  0.6480 -0.3240  1.3905
 6540SOL     OW20453   2.660   1.375   1.254 -0.1411 -0.1632 -0.2770
 6540SOL    HW120454   2.621   1.437   1.316  0.6126 -0.3771  0.4154
 6540SOL    HW220455   2.723   1.325   1.305 -1.0343 -1.8156 -0.7079
 6541SOL     OW20456   0.862   1.112   1.644  0.1510 -0.1177 -0.8404
 6541SOL    HW120457   0.901   1.155   1.721 -1.2477  0.3153 -0.3385
 6541SOL    HW220458   0.895   1.022   1.648  0.1492 -0.0914  0.2538
 6542SOL     OW20459   3.173   5.005   5.142  0.3948 -0.4713  0.8108
 6542SOL    HW120460   3.160   5.099   5.132 -2.1458 -0.6507  1.6627
 6542SOL    HW220461   3.144   4.986   5.232  1.3499 -2.0036  0.8444
 6543SOL     OW20462   4.696   3.895   7.438 -0.0912 -1.2316  0.1557
 6543SOL    HW120463   4.713   3.813   7.392 -3.5993 -1.3434 -1.2736
 6543SOL    HW220464   4.609   3.922   7.407  0.1388  2.0902  1.9570
 6544SOL     OW20465   7.492   6.931   3.966  0.1644 -0.3483  0.6997
 6544SOL    HW120466   7.400   6.936   3.939  0.2202  1.9883  0.7344
 6544SOL    HW220467   7.491   6.953   4.059  0.8710  1.5804  0.3012
 6545SOL     OW20468   5.124   5.614   3.729  0.4882 -0.1922  0.3287
 6545SOL    HW120469   5.141   5.537   3.675  1.0178  0.5278 -0.5628
 6545SOL    HW220470   5.142   5.585   3.818  0.2093 -1.2328  0.0622
 6546SOL     OW20471   5.569   4.901   0.271  0.7247  0.6033  0.5358
 6546SOL    HW120472   5.586   4.971   0.207 -0.4517  0.3319 -0.1231
 6546SOL    HW220473   5.571   4.945   0.356  4.5900  0.5738  0.6123
 6547SOL     OW20474   2.505   7.611   5.187 -0.0220 -0.3518 -0.3246
 6547SOL    HW120475   2.464   7.525   5.178  1.2656 -1.0924  0.5789
 6547SOL    HW220476   2.537   7.632   5.099  0.9363 -1.4920 -0.2758
 6548SOL     OW20477   5.019   1.077   1.310  0.0175 -0.0739 -0.2404
 6548SOL    HW120478   4.960   1.002   1.311  0.7928 -0.6932  0.0786
 6548SOL    HW220479   5.107   1.039   1.317  0.3930  0.8962  0.5510
 6549SOL     OW20480   6.697   2.753   7.107  0.8130  0.1240  0.2392
 6549SOL    HW120481   6.680   2.677   7.051 -1.0035  2.1711 -2.2794
 6549SOL    HW220482   6.767   2.800   7.062 -0.4006  1.6087 -0.1837
 6550SOL     OW20483   1.503   6.729   5.567  0.0184  0.4797  0.1198
 6550SOL    HW120484   1.539   6.680   5.493  1.4705 -0.3119  1.2981
 6550SOL    HW220485   1.517   6.672   5.643 -0.1512  1.8485  1.2171
 6551SOL     OW20486   7.945   2.095   6.224 -0.0246 -0.1294  0.2829
 6551SOL    HW120487   8.036   2.067   6.224 -0.1938 -0.6893 -0.2237
 6551SOL    HW220488   7.923   2.107   6.316  1.0387  1.6033  0.3550
 6552SOL     OW20489   5.418   7.593   5.584  0.0765 -0.3389  0.2336
 6552SOL    HW120490   5.450   7.671   5.539  0.0048 -0.6668 -0.4037
 6552SOL    HW220491   5.496   7.550   5.618  0.0619  0.3463  1.1561
 6553SOL     OW20492   4.820   2.431   7.559  0.0062  0.1435 -0.0673
 6553SOL    HW120493   4.818   2.461   7.469 -0.6037  3.0011  0.8018
 6553SOL    HW220494   4.901   2.467   7.595 -1.3690  2.0767  1.3655
 6554SOL     OW20495   2.768   0.303   4.603 -0.0592 -0.1206 -0.0048
 6554SOL    HW120496   2.819   0.372   4.645 -2.6892  1.5631  0.6586
 6554SOL    HW220497   2.800   0.301   4.513  1.2703  0.7080  0.4232
 6555SOL     OW20498   5.144   5.881   3.806 -0.4010  0.3264 -0.1627
 6555SOL    HW120499   5.065   5.888   3.860 -0.2675  0.2516  0.0442
 6555SOL    HW220500   5.144   5.790   3.776  0.4702 -0.1442  1.1806
 6556SOL     OW20501   0.844   5.367   4.775  0.3137  0.7324 -0.5569
 6556SOL    HW120502   0.815   5.445   4.727 -0.3953  1.8853  1.6316
 6556SOL    HW220503   0.897   5.402   4.847 -1.8243 -0.5840  1.7865
 6557SOL     OW20504   1.539   3.606   5.434 -0.1322  0.3926  0.4990
 6557SOL    HW120505   1.474   3.658   5.481  0.0889 -0.4587  1.7949
 6557SOL    HW220506   1.535   3.639   5.344 -2.3485  0.3791  0.5228
 6558SOL     OW20507   7.076   3.746   1.235  0.7635  0.4173 -0.3348
 6558SOL    HW120508   7.137   3.776   1.302  1.2519  1.3923 -1.1944
 6558SOL    HW220509   6.992   3.739   1.281  1.1301  0.8574  0.4310
 6559SOL     OW20510   3.896   7.582   3.457  0.2677 -0.6783 -0.0523
 6559SOL    HW120511   3.977   7.623   3.425  0.3719 -0.2342  0.7519
 6559SOL    HW220512   3.900   7.492   3.424  0.5918 -0.3721 -0.8788
 6560SOL     OW20513   2.311   0.097   6.815 -0.2431 -0.3451  0.1021
 6560SOL    HW120514   2.247   0.109   6.745 -2.2131  1.0112  2.0081
 6560SOL    HW220515   2.374   0.168   6.803 -0.1951 -0.5073 -0.6445
 6561SOL     OW20516   2.287   2.603   7.208  0.2548  0.1657 -0.5963
 6561SOL    HW120517   2.274   2.566   7.121  0.9649 -1.7394  0.0665
 6561SOL    HW220518   2.358   2.551   7.246 -0.0935  0.9048  1.1618
 6562SOL     OW20519   6.817   5.319   0.811 -0.5469  0.6784 -0.3492
 6562SOL    HW120520   6.856   5.272   0.884 -1.7235 -1.0287 -0.7600
 6562SOL    HW220521   6.811   5.410   0.841  2.1170  0.7143  0.3418
 6563SOL     OW20522   5.346   7.076   5.397 -0.1791 -0.0227 -0.6837
 6563SOL    HW120523   5.310   7.076   5.308  1.9551 -0.3042 -1.6100
 6563SOL    HW220524   5.348   6.984   5.421 -1.2898  0.0958 -0.0825
 6564SOL     OW20525   4.191   0.722   7.727  0.4129  0.4994 -0.3860
 6564SOL    HW120526   4.254   0.692   7.662  1.0610 -0.1891  0.5262
 6564SOL    HW220527   4.119   0.660   7.723  0.2517  0.7050 -0.7317
 6565SOL     OW20528   1.084   0.673   5.561 -0.0652  0.7039 -0.8297
 6565SOL    HW120529   1.097   0.757   5.518 -0.7371 -0.2427 -3.0108
 6565SOL    HW220530   1.029   0.623   5.501 -1.3946 -0.6086  1.3299
 6566SOL     OW20531   6.030   3.494   4.702  0.3554  0.1688  0.3618
 6566SOL    HW120532   5.983   3.574   4.681  0.4072 -0.5570 -3.1061
 6566SOL    HW220533   6.040   3.496   4.797 -3.3631  2.1550  0.8707
 6567SOL     OW20534   2.395   7.304   2.927 -0.5690  0.1135  0.5676
 6567SOL    HW120535   2.469   7.266   2.974 -0.6638  1.5891  2.0017
 6567SOL    HW220536   2.341   7.229   2.902  0.6412 -0.8731  0.8144
 6568SOL     OW20537   7.062   1.331   6.000  0.1576 -0.2338 -0.3736
 6568SOL    HW120538   7.111   1.259   6.041 -0.2826  0.9347  2.3695
 6568SOL    HW220539   7.116   1.409   6.015 -1.3635  0.6878  0.5157
 6569SOL     OW20540   6.831   4.134   6.928 -0.2658 -0.2858  0.3603
 6569SOL    HW120541   6.892   4.117   6.999  0.5874 -0.4019 -0.3771
 6569SOL    HW220542   6.886   4.165   6.856 -0.9073 -1.5834 -0.7305
 6570SOL     OW20543   5.692   7.535   0.249  0.0229  0.1886 -0.1260
 6570SOL    HW120544   5.646   7.453   0.269  1.0927 -0.1554  1.0721
 6570SOL    HW220545   5.622   7.597   0.229 -0.7644 -1.3006 -2.3451
 6571SOL     OW20546   1.914   4.278   7.328 -0.6420 -0.2907  0.5591
 6571SOL    HW120547   1.864   4.310   7.403  0.8939  1.9850  0.7187
 6571SOL    HW220548   2.005   4.286   7.356 -0.0976 -2.0567 -0.5700
 6572SOL     OW20549   4.478   1.440   5.514 -0.4915 -0.1000  0.1982
 6572SOL    HW120550   4.497   1.374   5.580 -0.1460 -0.4656 -0.2648
 6572SOL    HW220551   4.563   1.475   5.489 -0.6104 -0.0380 -0.1304
 6573SOL     OW20552   2.571   7.541   3.467  0.2607  0.0166 -0.2491
 6573SOL    HW120553   2.645   7.485   3.446 -0.1131 -0.3426 -0.6275
 6573SOL    HW220554   2.503   7.482   3.498 -0.3102  0.1927 -1.1279
 6574SOL     OW20555   2.772   5.766   7.006 -0.7255 -0.0160  0.2464
 6574SOL    HW120556   2.852   5.816   6.992 -1.4901  1.2100  0.1048
 6574SOL    HW220557   2.790   5.714   7.085 -0.2848  1.3274  1.0632
 6575SOL     OW20558   0.718   2.518   6.918  0.9274  0.4391 -0.0553
 6575SOL    HW120559   0.670   2.435   6.914  2.2068 -0.3274 -0.0417
 6575SOL    HW220560   0.653   2.582   6.949 -0.6113 -0.1342 -1.8539
 6576SOL     OW20561   5.248   2.717   2.375 -0.2095 -0.0385 -0.4087
 6576SOL    HW120562   5.199   2.642   2.408 -1.0895  0.7850  0.2269
 6576SOL    HW220563   5.310   2.737   2.445 -0.0641 -0.0905 -0.5229
 6577SOL     OW20564   7.217   5.827   4.190 -0.2852 -0.1885  0.3899
 6577SOL    HW120565   7.237   5.822   4.283  0.4088 -0.2827  0.2435
 6577SOL    HW220566   7.122   5.840   4.186 -0.1211  1.5109  1.1486
 6578SOL     OW20567   1.137   6.920   1.767  0.2023  0.3615 -0.1841
 6578SOL    HW120568   1.200   6.850   1.784 -1.0506 -0.6316  0.5982
 6578SOL    HW220569   1.180   7.000   1.795  0.5510 -0.4762  1.8267
 6579SOL     OW20570   4.235   0.935   1.233  0.2711 -0.0207 -0.3836
 6579SOL    HW120571   4.282   1.000   1.181  0.9138 -0.9025 -0.9535
 6579SOL    HW220572   4.220   0.862   1.172 -0.0044 -0.6017  0.3537
 6580SOL     OW20573   6.320   0.613   3.437  0.0842 -0.6196  0.1258
 6580SOL    HW120574   6.333   0.625   3.343  0.3527 -0.7514  0.1461
 6580SOL    HW220575   6.232   0.646   3.453  0.6583  1.0385  0.1174
 6581SOL     OW20576   1.246   6.751   1.138 -0.0123 -0.3181 -0.0039
 6581SOL    HW120577   1.162   6.739   1.093  0.1009 -2.1493  0.2179
 6581SOL    HW220578   1.223   6.758   1.231  0.1436 -2.0450  0.1848
 6582SOL     OW20579   6.087   4.313   7.335  0.2042  0.5328  0.0826
 6582SOL    HW120580   6.132   4.242   7.288  1.2318 -0.9919  3.0887
 6582SOL    HW220581   6.010   4.271   7.372 -0.7559  1.7758 -0.4339
 6583SOL     OW20582   0.319   0.242   2.690  0.4260 -0.4091 -0.0504
 6583SOL    HW120583   0.320   0.308   2.759  0.0061 -1.0956  0.6216
 6583SOL    HW220584   0.408   0.243   2.655  0.5960  0.0643  0.3780
 6584SOL     OW20585   7.777   7.709   0.250 -0.4469 -0.1685 -0.2586
 6584SOL    HW120586   7.788   7.621   0.284  1.0333  0.5839  1.3769
 6584SOL    HW220587   7.859   7.729   0.205 -0.6535  0.4843 -0.3658
 6585SOL     OW20588   3.816   6.228   2.862  0.2066 -0.0390  0.2915
 6585SOL    HW120589   3.884   6.225   2.795  1.7944 -0.5922  1.8525
 6585SOL    HW220590   3.822   6.143   2.907 -1.2113  0.0783  0.7844
 6586SOL     OW20591   3.545   6.089   2.003  0.4465  0.1891 -0.5863
 6586SOL    HW120592   3.471   6.063   2.058  0.2540 -1.3003 -1.4923
 6586SOL    HW220593   3.592   6.007   1.986  1.6316  0.9330 -1.0073
 6587SOL     OW20594   3.458   4.975   0.066  0.4701 -0.1547  0.4235
 6587SOL    HW120595   3.552   4.974   0.051  0.6228  0.7371  1.2727
 6587SOL    HW220596   3.438   5.064   0.093 -0.7166 -0.1737 -0.3054
 6588SOL     OW20597   1.554   0.097   6.139 -0.1331  0.1959  0.1347
 6588SOL    HW120598   1.560   0.075   6.046  1.6404 -2.8369  0.8082
 6588SOL    HW220599   1.630   0.153   6.155  0.1719 -0.1426 -0.0840
 6589SOL     OW20600   6.412   6.126   6.489 -0.5804 -0.4528  0.3885
 6589SOL    HW120601   6.365   6.044   6.507 -1.7896  0.8031  4.0114
 6589SOL    HW220602   6.496   6.116   6.534  0.0268 -0.3526 -0.7086
 6590SOL     OW20603   2.244   7.095   2.829 -0.0056 -0.6191  0.1731
 6590SOL    HW120604   2.161   7.108   2.783  0.1082 -2.9135 -0.7955
 6590SOL    HW220605   2.251   7.001   2.842  2.7003 -0.5826 -0.2947
 6591SOL     OW20606   6.959   6.272   2.835  0.2565 -0.4049  0.5589
 6591SOL    HW120607   6.949   6.195   2.778 -1.6834  1.0686 -1.2746
 6591SOL    HW220608   7.049   6.266   2.867  1.2540 -1.7601 -2.1241
 6592SOL     OW20609   2.450   2.417   6.040  0.2154  0.0074 -0.1648
 6592SOL    HW120610   2.534   2.398   6.000 -0.2242 -0.2478 -0.9695
 6592SOL    HW220611   2.385   2.381   5.980 -0.4631 -0.1322  0.6317
 6593SOL     OW20612   4.258   7.048   6.337  0.0435  0.0914  0.0166
 6593SOL    HW120613   4.301   7.128   6.367 -0.6571  0.4714  0.0386
 6593SOL    HW220614   4.290   7.035   6.248 -1.4778  1.6448 -0.8338
 6594SOL     OW20615   5.096   5.586   3.027 -0.4337  0.0479  0.6860
 6594SOL    HW120616   5.158   5.543   2.967 -0.3100  0.4991  0.4835
 6594SOL    HW220617   5.014   5.589   2.978  0.0265  1.7445 -0.0844
 6595SOL     OW20618   6.183   6.508   0.615  0.4298 -0.3135 -0.4400
 6595SOL    HW120619   6.177   6.514   0.710  1.7398 -1.4917 -0.2463
 6595SOL    HW220620   6.234   6.584   0.588  0.9867 -0.5497 -0.0667
 6596SOL     OW20621   4.002   0.647   3.687 -0.8002 -0.6374 -0.7866
 6596SOL    HW120622   3.956   0.565   3.671 -1.8172 -0.2363 -0.0353
 6596SOL    HW220623   3.932   0.712   3.698 -0.1705 -0.3466  2.3249
 6597SOL     OW20624   4.000   7.075   1.593  0.1010  0.6264  0.2865
 6597SOL    HW120625   3.923   7.118   1.556 -0.9437 -1.2401  0.1229
 6597SOL    HW220626   3.965   7.022   1.665  1.4936  0.9842  1.2664
 6598SOL     OW20627   5.766   4.935   6.423 -0.4172 -0.2689 -0.4147
 6598SOL    HW120628   5.844   4.915   6.371  1.4684 -0.6823  2.3402
 6598SOL    HW220629   5.723   4.851   6.436 -1.1592 -0.0980 -1.5995
 6599SOL     OW20630   6.986   7.539   4.916 -0.2975 -0.0914 -0.0914
 6599SOL    HW120631   7.023   7.583   4.840 -0.5081 -1.2268 -0.8758
 6599SOL    HW220632   6.904   7.501   4.884 -1.4041  1.1170  1.2238
 6600SOL     OW20633   7.191   7.169   0.830 -0.2740 -0.4185  0.2209
 6600SOL    HW120634   7.196   7.181   0.925  0.6191  0.7515  0.0544
 6600SOL    HW220635   7.280   7.190   0.799  0.0517 -2.8479 -0.6792
 6601SOL     OW20636   3.107   7.691   0.433  0.0995 -0.5656 -0.0977
 6601SOL    HW120637   3.121   7.750   0.507 -0.2118 -0.0548 -0.4391
 6601SOL    HW220638   3.073   7.610   0.471  2.2015 -1.1978  0.5818
 6602SOL     OW20639   6.772   1.865   4.517 -1.1858 -0.5910 -0.2250
 6602SOL    HW120640   6.853   1.823   4.487 -1.5626 -1.6690  0.2062
 6602SOL    HW220641   6.717   1.792   4.545 -1.7532  0.2143  0.8268
 6603SOL     OW20642   2.803   2.513   6.613 -0.0876 -0.3239  0.5150
 6603SOL    HW120643   2.894   2.534   6.591 -0.1771 -0.2624  0.2121
 6603SOL    HW220644   2.759   2.598   6.619 -0.2743 -0.3870  0.0321
 6604SOL     OW20645   5.423   2.178   0.798  0.0990 -0.2769  0.3550
 6604SOL    HW120646   5.458   2.161   0.886 -1.3412  0.0615  1.0316
 6604SOL    HW220647   5.425   2.274   0.790  1.1736 -0.3463 -0.4137
 6605SOL     OW20648   5.096   2.662   4.868 -0.1841  1.1099 -0.4308
 6605SOL    HW120649   5.161   2.688   4.933  0.7871 -0.7629 -0.5945
 6605SOL    HW220650   5.012   2.685   4.908  0.2794 -1.1146  2.1489
 6606SOL     OW20651   2.482   3.660   1.339  0.3468  0.4114 -0.2724
 6606SOL    HW120652   2.570   3.657   1.376  0.0932  0.5227  0.3527
 6606SOL    HW220653   2.447   3.572   1.353 -0.3487  0.8980  1.2786
 6607SOL     OW20654   4.014   3.980   0.768 -0.1954  0.0877  0.1869
 6607SOL    HW120655   4.024   3.924   0.845 -2.2281  1.0705  1.2818
 6607SOL    HW220656   4.098   4.024   0.759  0.4564 -0.9040  1.1390
 6608SOL     OW20657   7.629   2.213   2.781  0.8332  0.2051 -0.0457
 6608SOL    HW120658   7.590   2.236   2.696 -0.7123 -0.7765  0.3645
 6608SOL    HW220659   7.598   2.280   2.841 -0.2446 -0.5423  0.2673
 6609SOL     OW20660   3.858   1.612   1.832  0.7045  0.5764  0.1425
 6609SOL    HW120661   3.769   1.639   1.806  0.4929  0.3795  0.6481
 6609SOL    HW220662   3.881   1.543   1.770  0.8972  1.2942 -0.6067
 6610SOL     OW20663   4.057   5.262   6.957  0.2356  0.0316 -0.6789
 6610SOL    HW120664   4.147   5.281   6.982  0.4366 -0.7378 -0.8005
 6610SOL    HW220665   4.010   5.259   7.040  0.5167 -0.5286 -0.5316
 6611SOL     OW20666   5.144   2.072   3.172 -0.1924  0.2227  0.2939
 6611SOL    HW120667   5.069   2.012   3.170  0.4592 -0.6475  1.0507
 6611SOL    HW220668   5.155   2.093   3.265 -0.2640  1.3444  0.0597
 6612SOL     OW20669   5.279   2.258   6.111 -1.2889 -0.4190  0.0082
 6612SOL    HW120670   5.276   2.289   6.201 -0.5446  1.5881 -0.5860
 6612SOL    HW220671   5.373   2.245   6.093 -1.4791 -1.5951 -0.2565
 6613SOL     OW20672   1.176   0.310   3.147 -0.3485  0.0961 -0.0075
 6613SOL    HW120673   1.179   0.301   3.052  1.0768  1.0018 -0.0742
 6613SOL    HW220674   1.258   0.273   3.178 -0.1771  1.0602  0.7455
 6614SOL     OW20675   0.589   1.402   5.608 -0.1116  0.3009 -0.7661
 6614SOL    HW120676   0.589   1.432   5.699  0.7654  0.0930 -0.6913
 6614SOL    HW220677   0.663   1.446   5.568  0.7671 -1.1799 -0.8474
 6615SOL     OW20678   5.757   3.850   7.335  0.2203 -0.7394 -0.3280
 6615SOL    HW120679   5.790   3.892   7.255  0.3888 -0.8322 -0.3077
 6615SOL    HW220680   5.662   3.845   7.321  0.2276 -0.5943 -0.4450
 6616SOL     OW20681   7.886   3.744   5.070 -0.5191 -0.1805 -0.2591
 6616SOL    HW120682   7.895   3.733   5.165 -1.9832 -0.5360 -0.1418
 6616SOL    HW220683   7.800   3.783   5.058 -0.1498  0.3226 -1.4304
 6617SOL     OW20684   2.682   7.314   6.697 -0.0604 -0.5073  0.0933
 6617SOL    HW120685   2.609   7.273   6.652 -0.1464 -0.3519  0.0905
 6617SOL    HW220686   2.683   7.404   6.664 -0.9593  0.0089  1.4019
 6618SOL     OW20687   6.801   0.628   6.979 -0.5738  0.5652 -0.0920
 6618SOL    HW120688   6.798   0.547   7.030  0.7791  0.7882  0.3849
 6618SOL    HW220689   6.873   0.615   6.917 -1.1148  0.9476 -0.8089
 6619SOL     OW20690   0.389   1.115   4.211  0.8268  0.1612  0.2554
 6619SOL    HW120691   0.394   1.205   4.177  1.2634  0.9887  2.3411
 6619SOL    HW220692   0.309   1.080   4.172  0.6961  1.4076 -0.6923
 6620SOL     OW20693   2.587   3.366   4.725 -0.3309 -0.4283  0.1733
 6620SOL    HW120694   2.666   3.322   4.693 -0.5672  0.0647 -1.1824
 6620SOL    HW220695   2.610   3.459   4.722 -0.8392 -0.3024  0.1270
 6621SOL     OW20696   1.613   0.512   0.761 -0.6186  0.4188  0.1564
 6621SOL    HW120697   1.594   0.551   0.847 -0.3706  0.8559  0.0189
 6621SOL    HW220698   1.529   0.507   0.717 -0.8445 -0.4002  0.6644
 6622SOL     OW20699   5.080   0.008   7.366  0.2990 -0.0759 -0.0878
 6622SOL    HW120700   5.157  -0.047   7.382  0.2559 -0.2608 -0.5056
 6622SOL    HW220701   5.075   0.065   7.443  0.1763 -0.8499  0.4863
 6623SOL     OW20702   5.184   7.103   7.079 -0.0053 -0.1486 -0.2923
 6623SOL    HW120703   5.239   7.101   7.157 -0.6772  2.8707  0.3831
 6623SOL    HW220704   5.216   7.178   7.029 -1.4709 -0.2439 -1.4528
 6624SOL     OW20705   3.255   7.875   7.131 -0.4255 -0.1420  0.1033
 6624SOL    HW120706   3.341   7.918   7.135  0.7794 -2.2675 -1.0835
 6624SOL    HW220707   3.231   7.861   7.223  0.6398  0.2376  0.4608
 6625SOL     OW20708   0.857   4.929   6.295 -0.5112 -0.0923 -0.4979
 6625SOL    HW120709   0.937   4.976   6.321  0.9511 -2.0043 -1.3277
 6625SOL    HW220710   0.802   4.997   6.255  1.0801  1.1151 -0.7552
 6626SOL     OW20711   7.397   1.800   3.948 -0.1872 -0.1089 -0.4881
 6626SOL    HW120712   7.470   1.853   3.916 -0.4021  0.0509 -0.7135
 6626SOL    HW220713   7.389   1.823   4.041 -0.6028  0.6326 -0.6982
 6627SOL     OW20714   2.512   6.564   6.892 -0.0979 -0.0683  0.0422
 6627SOL    HW120715   2.513   6.510   6.813 -0.6004 -0.3297  0.2140
 6627SOL    HW220716   2.605   6.575   6.914  0.0627  0.2260 -0.7276
 6628SOL     OW20717   7.316   0.124   4.801 -0.0109  0.4562 -0.3484
 6628SOL    HW120718   7.338   0.216   4.785  1.0457  0.6288  1.7173
 6628SOL    HW220719   7.390   0.075   4.764  0.4168  0.5760  0.3414
 6629SOL     OW20720   2.378   5.630   5.042  0.1679  0.8221 -0.1582
 6629SOL    HW120721   2.365   5.536   5.029  1.9806  0.6722 -1.4272
 6629SOL    HW220722   2.453   5.636   5.101  0.2342  1.4606 -0.2997
 6630SOL     OW20723   7.702   1.596   6.855  0.0720  0.0689  0.4795
 6630SOL    HW120724   7.673   1.687   6.849  1.2614  0.4165 -0.4094
 6630SOL    HW220725   7.797   1.601   6.843  0.0453 -1.3722 -0.5079
 6631SOL     OW20726   6.208   3.231   3.705  0.4603 -0.0209 -0.0146
 6631SOL    HW120727   6.268   3.199   3.773 -0.1462  0.4107  0.7506
 6631SOL    HW220728   6.130   3.258   3.754 -0.4587 -0.8017 -1.0146
 6632SOL     OW20729   5.896   6.743   1.511 -0.2026  0.2250  0.0017
 6632SOL    HW120730   5.832   6.672   1.513  1.7245 -1.6221  1.0764
 6632SOL    HW220731   5.895   6.778   1.600  0.7548 -0.3227  0.2420
 6633SOL     OW20732   0.853   2.019   1.374 -0.7300  0.1839  0.0557
 6633SOL    HW120733   0.796   1.945   1.391 -1.9488  0.7003 -1.5084
 6633SOL    HW220734   0.799   2.096   1.392 -0.0283  0.6931  0.0559
 6634SOL     OW20735   2.811   1.028   4.218  0.0493 -0.5164 -0.0999
 6634SOL    HW120736   2.860   0.956   4.260  1.5563  0.5190  0.0006
 6634SOL    HW220737   2.752   0.984   4.157 -0.4960 -1.9417  1.3697
 6635SOL     OW20738   2.261   0.092   7.214  0.6433  0.7824 -0.3485
 6635SOL    HW120739   2.205   0.136   7.151  0.1295  1.6545  0.6905
 6635SOL    HW220740   2.344   0.079   7.167 -0.2556 -0.1651 -1.7628
 6636SOL     OW20741   7.105   6.810   4.340  0.0240 -0.6485  0.5363
 6636SOL    HW120742   7.143   6.831   4.425 -1.6508 -0.9429  1.4041
 6636SOL    HW220743   7.125   6.717   4.326 -0.4190 -0.8189  1.0191
 6637SOL     OW20744   4.533   3.633   5.718  0.0988  0.0961 -0.0816
 6637SOL    HW120745   4.530   3.602   5.628 -2.0072 -1.1152  0.3437
 6637SOL    HW220746   4.530   3.728   5.711 -1.2507 -0.0085 -1.2832
 6638SOL     OW20747   7.116   3.284   5.517  0.2576 -0.4518  0.2214
 6638SOL    HW120748   7.093   3.211   5.575  1.5229 -0.7734  0.3520
 6638SOL    HW220749   7.209   3.270   5.497 -0.0772 -0.2249 -1.7012
 6639SOL     OW20750   4.596   1.996   0.382 -0.1674 -0.0753 -0.0059
 6639SOL    HW120751   4.683   2.025   0.357 -0.0381 -0.7354 -0.3437
 6639SOL    HW220752   4.597   1.993   0.478 -0.3837  1.6137  0.0866
 6640SOL     OW20753   2.210   0.255   6.556  0.4395 -0.0513  0.2385
 6640SOL    HW120754   2.254   0.297   6.482 -0.6006  2.1948  0.7844
 6640SOL    HW220755   2.155   0.324   6.593 -1.8159 -2.0969  0.9417
 6641SOL     OW20756   7.426   0.568   4.540  0.0692  0.4436  0.1413
 6641SOL    HW120757   7.510   0.575   4.495 -0.0120  0.7437  0.0338
 6641SOL    HW220758   7.365   0.536   4.474 -0.0395  0.8380  0.0492
 6642SOL     OW20759   5.931   2.463   4.045 -0.3423 -0.0367 -0.1336
 6642SOL    HW120760   5.898   2.376   4.065 -0.2426  0.2672  1.5640
 6642SOL    HW220761   5.872   2.522   4.091 -0.4089  0.8087 -1.2537
 6643SOL     OW20762   7.651   1.144   4.579  0.2543  0.3015 -0.4803
 6643SOL    HW120763   7.677   1.203   4.650 -0.0293 -0.5695  0.3715
 6643SOL    HW220764   7.581   1.091   4.617 -1.7553  1.5618 -2.2414
 6644SOL     OW20765   4.731   7.625   1.294 -0.2928 -1.0036  0.3920
 6644SOL    HW120766   4.747   7.565   1.221 -0.3636 -1.3023  0.6196
 6644SOL    HW220767   4.806   7.611   1.353 -0.3119 -0.8688  0.4494
 6645SOL     OW20768   3.931   7.934   7.184 -0.2197 -0.2028  0.0003
 6645SOL    HW120769   3.864   7.908   7.122 -0.2458  1.2146 -0.6060
 6645SOL    HW220770   4.012   7.896   7.150 -0.5766 -1.3357  0.3625
 6646SOL     OW20771   1.604   3.294   6.845 -0.2826 -0.6793  1.0491
 6646SOL    HW120772   1.564   3.210   6.868 -0.4765 -0.1781  2.7153
 6646SOL    HW220773   1.621   3.288   6.751  0.4269 -2.8786  1.2678
 6647SOL     OW20774   3.302   3.409   6.331 -0.3687 -0.2700 -0.1782
 6647SOL    HW120775   3.248   3.342   6.373  0.5921 -1.1165 -0.2582
 6647SOL    HW220776   3.239   3.469   6.290 -1.4164  0.9405  2.8873
 6648SOL     OW20777   3.248   7.419   6.692 -0.6983  0.1114  0.3461
 6648SOL    HW120778   3.179   7.363   6.657  0.8174 -3.0739  2.0375
 6648SOL    HW220779   3.262   7.387   6.781  2.6806  0.8397  0.2151
 6649SOL     OW20780   6.176   2.925   0.146 -0.1706  0.6087 -0.2463
 6649SOL    HW120781   6.186   3.011   0.185 -0.8677  0.1636  0.9673
 6649SOL    HW220782   6.084   2.920   0.121 -0.0438  0.3658 -0.6761
 6650SOL     OW20783   6.212   4.516   6.899 -0.1122 -0.2336 -0.0557
 6650SOL    HW120784   6.192   4.571   6.823 -0.3880  1.9166  1.4850
 6650SOL    HW220785   6.247   4.435   6.861  0.9858  1.2346 -2.4378
 6651SOL     OW20786   1.614   3.993   7.870 -0.5608  0.4100  0.3309
 6651SOL    HW120787   1.625   4.055   7.798 -1.9064  0.3527  0.0330
 6651SOL    HW220788   1.598   3.909   7.827 -2.3637  0.5587  0.6305
 6652SOL     OW20789   3.256   0.502   0.875 -0.0540 -0.3308  0.1172
 6652SOL    HW120790   3.323   0.570   0.875 -0.7977  0.4307 -0.4573
 6652SOL    HW220791   3.256   0.468   0.964 -1.7713  2.5855  1.3795
 6653SOL     OW20792   4.200   1.070   5.932  0.2248  0.1482 -0.0498
 6653SOL    HW120793   4.291   1.048   5.912 -0.0663 -0.4118 -0.8280
 6653SOL    HW220794   4.149   1.008   5.880 -0.6119  1.0361 -0.3093
 6654SOL     OW20795   7.496   6.379   0.225  0.5615 -0.0910 -0.7757
 6654SOL    HW120796   7.409   6.347   0.199  0.3533  0.1635 -0.4123
 6654SOL    HW220797   7.543   6.390   0.143  0.1617  0.0069 -0.9983
 6655SOL     OW20798   6.146   5.299   6.706 -0.3869  0.6576  0.4780
 6655SOL    HW120799   6.135   5.229   6.643 -0.6744  0.4286  0.7763
 6655SOL    HW220800   6.192   5.259   6.780 -0.0892  0.9109  0.4302
 6656SOL     OW20801   2.621   3.482   6.248 -0.0135 -0.3425 -0.2027
 6656SOL    HW120802   2.682   3.454   6.317 -1.2480  0.7418  1.4229
 6656SOL    HW220803   2.668   3.552   6.202  0.1878  0.1459  0.7158
 6657SOL     OW20804   0.455   6.128   1.232 -0.1799 -0.4408 -0.4033
 6657SOL    HW120805   0.463   6.146   1.138  0.6108  0.1776 -0.2236
 6657SOL    HW220806   0.535   6.162   1.270 -1.2513  0.8895  0.7407
 6658SOL     OW20807   3.175   6.787   3.819  0.0284  0.1837 -0.4500
 6658SOL    HW120808   3.144   6.863   3.770  0.9226  0.3719 -0.7491
 6658SOL    HW220809   3.124   6.787   3.900 -1.0509  0.2164 -1.1144
 6659SOL     OW20810   1.860   4.648   1.673  0.4514 -0.3136 -0.5327
 6659SOL    HW120811   1.836   4.602   1.753  0.4934 -0.4996 -0.6266
 6659SOL    HW220812   1.796   4.719   1.665  0.0229 -0.7146 -0.7036
 6660SOL     OW20813   6.873   5.602   1.619 -0.5315 -0.2950 -0.1100
 6660SOL    HW120814   6.954   5.648   1.645 -0.6836  2.0175 -3.1267
 6660SOL    HW220815   6.804   5.665   1.638 -0.9738  0.0366 -2.5841
 6661SOL     OW20816   2.464   1.586   7.232 -0.2773 -0.4526 -0.3664
 6661SOL    HW120817   2.460   1.490   7.233 -1.4487 -0.4131  0.2177
 6661SOL    HW220818   2.387   1.614   7.282  0.8710  0.7722  0.8058
 6662SOL     OW20819   2.089   2.121   7.553  0.0057 -0.2505  0.0681
 6662SOL    HW120820   2.116   2.213   7.551  0.9444 -0.5133 -1.7854
 6662SOL    HW220821   1.994   2.123   7.543 -0.1545  0.5481  1.5520
 6663SOL     OW20822   7.411   2.762   6.603 -0.2489  0.0729 -1.0966
 6663SOL    HW120823   7.350   2.698   6.566 -0.1079  0.1761 -1.5134
 6663SOL    HW220824   7.497   2.733   6.572  0.0520 -0.7056  0.3809
 6664SOL     OW20825   0.604   2.269   6.895  0.2062  0.9723 -0.9294
 6664SOL    HW120826   0.530   2.287   6.953  1.4168  1.6475  0.4731
 6664SOL    HW220827   0.578   2.191   6.846 -1.9049  1.8520 -1.3392
 6665SOL     OW20828   3.138   7.943   2.946  0.3348  0.3762  0.1618
 6665SOL    HW120829   3.191   7.968   3.021  2.6454 -0.5463 -1.0639
 6665SOL    HW220830   3.197   7.890   2.892 -1.2051  1.0769 -2.3374
 6666SOL     OW20831   7.156   5.419   1.685 -0.3139  0.0131 -0.5123
 6666SOL    HW120832   7.250   5.417   1.705 -0.6328 -0.2116  1.0361
 6666SOL    HW220833   7.149   5.377   1.599  1.0227  0.2587 -0.7649
 6667SOL     OW20834   3.789   7.289   5.514  0.0289  0.6781  0.3168
 6667SOL    HW120835   3.710   7.299   5.566  0.2818 -1.8383  1.3149
 6667SOL    HW220836   3.759   7.256   5.429 -0.0308  0.2885  0.4907
 6668SOL     OW20837   5.601   1.407   5.589 -0.3452  0.0898  0.1479
 6668SOL    HW120838   5.515   1.434   5.556 -1.6059 -2.5232  1.0098
 6668SOL    HW220839   5.649   1.379   5.511 -0.7395  0.4250 -0.2171
 6669SOL     OW20840   3.811   3.946   1.846 -0.3700  0.6954 -0.5318
 6669SOL    HW120841   3.763   3.965   1.926 -0.2680  1.2240 -0.5940
 6669SOL    HW220842   3.748   3.901   1.790 -0.2810 -0.1678  0.0542
 6670SOL     OW20843   0.891   3.367   7.062 -0.1140 -0.0308  0.0962
 6670SOL    HW120844   0.881   3.404   6.974  0.2459 -1.2588 -0.4827
 6670SOL    HW220845   0.986   3.366   7.076 -0.1590 -0.1003  0.3809
 6671SOL     OW20846   3.980   2.706   3.592 -0.1272  0.2881 -0.4681
 6671SOL    HW120847   3.944   2.785   3.551  1.1414  0.9524 -0.3349
 6671SOL    HW220848   4.016   2.737   3.675  3.4811  0.2825 -1.8877
 6672SOL     OW20849   5.951   1.056   3.133  0.0165  0.1736 -0.4697
 6672SOL    HW120850   6.019   1.089   3.193  0.2272  0.2298 -0.7350
 6672SOL    HW220851   5.872   1.104   3.159 -0.5225 -1.5906  1.4090
 6673SOL     OW20852   6.150   6.504   4.034 -0.4081 -0.0905  0.4943
 6673SOL    HW120853   6.080   6.501   4.099 -0.8226 -0.6531  0.0364
 6673SOL    HW220854   6.122   6.441   3.966 -1.4041  2.4424 -1.6275
 6674SOL     OW20855   7.764   5.732   0.820 -0.3082  0.4249 -0.7432
 6674SOL    HW120856   7.794   5.698   0.736  0.6129  1.5694 -0.9009
 6674SOL    HW220857   7.838   5.721   0.879 -1.0321 -0.5898  0.0004
 6675SOL     OW20858   7.869   4.005   3.387 -0.0487  0.5623  0.2344
 6675SOL    HW120859   7.863   3.981   3.295 -0.7755  0.2102  0.3722
 6675SOL    HW220860   7.904   3.927   3.430 -0.9739  0.2637  0.4541
 6676SOL     OW20861   7.491   3.627   1.539  0.5377 -0.7447  0.1967
 6676SOL    HW120862   7.476   3.562   1.607 -0.6604 -1.8996 -1.1050
 6676SOL    HW220863   7.467   3.583   1.458  0.3741  1.1036 -0.8208
 6677SOL     OW20864   2.568   2.205   7.517  0.0288  0.1426 -0.5675
 6677SOL    HW120865   2.587   2.116   7.546 -2.7359  0.4925  3.1884
 6677SOL    HW220866   2.638   2.258   7.556  0.8069 -0.1963 -1.4779
 6678SOL     OW20867   3.205   2.462   4.063  0.2935  0.0713  0.2116
 6678SOL    HW120868   3.268   2.440   3.995 -1.2047  0.9799 -1.5901
 6678SOL    HW220869   3.137   2.395   4.055 -0.4615  0.8485  0.0015
 6679SOL     OW20870   5.641   3.527   7.213 -0.7102  0.4694 -0.2988
 6679SOL    HW120871   5.646   3.449   7.158  2.5693 -1.2219  2.0696
 6679SOL    HW220872   5.687   3.594   7.162  2.1926 -1.0305  0.0945
 6680SOL     OW20873   6.921   0.131   1.400  0.0483 -0.6516  0.2823
 6680SOL    HW120874   6.919   0.066   1.470 -1.4544 -0.3875  0.5117
 6680SOL    HW220875   6.888   0.211   1.441 -0.5182 -0.4056 -0.6388
 6681SOL     OW20876   6.043   1.364   4.439 -0.2407  0.1979 -0.3898
 6681SOL    HW120877   6.091   1.356   4.356  1.8844  0.2418  0.7721
 6681SOL    HW220878   6.110   1.380   4.505 -1.8298 -0.2457  1.4431
 6682SOL     OW20879   1.106   2.960   7.707 -0.2153 -0.3599 -0.1809
 6682SOL    HW120880   1.068   2.910   7.635  1.2648 -0.5266 -0.8673
 6682SOL    HW220881   1.118   3.048   7.671 -0.5630 -0.1225  0.2585
 6683SOL     OW20882   6.732   0.138   0.623  0.2894  0.1639 -0.3336
 6683SOL    HW120883   6.716   0.136   0.718 -1.5465  0.8592 -0.5870
 6683SOL    HW220884   6.782   0.058   0.606  2.1760  0.8582  1.4411
 6684SOL     OW20885   5.433   2.583   4.783  0.0987 -0.0841  0.3572
 6684SOL    HW120886   5.385   2.519   4.835  2.1027 -0.6132  1.6899
 6684SOL    HW220887   5.511   2.536   4.753 -0.7617  0.3312 -2.8560
 6685SOL     OW20888   2.214   5.110   5.802  0.7233  0.2462  0.2505
 6685SOL    HW120889   2.185   5.129   5.891  0.2822 -1.4808  0.5238
 6685SOL    HW220890   2.212   5.014   5.796 -1.6535  0.3329 -2.3989
 6686SOL     OW20891   6.494   0.464   3.631 -0.0216  0.2538 -0.1819
 6686SOL    HW120892   6.468   0.478   3.722 -0.1574  0.1900 -0.2101
 6686SOL    HW220893   6.431   0.516   3.580  0.4344  0.7830 -0.2087
 6687SOL     OW20894   0.817   4.934   0.995  0.6837 -0.2380 -0.6060
 6687SOL    HW120895   0.731   4.913   1.031  0.9322 -0.1906  0.0195
 6687SOL    HW220896   0.804   4.934   0.900  0.2904 -1.5122 -0.5684
 6688SOL     OW20897   7.669   5.765   4.406  0.1398  0.6118  0.4618
 6688SOL    HW120898   7.697   5.712   4.331  0.2289  0.8915  0.2961
 6688SOL    HW220899   7.626   5.841   4.367 -0.4119  0.4311  0.7052
 6689SOL     OW20900   7.387   7.928   1.182  0.0266  0.2611  0.0821
 6689SOL    HW120901   7.409   7.859   1.120  0.8066  2.1459 -1.8531
 6689SOL    HW220902   7.375   7.883   1.265 -0.6701 -2.3252 -1.3345
 6690SOL     OW20903   2.962   0.837   7.823  0.0444 -0.9179 -0.5457
 6690SOL    HW120904   2.968   0.777   7.897 -0.9710 -0.7519 -0.3173
 6690SOL    HW220905   2.927   0.918   7.861  1.5309 -0.1115 -0.8160
 6691SOL     OW20906   4.545   2.526   7.452  0.7475  0.3640  0.7591
 6691SOL    HW120907   4.472   2.464   7.456  1.5886 -0.6055  3.6727
 6691SOL    HW220908   4.601   2.494   7.382  0.5178 -1.4591  1.3665
 6692SOL     OW20909   4.092   5.367   2.997 -0.2889  0.0697  0.1267
 6692SOL    HW120910   4.143   5.429   2.945 -1.7953  0.8890 -0.4349
 6692SOL    HW220911   4.003   5.375   2.963 -0.6850 -1.8367  0.5824
 6693SOL     OW20912   4.328   3.692   2.976 -1.0327 -0.3410  0.0429
 6693SOL    HW120913   4.319   3.779   2.938 -0.1716 -0.9040 -1.5087
 6693SOL    HW220914   4.368   3.707   3.062 -0.4729  0.7491 -0.3939
 6694SOL     OW20915   7.172   2.681   6.490  0.4426 -0.4299 -0.2388
 6694SOL    HW120916   7.145   2.616   6.425 -0.4261 -0.3618  0.0444
 6694SOL    HW220917   7.090   2.712   6.528  0.9614 -1.4592  1.8646
 6695SOL     OW20918   2.868   2.171   7.856  0.0179 -0.0939  0.8778
 6695SOL    HW120919   2.920   2.250   7.874 -1.4682  1.0227  0.4705
 6695SOL    HW220920   2.824   2.190   7.773 -2.1636 -0.3610  1.9067
 6696SOL     OW20921   5.722   3.286   3.618 -0.6681 -0.4420  0.3283
 6696SOL    HW120922   5.695   3.279   3.709  0.3042  3.0377  1.0190
 6696SOL    HW220923   5.809   3.327   3.621 -0.1282 -1.1785 -2.1591
 6697SOL     OW20924   7.817   5.374   5.951  0.6136  0.4123 -0.8772
 6697SOL    HW120925   7.760   5.303   5.981  1.0838  0.2288 -0.4099
 6697SOL    HW220926   7.760   5.451   5.948  0.7220  0.6410  1.3004
 6698SOL     OW20927   3.818   7.827   0.738 -0.5757  0.5144  0.4996
 6698SOL    HW120928   3.828   7.773   0.660 -0.5592 -0.0085  0.8549
 6698SOL    HW220929   3.852   7.913   0.713  3.0728 -0.5976  1.0159
 6699SOL     OW20930   1.693   0.285   0.998  0.2498 -0.2754 -0.5450
 6699SOL    HW120931   1.699   0.367   0.950 -1.1177  0.1538 -0.0251
 6699SOL    HW220932   1.685   0.311   1.090  1.7209 -1.0556 -0.1577
 6700SOL     OW20933   2.976   5.155   1.244 -0.2571 -0.4097 -0.3902
 6700SOL    HW120934   3.063   5.185   1.271 -0.4404 -0.2347  0.0153
 6700SOL    HW220935   2.930   5.234   1.217  0.3002 -0.7094 -2.3555
 6701SOL     OW20936   3.702   5.049   7.373  0.1255  0.4624  0.1764
 6701SOL    HW120937   3.746   5.068   7.291 -3.1737 -0.4834 -2.0245
 6701SOL    HW220938   3.706   5.131   7.422 -1.2968  2.4774 -2.7751
 6702SOL     OW20939   5.292   3.571   4.374  0.6747 -0.4327  0.6914
 6702SOL    HW120940   5.205   3.540   4.396 -0.1931  0.5615 -1.1262
 6702SOL    HW220941   5.328   3.604   4.456 -1.4355  0.9330  1.1241
 6703SOL     OW20942   4.415   3.616   0.511  0.1780  0.3610 -0.3018
 6703SOL    HW120943   4.325   3.625   0.540  0.4087  2.3210 -0.0633
 6703SOL    HW220944   4.421   3.526   0.478 -1.4068 -0.3217  1.1496
 6704SOL     OW20945   7.784   3.833   0.729 -0.7896  0.7145  0.0561
 6704SOL    HW120946   7.829   3.918   0.735 -1.4077  0.9756  1.4614
 6704SOL    HW220947   7.736   3.827   0.812 -0.5829 -1.1123  0.0668
 6705SOL     OW20948   2.997   0.361   7.572  0.4772 -0.3862 -0.3652
 6705SOL    HW120949   3.078   0.316   7.549  0.0183 -2.4282  1.6540
 6705SOL    HW220950   2.998   0.365   7.668 -0.5475  2.0739 -0.3655
 6706SOL     OW20951   6.047   7.608   0.096 -0.0042 -0.4199  0.0117
 6706SOL    HW120952   6.079   7.604   0.006 -0.8210  0.5197 -0.3461
 6706SOL    HW220953   5.963   7.563   0.093  0.0370 -0.5185  0.3325
 6707SOL     OW20954   1.306   4.259   2.081  0.1406 -0.3312  0.4841
 6707SOL    HW120955   1.329   4.277   2.172 -3.4692 -0.3559  1.5500
 6707SOL    HW220956   1.307   4.345   2.038 -0.8743  0.1150  1.3118
 6708SOL     OW20957   7.132   3.066   7.667  0.1315  0.7852 -0.0371
 6708SOL    HW120958   7.203   3.128   7.684 -1.7117  2.8240  0.7981
 6708SOL    HW220959   7.121   3.019   7.750  1.9694 -1.2522 -0.8696
 6709SOL     OW20960   0.332   3.619   1.869  0.0155  0.0086 -0.4722
 6709SOL    HW120961   0.413   3.669   1.854  0.9094 -1.0656  0.5669
 6709SOL    HW220962   0.362   3.528   1.879 -1.5091 -0.6791 -1.7675
 6710SOL     OW20963   6.511   4.183   4.884 -0.2962  0.4636  0.2706
 6710SOL    HW120964   6.533   4.179   4.977 -0.1516 -0.9839  0.1888
 6710SOL    HW220965   6.440   4.247   4.879  0.1984  1.1081  1.2680
 6711SOL     OW20966   3.442   0.749   4.540 -0.7971  0.2505  0.5805
 6711SOL    HW120967   3.521   0.718   4.584  0.3392  1.7461 -0.2920
 6711SOL    HW220968   3.458   0.732   4.447 -1.9007 -0.2308  0.4668
 6712SOL     OW20969   6.805   0.040   2.178 -0.1122  0.3359  0.5458
 6712SOL    HW120970   6.710   0.036   2.178 -0.2136  0.9425 -2.0028
 6712SOL    HW220971   6.826   0.108   2.242 -1.6319  2.6057 -1.2242
 6713SOL     OW20972   0.957   4.377   3.012  0.4707  0.3165 -0.3189
 6713SOL    HW120973   0.943   4.447   2.947  1.0997  1.1646  0.4425
 6713SOL    HW220974   0.918   4.411   3.092  0.8396 -0.1933  0.0765
 6714SOL     OW20975   3.679   7.301   0.445  0.6405 -0.4432 -0.2815
 6714SOL    HW120976   3.759   7.324   0.397  0.6455  0.5464  0.1615
 6714SOL    HW220977   3.703   7.308   0.537  0.2773 -1.0101 -0.1410
 6715SOL     OW20978   5.223   3.587   1.844  0.0003 -0.1245 -0.4011
 6715SOL    HW120979   5.315   3.608   1.828  0.0156  0.0658 -0.0653
 6715SOL    HW220980   5.221   3.550   1.932 -0.3179  0.3694 -0.1932
 6716SOL     OW20981   3.598   4.067   3.513  0.3455  0.2061 -0.1772
 6716SOL    HW120982   3.662   4.138   3.520  1.0508 -0.3796 -0.4939
 6716SOL    HW220983   3.546   4.074   3.593  2.0116 -0.4269  1.0360
 6717SOL     OW20984   1.851   0.120   5.223  0.7008 -0.1965 -0.0525
 6717SOL    HW120985   1.774   0.082   5.266 -1.9571  2.1836 -2.2645
 6717SOL    HW220986   1.889   0.178   5.288 -0.8570  0.3634  0.4045
 6718SOL     OW20987   3.639   0.160   3.141 -0.5373  0.0433  0.0276
 6718SOL    HW120988   3.715   0.113   3.107 -0.2189 -0.5676  1.4900
 6718SOL    HW220989   3.639   0.244   3.095  1.0962  0.0932  0.0836
 6719SOL     OW20990   3.882   4.580   5.864 -0.0786  0.4797  0.3646
 6719SOL    HW120991   3.912   4.560   5.776  0.8294 -1.6578  1.0930
 6719SOL    HW220992   3.958   4.623   5.905 -0.2618  0.8602  0.3053
 6720SOL     OW20993   6.228   0.736   1.823 -0.7651 -0.9273  0.3529
 6720SOL    HW120994   6.271   0.650   1.819 -1.1291 -1.0690 -0.8059
 6720SOL    HW220995   6.145   0.719   1.868 -0.6223 -1.0801  0.5656
 6721SOL     OW20996   3.797   3.512   1.975 -0.1434  0.7948  0.6509
 6721SOL    HW120997   3.802   3.468   2.060 -1.6974 -0.1118  0.3259
 6721SOL    HW220998   3.876   3.485   1.929 -0.7267 -1.1929  0.7119
 6722SOL     OW20999   5.376   5.448   4.668  0.0780  0.9021  0.5366
 6722SOL    HW121000   5.435   5.522   4.654  0.9951  0.1043  0.0455
 6722SOL    HW221001   5.431   5.381   4.707 -0.3110 -0.1231 -0.5946
 6723SOL     OW21002   3.472   5.262   1.108  0.0343  0.3731  0.2205
 6723SOL    HW121003   3.411   5.333   1.090  1.5371  1.3826 -1.2130
 6723SOL    HW221004   3.474   5.255   1.204 -1.0765  1.3882  0.3344
 6724SOL     OW21005   1.258   7.161   1.089  0.0526 -0.4853 -0.4920
 6724SOL    HW121006   1.345   7.125   1.106 -0.0251  0.5613  2.6773
 6724SOL    HW221007   1.273   7.252   1.066 -0.1789  0.2545  1.9766
 6725SOL     OW21008   0.853   2.372   0.985 -0.1862  0.2289 -0.7764
 6725SOL    HW121009   0.814   2.285   0.971  0.8014 -0.4086  0.2135
 6725SOL    HW221010   0.948   2.355   0.986 -0.0163  1.1387  0.4715
 6726SOL     OW21011   5.134   0.410   2.735  0.7756  0.0274  0.5992
 6726SOL    HW121012   5.082   0.345   2.688  1.7511 -0.6467  0.4298
 6726SOL    HW221013   5.150   0.371   2.821  2.9372 -0.8253 -0.1281
 6727SOL     OW21014   2.462   7.804   1.944 -0.3084 -0.2458 -0.4504
 6727SOL    HW121015   2.412   7.863   2.001  1.3391 -0.1052  0.9153
 6727SOL    HW221016   2.501   7.741   2.004 -0.3774 -1.5041 -1.6950
 6728SOL     OW21017   4.345   5.489   3.634  0.4893  0.3474 -0.0228
 6728SOL    HW121018   4.418   5.535   3.594 -0.1022  1.1408 -0.2397
 6728SOL    HW221019   4.340   5.525   3.723  0.1365  0.5916 -0.1344
 6729SOL     OW21020   1.476   2.057   4.962 -0.0915  0.5968 -0.3306
 6729SOL    HW121021   1.557   2.006   4.971  0.0844  1.0050  0.4655
 6729SOL    HW221022   1.470   2.108   5.043 -1.4658  0.1182 -0.0919
 6730SOL     OW21023   5.194   4.161   3.464 -0.7786 -0.2617  0.0426
 6730SOL    HW121024   5.169   4.165   3.556  0.0908  0.2414  0.2658
 6730SOL    HW221025   5.166   4.245   3.427 -1.0927 -0.4473 -0.1437
 6731SOL     OW21026   1.636   3.497   7.728 -0.4409 -1.1230  0.1380
 6731SOL    HW121027   1.649   3.403   7.741  0.5548 -0.7939  1.8808
 6731SOL    HW221028   1.541   3.508   7.729 -0.5856 -2.1792 -0.7509
 6732SOL     OW21029   7.448   2.774   4.843  0.1157  0.3596  0.2889
 6732SOL    HW121030   7.487   2.764   4.757 -1.3197  0.9518 -0.4612
 6732SOL    HW221031   7.401   2.692   4.858  0.2092  0.3308  0.4279
 6733SOL     OW21032   4.649   6.052   0.935  0.2579  0.2534  0.1121
 6733SOL    HW121033   4.704   6.064   1.013 -2.8939  1.9664  2.3205
 6733SOL    HW221034   4.636   5.957   0.930  0.3294  0.1015  1.8927
 6734SOL     OW21035   1.199   4.135   5.881  0.5922 -0.7014  0.1703
 6734SOL    HW121036   1.195   4.230   5.881  1.1787 -0.6720  0.1808
 6734SOL    HW221037   1.273   4.114   5.824  1.4857 -1.0875  1.4372
 6735SOL     OW21038   3.399   7.298   0.034  0.4453  0.7455 -0.1864
 6735SOL    HW121039   3.343   7.283  -0.042  0.8583 -0.4016 -0.2942
 6735SOL    HW221040   3.480   7.252   0.013  0.1311 -0.6841  1.4477
 6736SOL     OW21041   6.955   6.143   1.821  0.3809  0.4234  0.2040
 6736SOL    HW121042   6.958   6.072   1.757  1.2453 -0.8708  1.6277
 6736SOL    HW221043   6.897   6.208   1.781 -0.0414 -0.8477 -1.3631
 6737SOL     OW21044   2.226   4.593   1.304  0.0207  0.0398 -0.2437
 6737SOL    HW121045   2.260   4.592   1.394  0.9364  0.2475 -0.5799
 6737SOL    HW221046   2.167   4.668   1.301  1.9788  1.6239 -0.5215
 6738SOL     OW21047   5.805   5.254   2.886  0.4181 -0.1103 -0.5958
 6738SOL    HW121048   5.779   5.341   2.856 -0.0332 -1.2876 -4.0738
 6738SOL    HW221049   5.722   5.210   2.906  0.6296  0.0988  0.8776
 6739SOL     OW21050   1.179   4.271   4.306 -0.0449  0.5946 -0.2236
 6739SOL    HW121051   1.176   4.343   4.368  0.8721 -0.1973  0.7852
 6739SOL    HW221052   1.099   4.221   4.323  0.7308 -0.2296  1.1140
 6740SOL     OW21053   4.185   4.005   6.499 -0.1585  0.2555  0.2169
 6740SOL    HW121054   4.217   3.985   6.411  0.8244 -1.1405  0.8531
 6740SOL    HW221055   4.263   4.033   6.547 -0.3959 -0.4152  1.0217
 6741SOL     OW21056   6.780   3.458   2.032  0.1628  0.0272 -0.5454
 6741SOL    HW121057   6.853   3.405   2.002 -1.5189 -3.3070  0.6831
 6741SOL    HW221058   6.819   3.522   2.092  2.0723 -2.0823  0.6121
 6742SOL     OW21059   5.381   1.900   7.870  0.6495  0.2527 -0.2210
 6742SOL    HW121060   5.329   1.931   7.944  0.0462 -0.8004 -0.1833
 6742SOL    HW221061   5.455   1.961   7.866 -0.7314  1.9753 -0.4737
 6743SOL     OW21062   6.486   5.025   2.698 -0.2769  0.9993 -0.4319
 6743SOL    HW121063   6.536   5.075   2.633 -1.2388  0.9814 -1.2157
 6743SOL    HW221064   6.394   5.039   2.674 -0.7170  1.8742  1.5948
 6744SOL     OW21065   5.185   2.316   6.848 -0.1566  0.5107 -0.2700
 6744SOL    HW121066   5.236   2.397   6.843 -0.7569  0.9245  0.1270
 6744SOL    HW221067   5.191   2.290   6.941 -0.8258  0.6694 -0.1813
 6745SOL     OW21068   2.724   1.469   6.747  0.0009  0.0479 -0.1415
 6745SOL    HW121069   2.753   1.387   6.707 -0.4701 -0.3973  0.3904
 6745SOL    HW221070   2.800   1.502   6.794  0.2604  0.0353 -0.5559
 6746SOL     OW21071   2.057   1.897   2.331  0.0650 -0.3574 -0.3658
 6746SOL    HW121072   2.115   1.952   2.384  0.4778  1.0202 -2.1493
 6746SOL    HW221073   1.969   1.926   2.356  0.2726  0.9417 -1.0606
 6747SOL     OW21074   5.759   7.050   7.926 -0.5487  0.3600  0.3997
 6747SOL    HW121075   5.751   7.032   8.019 -1.9859 -0.4564  0.1573
 6747SOL    HW221076   5.741   7.144   7.918  0.9381  0.7273  1.0554
 6748SOL     OW21077   6.515   4.514   4.182 -0.0165  0.0192 -0.1239
 6748SOL    HW121078   6.436   4.469   4.153 -0.0469 -0.6347  0.9306
 6748SOL    HW221079   6.484   4.581   4.242  0.2135 -0.1744  0.2154
 6749SOL     OW21080   3.136   3.901   5.148  0.6133 -0.0092 -0.3367
 6749SOL    HW121081   3.142   3.866   5.059  1.1570  0.0530 -0.3259
 6749SOL    HW221082   3.053   3.949   5.149 -0.8867 -2.4154  0.0492
 6750SOL     OW21083   2.180   7.453   7.139  0.4313  0.6633 -0.0770
 6750SOL    HW121084   2.101   7.490   7.102 -1.1371 -2.4505 -0.1333
 6750SOL    HW221085   2.156   7.428   7.228  0.5142 -2.4019 -0.8054
 6751SOL     OW21086   2.491   4.157   3.847  0.1846 -0.3760  0.1154
 6751SOL    HW121087   2.501   4.063   3.827 -0.6675 -0.3042 -0.7163
 6751SOL    HW221088   2.581   4.191   3.845  0.7193 -1.4613  2.0983
 6752SOL     OW21089   6.087   5.377   4.778  0.4065 -0.4076  0.3133
 6752SOL    HW121090   6.116   5.366   4.688 -0.5410  0.2009 -0.0837
 6752SOL    HW221091   6.168   5.384   4.829  1.0074  1.9348 -0.8308
 6753SOL     OW21092   3.803   2.185   3.820 -0.4559  0.2146  0.6272
 6753SOL    HW121093   3.882   2.195   3.873 -0.0555 -2.5093  0.6899
 6753SOL    HW221094   3.752   2.117   3.865 -0.4690 -1.6230 -1.9401
 6754SOL     OW21095   3.947   4.166   1.763  0.7031  0.2579 -0.3132
 6754SOL    HW121096   3.887   4.232   1.731 -0.0512 -0.1461  0.2300
 6754SOL    HW221097   3.891   4.094   1.791  1.4896 -0.4628 -0.5594
 6755SOL     OW21098   3.193   6.691   5.350  0.1232  0.1343 -0.3182
 6755SOL    HW121099   3.211   6.781   5.322  2.6798  0.1807  1.1415
 6755SOL    HW221100   3.236   6.636   5.284 -0.4791  0.0115 -0.6105
 6756SOL     OW21101   3.738   3.037   5.068  0.1076  0.1737 -0.6831
 6756SOL    HW121102   3.774   2.949   5.061  1.0766  0.3164  1.6512
 6756SOL    HW221103   3.810   3.090   5.102 -0.5801  1.8018 -1.6483
 6757SOL     OW21104   6.439   7.429   0.500  0.0403 -0.0802  0.3439
 6757SOL    HW121105   6.390   7.347   0.498 -0.4244  0.1170  1.9308
 6757SOL    HW221106   6.373   7.497   0.490  0.2118  0.1380  0.6752
 6758SOL     OW21107   3.185   4.467   0.730  0.5054 -0.2961 -0.7079
 6758SOL    HW121108   3.176   4.420   0.813  1.9569  0.0329 -0.3267
 6758SOL    HW221109   3.279   4.478   0.720  0.3367 -0.1816 -2.3358
 6759SOL     OW21110   2.525   2.143   5.981  0.0481  0.1423 -0.7617
 6759SOL    HW121111   2.508   2.202   5.908  0.6443  0.3155 -0.7662
 6759SOL    HW221112   2.495   2.057   5.951  2.7444 -0.3532 -2.2538
 6760SOL     OW21113   1.123   5.051   2.221 -0.2107 -0.0839  0.4486
 6760SOL    HW121114   1.068   5.130   2.224 -0.1565 -0.0355  0.1516
 6760SOL    HW221115   1.154   5.047   2.131 -1.5993 -1.4042 -0.0044
 6761SOL     OW21116   4.472   7.874   0.741 -0.4081  0.9420 -0.8780
 6761SOL    HW121117   4.471   7.943   0.675  2.6696  2.2212  0.2437
 6761SOL    HW221118   4.478   7.920   0.825  2.4199 -0.5644 -0.1202
 6762SOL     OW21119   4.854   7.412   5.131 -0.1290 -0.4819  0.9798
 6762SOL    HW121120   4.814   7.494   5.160 -2.2016 -1.3464  0.6631
 6762SOL    HW221121   4.857   7.358   5.210 -1.1797 -1.0281  0.6584
 6763SOL     OW21122   2.793   7.236   2.437  0.4365  0.0721  0.3477
 6763SOL    HW121123   2.726   7.281   2.385  1.3343  0.3828 -0.5688
 6763SOL    HW221124   2.844   7.186   2.374 -0.1086 -1.7351  1.2765
 6764SOL     OW21125   0.513   3.705   4.775 -0.3155  0.3384 -0.3779
 6764SOL    HW121126   0.553   3.720   4.690  0.9538 -0.5270  0.0431
 6764SOL    HW221127   0.429   3.663   4.755 -0.4270  0.9315 -1.2134
 6765SOL     OW21128   2.313   4.559   4.000 -0.0405 -0.0783 -0.0502
 6765SOL    HW121129   2.394   4.565   3.950  0.0941 -2.7863 -0.3169
 6765SOL    HW221130   2.270   4.480   3.966 -2.1686  0.5693  0.9768
 6766SOL     OW21131   4.794   2.569   2.406  0.1776  0.2724 -0.3059
 6766SOL    HW121132   4.770   2.585   2.315 -0.2398 -1.9366 -0.6280
 6766SOL    HW221133   4.711   2.565   2.453  0.4052  1.8330  0.2991
 6767SOL     OW21134   0.199   6.777   2.973 -0.3858  0.0963 -0.3841
 6767SOL    HW121135   0.181   6.810   3.061  0.8861  2.0561 -0.7991
 6767SOL    HW221136   0.260   6.840   2.936  0.8849 -1.8925 -1.8792
 6768SOL     OW21137   0.205   2.009   7.530 -0.6304 -0.1725 -0.1165
 6768SOL    HW121138   0.244   1.921   7.530 -2.2172 -0.9021  0.3605
 6768SOL    HW221139   0.127   2.001   7.475 -0.2356  1.2219 -0.9206
 6769SOL     OW21140   7.423   6.647   4.234 -0.3007  0.4240  0.4724
 6769SOL    HW121141   7.461   6.565   4.265  0.1110 -0.2835 -1.7279
 6769SOL    HW221142   7.453   6.713   4.296  0.5653 -0.8725  1.4707
 6770SOL     OW21143   4.506   7.516   7.896  0.1188 -0.6760  0.2500
 6770SOL    HW121144   4.516   7.483   7.807  0.1124  0.0665 -0.0368
 6770SOL    HW221145   4.595   7.515   7.932  0.3061  0.0738 -0.1592
 6771SOL     OW21146   5.099   5.303   4.260  0.5103 -0.0389 -0.1644
 6771SOL    HW121147   5.154   5.257   4.323  2.1406  1.2203 -0.6074
 6771SOL    HW221148   5.141   5.388   4.249 -1.7709  1.1779 -0.2006
 6772SOL     OW21149   7.360   0.300   3.787  0.2620 -0.1956  0.2897
 6772SOL    HW121150   7.367   0.333   3.698  1.5237 -0.6523  0.1982
 6772SOL    HW221151   7.442   0.251   3.801 -0.3152 -0.8949  1.3758
 6773SOL     OW21152   1.144   3.202   1.754  0.0731  0.0002 -0.4915
 6773SOL    HW121153   1.172   3.119   1.715 -0.8852  0.3212 -1.9232
 6773SOL    HW221154   1.073   3.177   1.814 -0.0483 -0.2479 -0.7338
 6774SOL     OW21155   3.105   1.529   0.984 -0.4192  0.0732 -0.4482
 6774SOL    HW121156   3.079   1.437   0.970 -0.5330 -0.1112  0.8629
 6774SOL    HW221157   3.126   1.534   1.077  1.0713  1.0301 -0.8017
 6775SOL     OW21158   2.874   7.556   5.572 -0.0677  0.5849  0.1332
 6775SOL    HW121159   2.821   7.483   5.603  0.0750  0.2980 -0.2947
 6775SOL    HW221160   2.840   7.575   5.485 -0.1940  1.1166  0.2972
 6776SOL     OW21161   0.088   6.982   7.873  0.3522 -0.0996  0.4919
 6776SOL    HW121162   0.109   6.974   7.780  0.7068  0.2828  0.5340
 6776SOL    HW221163   0.160   6.936   7.918  0.0957 -0.4254  0.5708
 6777SOL     OW21164   3.275   5.424   1.062 -0.2316 -0.2881 -0.4720
 6777SOL    HW121165   3.337   5.496   1.068  0.1373 -0.5925 -0.5782
 6777SOL    HW221166   3.211   5.452   0.997  0.5531 -0.5261 -1.3790
 6778SOL     OW21167   3.405   0.392   3.813 -0.1331 -0.3278 -0.1273
 6778SOL    HW121168   3.483   0.367   3.764  0.1357 -0.5599  0.4097
 6778SOL    HW221169   3.391   0.320   3.874  0.4579  0.6522  1.2099
 6779SOL     OW21170   6.078   5.684   6.869 -0.2993 -0.1688 -0.2357
 6779SOL    HW121171   6.093   5.600   6.912 -0.6366 -0.1667 -0.1066
 6779SOL    HW221172   6.158   5.734   6.884 -0.2760 -0.3010  0.0829
 6780SOL     OW21173   0.069   6.185   6.419 -0.7583  0.3963 -0.1728
 6780SOL    HW121174   0.099   6.117   6.481  1.5498  1.8274  0.4125
 6780SOL    HW221175   0.135   6.185   6.350 -1.2461  1.3950 -0.6604
 6781SOL     OW21176   4.456   7.886   4.192 -0.1383  0.3271 -0.2306
 6781SOL    HW121177   4.542   7.861   4.227 -0.1010  0.5801 -0.1406
 6781SOL    HW221178   4.428   7.810   4.141  0.0083  0.1310 -0.0191
 6782SOL     OW21179   4.095   1.153   6.908 -0.4755 -0.6962  0.5159
 6782SOL    HW121180   4.072   1.141   7.000  0.2836  3.4360  1.4163
 6782SOL    HW221181   4.161   1.085   6.891 -0.5847 -1.5309  2.9923
 6783SOL     OW21182   3.676   4.905   6.338 -0.6065 -0.2208 -0.1578
 6783SOL    HW121183   3.737   4.857   6.394 -0.1704 -1.5566 -1.7211
 6783SOL    HW221184   3.638   4.971   6.396  0.6796 -0.7886  1.4081
 6784SOL     OW21185   6.980   6.676   3.788  0.0469 -0.5635 -0.3282
 6784SOL    HW121186   6.981   6.769   3.766  2.7051 -0.6817 -1.0683
 6784SOL    HW221187   6.920   6.669   3.862 -2.0989  1.3148 -1.7547
 6785SOL     OW21188   2.980   2.995   3.440 -0.2532 -0.1219  0.0223
 6785SOL    HW121189   2.908   3.004   3.502 -1.2486 -0.4516 -1.0444
 6785SOL    HW221190   2.940   2.955   3.363  1.2852 -1.2812 -0.2312
 6786SOL     OW21191   1.160   3.247   0.704 -0.1225 -0.5030 -0.1380
 6786SOL    HW121192   1.104   3.324   0.713 -0.4238 -0.6249 -0.8406
 6786SOL    HW221193   1.166   3.233   0.609  0.1181 -1.2028 -0.0279
 6787SOL     OW21194   1.336   5.228   3.466  0.2779  0.5553  0.6605
 6787SOL    HW121195   1.306   5.319   3.471 -0.2126  0.3827  0.8669
 6787SOL    HW221196   1.431   5.234   3.474  0.4615  1.2333 -1.2810
 6788SOL     OW21197   3.186   1.677   2.598  0.7007 -0.1435  0.2940
 6788SOL    HW121198   3.093   1.653   2.595  0.4142  0.9340  0.1148
 6788SOL    HW221199   3.205   1.708   2.509  1.3827 -0.8620  0.1798
 6789SOL     OW21200   4.998   2.459   2.097  0.2544 -0.0495 -0.1661
 6789SOL    HW121201   5.022   2.425   2.011  0.9653 -1.8386  0.6720
 6789SOL    HW221202   5.056   2.413   2.158 -0.5068  0.8530  1.3080
 6790SOL     OW21203   3.772   3.617   5.187  0.5472  0.4266  0.0952
 6790SOL    HW121204   3.716   3.680   5.143 -0.5411 -0.2060  0.5216
 6790SOL    HW221205   3.780   3.544   5.126 -0.0067  0.0511  0.4560
 6791SOL     OW21206   5.738   5.723   6.887  0.7623 -0.0380  0.3834
 6791SOL    HW121207   5.650   5.694   6.910  0.3184 -0.4637 -1.6337
 6791SOL    HW221208   5.790   5.642   6.887  1.0722  0.1508  1.1311
 6792SOL     OW21209   3.963   5.326   4.084  0.2327 -0.1753 -0.1496
 6792SOL    HW121210   3.902   5.377   4.031  0.2451  1.4089  1.2685
 6792SOL    HW221211   3.957   5.365   4.172  1.7777 -1.2924  0.4987
 6793SOL     OW21212   7.482   0.385   0.152  0.1580  0.1518 -0.8050
 6793SOL    HW121213   7.511   0.449   0.087  0.8282 -0.1769 -0.8298
 6793SOL    HW221214   7.510   0.300   0.118 -0.0538 -0.0858 -0.3975
 6794SOL     OW21215   5.028   7.164   2.933  0.1581 -0.1568 -0.3759
 6794SOL    HW121216   4.945   7.117   2.935  0.3138 -0.4395  1.6724
 6794SOL    HW221217   5.071   7.140   3.015  0.0239  3.8567  1.1127
 6795SOL     OW21218   1.495   5.546   1.928 -0.0466  0.7379  0.3867
 6795SOL    HW121219   1.440   5.625   1.932  1.0419  1.6226 -1.1182
 6795SOL    HW221220   1.585   5.579   1.933  0.4668 -0.2735 -1.3817
 6796SOL     OW21221   0.706   3.054   1.869 -0.2586  0.4131 -0.1531
 6796SOL    HW121222   0.660   3.069   1.786 -0.5973  0.7284  0.0893
 6796SOL    HW221223   0.785   3.007   1.844  0.7599  2.4531 -0.9314
 6797SOL     OW21224   1.297   3.644   6.132  0.4679 -0.2769 -0.3395
 6797SOL    HW121225   1.354   3.707   6.176 -1.9963 -0.6443  3.9766
 6797SOL    HW221226   1.224   3.696   6.099  0.6196 -0.4026 -0.8806
 6798SOL     OW21227   4.046   6.324   3.720 -0.2754 -0.1155 -0.0235
 6798SOL    HW121228   4.137   6.302   3.701 -0.4319 -0.5066 -0.3417
 6798SOL    HW221229   4.048   6.417   3.742 -0.1311  0.4879 -2.3594
 6799SOL     OW21230   1.452   7.282   2.609 -0.2475 -0.2812 -0.7348
 6799SOL    HW121231   1.513   7.211   2.629 -2.5541 -2.0843  0.5310
 6799SOL    HW221232   1.493   7.361   2.645  1.7693 -1.1887 -0.9207
 6800SOL     OW21233   6.203   5.669   7.480 -0.3239 -0.4268 -0.1607
 6800SOL    HW121234   6.230   5.683   7.571  0.4771 -0.8436 -0.3305
 6800SOL    HW221235   6.260   5.599   7.448 -1.0594 -0.7584 -0.7810
 6801SOL     OW21236   1.948   3.196   2.379 -0.0374  0.3441  0.4692
 6801SOL    HW121237   1.907   3.138   2.315  1.1552 -0.2068  0.1766
 6801SOL    HW221238   2.039   3.201   2.351 -0.1057  2.4176  0.4460
 6802SOL     OW21239   0.825   2.136   5.696 -0.0032 -0.3117  0.0272
 6802SOL    HW121240   0.902   2.080   5.687  1.0757  1.0962  0.1530
 6802SOL    HW221241   0.780   2.128   5.611  0.4490 -0.8770 -0.1693
 6803SOL     OW21242   4.657   2.820   0.831 -0.0579  0.4754  0.2769
 6803SOL    HW121243   4.609   2.891   0.874  0.0737  0.5682  0.2720
 6803SOL    HW221244   4.590   2.773   0.781 -0.5830 -0.8574  2.1485
 6804SOL     OW21245   2.267   2.294   5.920  1.0036  0.4184  0.1280
 6804SOL    HW121246   2.206   2.234   5.965 -0.6638  0.9737 -1.2752
 6804SOL    HW221247   2.240   2.290   5.828  2.8372  1.0583 -0.4666
 6805SOL     OW21248   6.199   0.729   3.894  0.1475 -0.1354  0.1104
 6805SOL    HW121249   6.252   0.770   3.963 -2.3917  1.3129  1.3745
 6805SOL    HW221250   6.137   0.674   3.942 -0.2821 -0.8266 -1.2059
 6806SOL     OW21251   7.122   1.028   3.905 -0.3221 -0.1180  0.4923
 6806SOL    HW121252   7.067   1.087   3.853  0.2123 -1.4690 -1.7306
 6806SOL    HW221253   7.155   1.083   3.977 -1.7718  1.6080 -0.0874
 6807SOL     OW21254   0.623   4.335   4.511 -0.1724  0.1868  0.0101
 6807SOL    HW121255   0.697   4.382   4.548 -0.5173  0.0058  0.9651
 6807SOL    HW221256   0.655   4.301   4.427  1.5684 -1.8134  1.3945
 6808SOL     OW21257   5.284   6.470   1.981 -0.2035 -0.4180 -0.1790
 6808SOL    HW121258   5.335   6.390   1.989 -1.1693 -1.3096 -2.2037
 6808SOL    HW221259   5.330   6.521   1.914 -1.0042 -0.4722 -0.7839
 6809SOL     OW21260   1.947   1.765   4.336 -0.2266 -0.0426 -0.4134
 6809SOL    HW121261   1.926   1.838   4.278 -2.0514  0.2771  0.5606
 6809SOL    HW221262   1.978   1.806   4.417 -0.9925 -0.3285  0.0399
 6810SOL     OW21263   4.171   3.962   4.688 -0.0667 -0.3355  0.2240
 6810SOL    HW121264   4.229   4.004   4.752 -0.1714  1.0722 -0.5757
 6810SOL    HW221265   4.145   4.032   4.629  0.6120 -1.7072 -1.8379
 6811SOL     OW21266   5.307   7.091   7.305 -0.2785  0.2972  0.7530
 6811SOL    HW121267   5.376   7.029   7.282  0.2714  1.2411 -0.2233
 6811SOL    HW221268   5.312   7.097   7.401  1.0553  0.4024  0.7021
 6812SOL     OW21269   0.343   7.125   4.681 -0.2632 -0.0765  0.0640
 6812SOL    HW121270   0.306   7.212   4.670 -2.2174 -1.1040 -2.4982
 6812SOL    HW221271   0.437   7.136   4.666 -0.7426  1.3365 -2.3095
 6813SOL     OW21272   7.115   5.214   4.922  0.1915 -0.0601 -0.3945
 6813SOL    HW121273   7.084   5.268   4.995 -0.0243  1.6219 -1.6759
 6813SOL    HW221274   7.207   5.196   4.942 -0.2685 -0.9940  1.0514
 6814SOL     OW21275   2.602   3.914   5.049 -0.4601 -0.0838  0.0411
 6814SOL    HW121276   2.650   3.962   4.982 -2.0308  1.7016  0.0981
 6814SOL    HW221277   2.525   3.880   5.003 -0.4176 -0.7996  0.4752
 6815SOL     OW21278   4.583   5.580   5.814  0.0367  0.6888  0.1358
 6815SOL    HW121279   4.667   5.537   5.834 -0.5987 -0.2603  0.8236
 6815SOL    HW221280   4.600   5.672   5.832  0.2189  0.2160  2.9754
 6816SOL     OW21281   3.599   1.920   2.642  0.2214 -0.4341 -0.1570
 6816SOL    HW121282   3.505   1.908   2.655  0.3584 -0.5809  0.8004
 6816SOL    HW221283   3.627   1.973   2.718  1.1582 -1.6582  0.3872
 6817SOL     OW21284   6.623   1.279   7.099  0.1479 -0.1148  0.0510
 6817SOL    HW121285   6.589   1.235   7.021 -0.6007  1.4702 -0.5626
 6817SOL    HW221286   6.689   1.340   7.065  0.0854  0.3203  0.6992
 6818SOL     OW21287   5.285   4.405   4.014  0.1556 -0.0646 -0.2185
 6818SOL    HW121288   5.365   4.395   3.963  1.4578  2.7753  1.0835
 6818SOL    HW221289   5.271   4.499   4.020 -2.5649 -0.4360  0.7239
 6819SOL     OW21290   6.164   2.114   5.148 -0.1427 -0.1062 -0.3081
 6819SOL    HW121291   6.127   2.202   5.144 -0.0247 -0.0997 -3.3552
 6819SOL    HW221292   6.258   2.128   5.159  0.1616  0.3253 -2.8613
 6820SOL     OW21293   0.602   2.074   3.458  0.1588 -0.2238 -0.8448
 6820SOL    HW121294   0.594   2.094   3.365 -1.1429  1.7735 -0.3683
 6820SOL    HW221295   0.539   2.003   3.474  1.0318 -1.2022 -1.6054
 6821SOL     OW21296   5.973   3.046   4.467 -0.4912 -0.2774  0.2027
 6821SOL    HW121297   5.988   2.951   4.471 -0.5268 -0.3798 -1.6104
 6821SOL    HW221298   5.895   3.056   4.413  0.4861  0.8481 -1.0703
 6822SOL     OW21299   1.717   2.244   2.294 -0.3844 -0.3159  0.3294
 6822SOL    HW121300   1.639   2.296   2.315  0.4299  1.1443 -0.1100
 6822SOL    HW221301   1.693   2.154   2.319 -1.5795  0.3614  1.8344
 6823SOL     OW21302   6.205   4.325   5.685  0.1970  0.1863 -0.9350
 6823SOL    HW121303   6.119   4.284   5.679 -0.6450  1.6719  0.2584
 6823SOL    HW221304   6.223   4.356   5.597 -0.9333  0.6892 -1.0045
 6824SOL     OW21305   0.318   4.014   6.907  0.1229  0.1879 -0.2069
 6824SOL    HW121306   0.353   4.011   6.996  1.5296  1.3219 -0.7045
 6824SOL    HW221307   0.253   4.085   6.909  0.9277  0.9369 -0.3444
 6825SOL     OW21308   4.190   5.153   5.230 -0.1243  0.1617 -0.2096
 6825SOL    HW121309   4.283   5.179   5.230  0.1914 -0.5809  2.6196
 6825SOL    HW221310   4.180   5.103   5.150  1.4383  1.7166 -1.4824
 6826SOL     OW21311   7.106   2.126   2.334 -0.3497  0.4573  0.0853
 6826SOL    HW121312   7.113   2.058   2.401  0.1536  0.4766  0.0599
 6826SOL    HW221313   7.071   2.202   2.380  0.0047  0.4736  0.3364
 6827SOL     OW21314   3.925   2.525   4.404 -0.2772  0.6128  0.5166
 6827SOL    HW121315   3.952   2.455   4.463  0.3345  0.4364  0.0366
 6827SOL    HW221316   3.859   2.574   4.454 -0.7294 -0.3084  0.8475
 6828SOL     OW21317   1.381   1.177   1.818 -0.6352 -0.4494  0.0472
 6828SOL    HW121318   1.379   1.199   1.911 -2.7276 -1.6563  0.3370
 6828SOL    HW221319   1.451   1.112   1.810 -0.6000 -0.5113  0.8165
 6829SOL     OW21320   0.421   0.934   2.357 -0.3253  0.6547 -0.1853
 6829SOL    HW121321   0.413   0.877   2.433  1.5215 -0.1418 -0.5185
 6829SOL    HW221322   0.394   0.880   2.283 -1.6748  1.2793 -0.1628
 6830SOL     OW21323   0.868   7.350   0.338  0.4140  0.3874  0.7045
 6830SOL    HW121324   0.889   7.343   0.245 -0.5752  2.4363  0.2569
 6830SOL    HW221325   0.923   7.284   0.381  0.6696 -0.8066 -1.3402
 6831SOL     OW21326   2.736   0.244   3.741  0.5393  0.5195  0.3684
 6831SOL    HW121327   2.716   0.212   3.653 -0.0287 -1.4945  1.1687
 6831SOL    HW221328   2.826   0.274   3.737  0.5168  0.4572 -0.8860
 6832SOL     OW21329   0.735   1.854   7.909 -0.2604  0.3148  0.3799
 6832SOL    HW121330   0.799   1.906   7.862  0.6350 -0.0182  1.2078
 6832SOL    HW221331   0.716   1.905   7.989 -1.9104  0.9760 -0.3730
 6833SOL     OW21332   1.668   1.822   5.513 -0.2970 -0.3615  0.2654
 6833SOL    HW121333   1.595   1.793   5.568  1.1676  0.2414  2.6579
 6833SOL    HW221334   1.693   1.744   5.463 -2.4368 -0.6134 -0.5373
 6834SOL     OW21335   7.193   2.892   5.238  0.3489 -0.0044  0.1470
 6834SOL    HW121336   7.259   2.828   5.211  0.5881  0.1105  0.4531
 6834SOL    HW221337   7.168   2.864   5.326 -0.9130 -0.7726 -0.4195
 6835SOL     OW21338   1.961   7.329   3.492 -0.2867 -0.5543  0.0064
 6835SOL    HW121339   1.979   7.365   3.579  2.7318 -0.8476 -0.3876
 6835SOL    HW221340   1.984   7.400   3.431 -3.1952 -0.0320 -0.6395
 6836SOL     OW21341   3.998   7.344   2.001 -0.1824  0.3142 -0.0438
 6836SOL    HW121342   3.955   7.423   2.032  1.8542  0.6696  2.1357
 6836SOL    HW221343   4.085   7.373   1.973  0.2775 -1.0108 -0.0613
 6837SOL     OW21344   1.481   0.269   1.660  0.2547  0.2878  0.4250
 6837SOL    HW121345   1.495   0.232   1.573  1.4511  2.2389 -0.2780
 6837SOL    HW221346   1.565   0.310   1.682 -0.2984  0.5816  2.1250
 6838SOL     OW21347   7.618   3.365   6.648 -0.2394 -0.2976 -0.0916
 6838SOL    HW121348   7.649   3.415   6.723  1.3692 -1.2180 -0.0987
 6838SOL    HW221349   7.547   3.311   6.682  1.7284 -2.1599  1.3357
 6839SOL     OW21350   6.238   5.073   6.824 -0.5540 -0.4913  1.0308
 6839SOL    HW121351   6.174   5.004   6.839  0.1853 -1.4648 -0.0908
 6839SOL    HW221352   6.295   5.039   6.755  2.3323 -0.5198  3.1908
 6840SOL     OW21353   0.875   6.183   5.071  0.5379 -0.1652 -0.1384
 6840SOL    HW121354   0.793   6.196   5.118  1.6014 -0.2709  1.8451
 6840SOL    HW221355   0.852   6.196   4.979 -2.4226 -3.5429 -0.0936
 6841SOL     OW21356   7.085   5.348   2.304  0.4151  0.2550 -0.3399
 6841SOL    HW121357   7.128   5.263   2.316  1.2564  0.7140 -0.0378
 6841SOL    HW221358   7.023   5.354   2.376 -3.3616 -2.2620 -3.0249
 6842SOL     OW21359   7.768   4.679   5.842  0.1565 -0.3814  0.4585
 6842SOL    HW121360   7.785   4.587   5.820 -0.2632 -0.1122 -1.1717
 6842SOL    HW221361   7.694   4.676   5.902 -0.3904 -1.0967 -0.2199
 6843SOL     OW21362   5.522   4.434   4.234 -0.4182 -0.5936  0.5350
 6843SOL    HW121363   5.482   4.430   4.320  0.5480 -0.9715  0.9837
 6843SOL    HW221364   5.450   4.455   4.174 -1.1234 -0.5019  1.4061
 6844SOL     OW21365   0.418   1.383   4.128  0.0576 -0.5492 -0.1701
 6844SOL    HW121366   0.485   1.450   4.143  0.4005 -0.1809 -2.9315
 6844SOL    HW221367   0.335   1.429   4.138  0.2624 -0.2321  0.0749
 6845SOL     OW21368   5.525   1.286   1.002  0.1570  0.2953  0.4549
 6845SOL    HW121369   5.503   1.254   0.914  1.0056 -0.8553  0.6421
 6845SOL    HW221370   5.570   1.369   0.987 -1.5344  1.1691 -0.0754
 6846SOL     OW21371   4.866   2.836   4.136 -0.0895  0.5479 -0.4950
 6846SOL    HW121372   4.814   2.781   4.194  2.5078  1.6582  3.2792
 6846SOL    HW221373   4.883   2.781   4.060 -2.4036 -1.6558  0.4294
 6847SOL     OW21374   5.609   7.353   6.615  0.3694  0.1590  0.6063
 6847SOL    HW121375   5.518   7.380   6.602  0.2625 -0.2837  0.4327
 6847SOL    HW221376   5.632   7.389   6.700  0.2051  0.7392  0.4120
 6848SOL     OW21377   6.077   2.212   7.896 -0.4679  0.3758 -0.5753
 6848SOL    HW121378   6.086   2.121   7.870 -1.4633  0.1115 -0.0170
 6848SOL    HW221379   6.019   2.211   7.972  1.2520  1.2592  0.8512
 6849SOL     OW21380   4.237   0.760   5.999  0.1469 -0.5301 -0.1559
 6849SOL    HW121381   4.267   0.741   5.910  3.7929 -0.9814  1.0330
 6849SOL    HW221382   4.183   0.685   6.023  0.8960 -1.4387 -1.2262
 6850SOL     OW21383   2.472   7.786   3.049 -0.2202 -0.4792  0.5332
 6850SOL    HW121384   2.449   7.771   3.141 -1.8138  0.4211  0.3148
 6850SOL    HW221385   2.529   7.712   3.026  0.8085 -0.3276  2.4268
 6851SOL     OW21386   7.545   4.296   1.975 -0.1485  0.2392  0.5526
 6851SOL    HW121387   7.540   4.252   2.060 -0.2785 -1.7003 -0.3979
 6851SOL    HW221388   7.634   4.331   1.971  0.1085 -0.3283  1.1762
 6852SOL     OW21389   2.981   2.539   4.445  0.2398 -1.0615  0.0480
 6852SOL    HW121390   2.916   2.506   4.383  0.1948 -1.0574  0.0926
 6852SOL    HW221391   3.056   2.480   4.436 -0.0581 -1.5249  0.5412
 6853SOL     OW21392   4.503   2.842   1.727 -0.4702  0.1980 -0.6693
 6853SOL    HW121393   4.452   2.908   1.774  0.5903  1.4884 -1.2688
 6853SOL    HW221394   4.448   2.818   1.652 -1.4971 -0.7316  0.3348
 6854SOL     OW21395   0.853   7.112   5.928  0.2697  0.3906  0.2201
 6854SOL    HW121396   0.777   7.057   5.909  0.8696  0.2288 -2.0500
 6854SOL    HW221397   0.818   7.183   5.982 -1.2472 -0.2852  0.1942
 6855SOL     OW21398   2.318   2.608   3.091 -0.2725  0.5855 -0.2255
 6855SOL    HW121399   2.342   2.621   2.999  0.2279 -2.1386 -0.5910
 6855SOL    HW221400   2.222   2.607   3.091 -0.2860 -0.5722 -0.9817
 6856SOL     OW21401   6.979   4.593   7.102  0.6181  0.3167  0.0786
 6856SOL    HW121402   7.022   4.672   7.071  2.6474 -0.9153 -0.4517
 6856SOL    HW221403   6.958   4.611   7.194  0.7235  1.5826 -0.1328
 6857SOL     OW21404   1.713   1.720   4.804 -0.1805 -0.0622  0.2677
 6857SOL    HW121405   1.735   1.800   4.852  0.9198 -0.5342  0.5809
 6857SOL    HW221406   1.797   1.683   4.779 -0.7129 -0.1233 -1.5798
 6858SOL     OW21407   4.866   6.335   3.824 -0.0895 -0.0257  0.1411
 6858SOL    HW121408   4.833   6.365   3.740 -1.3202 -0.2300  0.5291
 6858SOL    HW221409   4.881   6.415   3.874 -1.6882  0.0345  0.5610
 6859SOL     OW21410   1.352   4.983   2.346 -0.0405 -0.4796  0.0878
 6859SOL    HW121411   1.269   5.030   2.332 -0.0709 -0.4502  0.3596
 6859SOL    HW221412   1.327   4.903   2.392  0.3692  0.8881  2.9008
 6860SOL     OW21413   6.370   4.259   6.545 -0.7185  0.4217 -0.3731
 6860SOL    HW121414   6.276   4.243   6.534 -1.2020  1.6558  1.6114
 6860SOL    HW221415   6.381   4.353   6.529  0.1908  0.2994 -0.5420
 6861SOL     OW21416   3.459   1.628   6.152  0.4760 -0.3116 -0.3632
 6861SOL    HW121417   3.419   1.697   6.204  1.0192  0.6641 -1.2017
 6861SOL    HW221418   3.393   1.558   6.149 -0.6434  0.7288 -0.6445
 6862SOL     OW21419   4.883   5.462   3.259  0.0239 -0.2884  0.0054
 6862SOL    HW121420   4.833   5.443   3.338 -0.5788 -0.4516 -0.4122
 6862SOL    HW221421   4.973   5.439   3.282 -0.2123 -0.7457  0.5054
 6863SOL     OW21422   6.286   4.375   2.602 -0.3472 -0.7647 -0.0544
 6863SOL    HW121423   6.319   4.436   2.669  0.3708 -1.5403  0.3070
 6863SOL    HW221424   6.351   4.305   2.599  0.7443  0.2342 -3.0199
 6864SOL     OW21425   7.289   3.105   7.313  0.7382  0.0704  0.2029
 6864SOL    HW121426   7.215   3.154   7.348  0.0365 -0.8690  0.0862
 6864SOL    HW221427   7.366   3.150   7.345  0.1269  1.6027 -0.4077
 6865SOL     OW21428   5.895   0.768   6.253  0.0852  0.3740  0.1236
 6865SOL    HW121429   5.918   0.803   6.167 -2.7034 -0.5566 -1.1453
 6865SOL    HW221430   5.887   0.674   6.238 -0.3990  0.1911  1.4300
 6866SOL     OW21431   6.417   5.142   3.794 -0.4024 -0.3463  0.0121
 6866SOL    HW121432   6.390   5.119   3.705 -1.3728 -1.0096  0.4614
 6866SOL    HW221433   6.512   5.154   3.788 -0.3989 -0.8034 -1.0237
 6867SOL     OW21434   3.851   2.827   6.449  0.3359  0.2080  0.1466
 6867SOL    HW121435   3.847   2.919   6.473 -1.8962 -0.0594  1.0592
 6867SOL    HW221436   3.815   2.824   6.360 -1.7202  0.0615  0.9083
 6868SOL     OW21437   5.535   2.005   3.221  0.0003  0.5247  0.0315
 6868SOL    HW121438   5.616   1.975   3.180 -2.0141 -3.4442 -1.6618
 6868SOL    HW221439   5.507   2.079   3.167  1.6871  0.9533 -0.3125
 6869SOL     OW21440   4.248   0.610   1.454  0.3980  0.1069 -0.5910
 6869SOL    HW121441   4.160   0.618   1.490  0.2629  1.2326 -1.1323
 6869SOL    HW221442   4.234   0.582   1.363  0.5765  0.4133 -0.7164
 6870SOL     OW21443   0.294   0.843   4.651  0.1675  0.5665  0.1853
 6870SOL    HW121444   0.343   0.795   4.718 -1.0967  0.1590  0.8390
 6870SOL    HW221445   0.347   0.833   4.572 -0.2143 -2.3308  0.1641
 6871SOL     OW21446   2.838   7.343   7.722  0.1456 -0.6645  0.3519
 6871SOL    HW121447   2.846   7.411   7.788 -1.3358  0.0990 -0.2062
 6871SOL    HW221448   2.827   7.391   7.640  0.4938 -1.5923 -0.2526
 6872SOL     OW21449   5.036   2.101   7.438  0.2448  0.7006 -0.0981
 6872SOL    HW121450   5.045   2.034   7.369  0.0117 -0.1962  0.7140
 6872SOL    HW221451   4.998   2.053   7.512 -0.6652  1.9146  0.2500
 6873SOL     OW21452   1.739   6.395   4.171 -0.4691  0.2242  0.0168
 6873SOL    HW121453   1.813   6.361   4.221 -1.5179  0.0916  1.5666
 6873SOL    HW221454   1.732   6.487   4.199 -1.1690  0.1011  0.2681
 6874SOL     OW21455   0.958   2.868   4.623  0.3392  0.3773 -0.2219
 6874SOL    HW121456   1.031   2.826   4.669 -1.2055  0.5440  2.6330
 6874SOL    HW221457   0.894   2.799   4.610 -0.1692  0.8103 -0.0539
 6875SOL     OW21458   5.613   4.936   5.989 -0.0999 -0.2631 -0.4792
 6875SOL    HW121459   5.704   4.911   5.979  0.2364  1.2859 -1.6921
 6875SOL    HW221460   5.565   4.875   5.933 -0.1283 -2.4265  1.7131
 6876SOL     OW21461   2.287   0.394   6.894  0.2171  0.0079  0.5182
 6876SOL    HW121462   2.210   0.448   6.913 -0.6584 -1.2819  0.7313
 6876SOL    HW221463   2.252   0.309   6.868  1.5760 -0.6185  0.6151
 6877SOL     OW21464   0.518   4.378   6.489 -0.2726  0.2992  0.5812
 6877SOL    HW121465   0.598   4.429   6.483 -0.1895  0.3700  1.9989
 6877SOL    HW221466   0.509   4.357   6.582 -1.2509 -0.7505  0.2769
 6878SOL     OW21467   0.613   4.956   2.833  0.3249  0.2411 -0.0206
 6878SOL    HW121468   0.679   5.026   2.836  1.5909 -0.9349  0.7625
 6878SOL    HW221469   0.588   4.950   2.741  0.0075  1.8705 -0.0695
 6879SOL     OW21470   4.585   2.448   2.142  0.0135  0.0630 -0.1645
 6879SOL    HW121471   4.660   2.508   2.143  1.3761 -1.5551 -0.3867
 6879SOL    HW221472   4.591   2.403   2.058 -1.6418  0.3739 -0.4884
 6880SOL     OW21473   0.821   6.676   1.997 -0.0327  0.0081 -0.4509
 6880SOL    HW121474   0.773   6.594   1.984 -3.8479  1.8813  0.2398
 6880SOL    HW221475   0.860   6.695   1.912  2.1479 -3.0678 -0.2817
 6881SOL     OW21476   1.552   0.122   0.343  0.1048  0.0779 -0.1851
 6881SOL    HW121477   1.486   0.095   0.406  0.1106  0.3798 -0.0462
 6881SOL    HW221478   1.514   0.200   0.301  0.9588  1.1255  0.9027
 6882SOL     OW21479   3.536   5.926   1.086 -0.5252  0.3865 -0.1016
 6882SOL    HW121480   3.456   5.974   1.065 -0.4715 -0.0259 -1.2922
 6882SOL    HW221481   3.601   5.959   1.024  0.5838  1.5774  1.5923
 6883SOL     OW21482   6.830   2.727   5.305 -0.2879  0.1425  0.0127
 6883SOL    HW121483   6.795   2.721   5.216 -2.2555  0.3674  0.7103
 6883SOL    HW221484   6.854   2.819   5.315 -1.4146  0.4347  0.1607
 6884SOL     OW21485   7.774   4.812   6.174  0.2226  0.5641 -0.0798
 6884SOL    HW121486   7.841   4.744   6.168 -0.7070 -0.4036  0.1805
 6884SOL    HW221487   7.735   4.815   6.086 -1.4941 -1.1260  0.5600
 6885SOL     OW21488   3.597   6.900   5.950  0.5554  0.3030  0.1676
 6885SOL    HW121489   3.579   6.813   5.984 -1.3299 -0.2323 -1.9470
 6885SOL    HW221490   3.515   6.948   5.963  0.7187  0.9342 -1.0285
 6886SOL     OW21491   1.938   2.837   5.546 -0.9348  0.1389  0.1699
 6886SOL    HW121492   1.994   2.760   5.544 -1.3595 -0.1660 -0.0855
 6886SOL    HW221493   1.986   2.900   5.599 -0.4220 -0.1738  0.0826
 6887SOL     OW21494   4.451   1.397   3.409  0.2770 -0.2915  0.2071
 6887SOL    HW121495   4.473   1.365   3.496 -0.3549 -0.5686  0.2694
 6887SOL    HW221496   4.377   1.343   3.381  0.1762  0.1031 -0.3110
 6888SOL     OW21497   3.256   3.156   6.593 -0.0113  0.2886  0.0277
 6888SOL    HW121498   3.269   3.096   6.667  2.6642  1.0487  0.2812
 6888SOL    HW221499   3.304   3.235   6.617 -1.1229  1.4956 -1.5020
 6889SOL     OW21500   3.430   6.557   1.146 -0.2633  0.9655  0.4546
 6889SOL    HW121501   3.503   6.619   1.143  2.2270 -1.7957  0.0855
 6889SOL    HW221502   3.420   6.527   1.056  2.0326 -2.7196  1.2242
 6890SOL     OW21503   6.763   7.436   6.389 -0.6487  0.0995  0.2617
 6890SOL    HW121504   6.800   7.446   6.301  0.5332 -0.8889  0.6003
 6890SOL    HW221505   6.677   7.396   6.374 -0.3668 -0.2748 -0.4389
 6891SOL     OW21506   3.801   6.532   7.923  0.6552  0.5785  0.3231
 6891SOL    HW121507   3.872   6.504   7.865 -1.5578 -3.7419 -0.6568
 6891SOL    HW221508   3.752   6.597   7.872  0.4418 -0.9697 -1.5410
 6892SOL     OW21509   5.181   5.909   6.131  0.1052 -0.3015 -0.5438
 6892SOL    HW121510   5.154   5.820   6.154  1.3783 -0.9374 -1.3618
 6892SOL    HW221511   5.104   5.963   6.147 -0.8278 -1.6169 -0.4380
 6893SOL     OW21512   5.719   0.750   7.886 -0.4746 -0.0980 -0.2479
 6893SOL    HW121513   5.792   0.706   7.931  2.0846  3.1877 -0.8372
 6893SOL    HW221514   5.642   0.722   7.935  1.1632 -3.1654  0.9331
 6894SOL     OW21515   3.796   5.893   4.227  0.5635 -0.2518 -0.2376
 6894SOL    HW121516   3.833   5.972   4.266 -0.2320  0.3637 -0.7081
 6894SOL    HW221517   3.861   5.864   4.163  0.2854  0.7794 -1.0098
 6895SOL     OW21518   6.160   3.817   4.706  0.0158  0.4605  0.2762
 6895SOL    HW121519   6.201   3.903   4.717 -0.0894  0.5241  0.1726
 6895SOL    HW221520   6.214   3.773   4.641  1.4307 -0.4165  1.9649
 6896SOL     OW21521   0.873   2.446   4.591 -0.4750 -0.0210 -0.2487
 6896SOL    HW121522   0.937   2.407   4.649 -1.2273 -2.2379 -0.8191
 6896SOL    HW221523   0.908   2.432   4.503 -1.1664 -0.2074 -0.5056
 6897SOL     OW21524   5.126   7.451   7.945  0.3476 -0.2253  0.1043
 6897SOL    HW121525   5.132   7.411   7.858  0.9270 -1.7059  0.7978
 6897SOL    HW221526   5.070   7.528   7.932  1.4871  0.3523 -1.8313
 6898SOL     OW21527   1.776   4.769   5.992 -0.4242 -0.0497  0.6662
 6898SOL    HW121528   1.698   4.754   6.045 -1.0046 -0.3231 -0.2471
 6898SOL    HW221529   1.806   4.857   6.017 -3.3320  1.8270 -1.7723
 6899SOL     OW21530   0.922   2.259   3.131  0.3427  0.4817  0.3196
 6899SOL    HW121531   0.916   2.216   3.217 -0.0938  0.5420  0.3251
 6899SOL    HW221532   0.908   2.189   3.068  1.3795  0.3107  0.2726
 6900SOL     OW21533   5.488   2.564   1.599 -0.6875 -0.1075  0.2943
 6900SOL    HW121534   5.495   2.625   1.673  0.7433 -0.4654  0.4801
 6900SOL    HW221535   5.400   2.580   1.563 -1.1514  0.5516  1.6460
 6901SOL     OW21536   7.417   3.520   0.361  0.4594 -0.5025  0.0996
 6901SOL    HW121537   7.351   3.577   0.402  1.3432  1.1528 -0.6604
 6901SOL    HW221538   7.378   3.496   0.277  0.0992 -1.0122  0.4055
 6902SOL     OW21539   5.276   3.086   4.921  0.1762  0.1193  0.3924
 6902SOL    HW121540   5.344   3.148   4.894  0.0103 -0.0244 -0.3817
 6902SOL    HW221541   5.323   3.012   4.957  0.5958 -1.1172 -2.4690
 6903SOL     OW21542   7.466   3.977   2.639 -0.5677  0.2280 -0.2510
 6903SOL    HW121543   7.496   3.888   2.621 -1.4205 -0.4172  1.3182
 6903SOL    HW221544   7.512   4.000   2.720  2.0378  2.4437 -2.1701
 6904SOL     OW21545   6.448   0.876   5.453  0.2734  0.3151 -0.0829
 6904SOL    HW121546   6.428   0.969   5.437 -0.0394  0.0903 -1.0499
 6904SOL    HW221547   6.474   0.873   5.545  2.6830  1.7656 -0.6274
 6905SOL     OW21548   6.064   1.628   5.796 -0.5006 -0.0962 -0.1316
 6905SOL    HW121549   5.972   1.622   5.772 -0.0612  0.9854 -2.3809
 6905SOL    HW221550   6.108   1.563   5.740  0.1815 -0.1373  0.4329
 6906SOL     OW21551   0.813   5.787   7.141  0.8409 -0.3293 -0.5782
 6906SOL    HW121552   0.863   5.819   7.216  0.8603  1.7240 -1.4002
 6906SOL    HW221553   0.854   5.829   7.065 -1.6202  0.8855 -1.3587
 6907SOL     OW21554   7.761   2.872   1.733 -0.6279  0.2514 -0.1218
 6907SOL    HW121555   7.728   2.889   1.645  0.3532  0.0116 -0.5424
 6907SOL    HW221556   7.856   2.881   1.726 -0.4748 -0.5699  0.7230
 6908SOL     OW21557   2.238   4.823   5.555 -0.0496 -0.0208 -0.1808
 6908SOL    HW121558   2.180   4.895   5.575 -0.6635 -0.0564 -1.7216
 6908SOL    HW221559   2.325   4.855   5.578 -0.2888  1.2944 -1.0215
 6909SOL     OW21560   2.347   6.828   2.833  0.0885 -0.5305 -0.1690
 6909SOL    HW121561   2.431   6.824   2.878  0.0173  0.1204  0.0387
 6909SOL    HW221562   2.308   6.742   2.847  1.1004 -1.1582 -1.0306
 6910SOL     OW21563   6.223   5.110   2.584  0.5043  0.4011  0.0824
 6910SOL    HW121564   6.181   5.103   2.498  0.9892  0.7293 -0.1870
 6910SOL    HW221565   6.155   5.148   2.641 -0.1963 -0.8678  0.1324
 6911SOL     OW21566   1.453   3.071   4.499 -0.5278  0.2329  0.3002
 6911SOL    HW121567   1.433   2.994   4.552  0.3274  0.6532  1.2745
 6911SOL    HW221568   1.478   3.138   4.563  0.0272  0.9105 -0.6025
 6912SOL     OW21569   1.708   2.405   4.800  0.5386  0.2802 -0.2906
 6912SOL    HW121570   1.634   2.347   4.785  1.7381 -1.3938 -0.1206
 6912SOL    HW221571   1.714   2.458   4.721  0.7681 -1.4516 -1.4925
 6913SOL     OW21572   0.909   7.788   2.340 -0.6406  0.7402  0.3692
 6913SOL    HW121573   0.913   7.854   2.410  1.3779  1.3304 -0.2241
 6913SOL    HW221574   1.000   7.771   2.318 -1.1914 -0.3699 -1.2670
 6914SOL     OW21575   0.142   4.062   2.177  0.1913 -0.7923 -0.3329
 6914SOL    HW121576   0.141   4.111   2.259  1.3561  0.4788 -1.0257
 6914SOL    HW221577   0.050   4.039   2.161 -0.5877  2.0027 -0.4128
 6915SOL     OW21578   0.375   7.782   7.793  0.1160 -0.1014  0.3103
 6915SOL    HW121579   0.432   7.706   7.783 -0.0278 -0.5658  2.4011
 6915SOL    HW221580   0.304   7.768   7.730  0.9485 -0.8545 -0.4772
 6916SOL     OW21581   7.737   3.945   3.159  0.0895  0.3012 -0.2797
 6916SOL    HW121582   7.762   3.946   3.067 -1.0789 -1.4238 -0.6634
 6916SOL    HW221583   7.740   3.853   3.184  0.6379  0.7624  1.4958
 6917SOL     OW21584   0.231   3.320   5.218  0.4536 -0.3542  0.3836
 6917SOL    HW121585   0.214   3.413   5.206 -0.0840 -0.3386  1.2009
 6917SOL    HW221586   0.318   3.306   5.180 -0.4279 -0.0096 -1.9652
 6918SOL     OW21587   3.200   2.937   5.332  0.0579  0.0421 -0.5916
 6918SOL    HW121588   3.227   2.944   5.424  1.4785  0.4998 -1.0128
 6918SOL    HW221589   3.207   3.027   5.299 -1.7439  0.1124 -0.8238
 6919SOL     OW21590   5.505   7.048   1.912  0.0325 -0.0292  0.0771
 6919SOL    HW121591   5.559   6.970   1.925 -0.8574 -0.4992  1.0464
 6919SOL    HW221592   5.524   7.075   1.822  1.5041 -0.4527  0.2259
 6920SOL     OW21593   2.008   6.073   1.546 -0.5062 -0.0218 -0.1699
 6920SOL    HW121594   1.918   6.046   1.563 -0.7501  1.3252  0.8787
 6920SOL    HW221595   2.013   6.162   1.582  0.8211  0.5093 -1.5615
 6921SOL     OW21596   4.564   2.574   0.094  0.6089 -0.1057 -0.2566
 6921SOL    HW121597   4.494   2.626   0.054  0.5519  0.3248  0.3811
 6921SOL    HW221598   4.642   2.595   0.044  0.5546  0.4893 -0.0933
 6922SOL     OW21599   6.551   0.018   2.175  0.1524  0.5506  0.4533
 6922SOL    HW121600   6.521  -0.044   2.108  0.7489  0.2010  0.4995
 6922SOL    HW221601   6.491   0.091   2.168  0.4553  0.7103 -0.7739
 6923SOL     OW21602   6.753   6.629   5.396  0.0065 -0.1169  0.5169
 6923SOL    HW121603   6.753   6.561   5.330  0.0117  0.6694 -0.3149
 6923SOL    HW221604   6.696   6.697   5.361 -0.0935  0.2671  1.3783
 6924SOL     OW21605   2.841   0.693   4.636 -0.8177  0.4063 -0.0248
 6924SOL    HW121606   2.862   0.774   4.682 -1.6615  0.5291  0.1637
 6924SOL    HW221607   2.759   0.712   4.591 -2.2297 -0.9792  1.7686
 6925SOL     OW21608   5.166   0.763   3.156 -0.0233 -0.1743 -0.1114
 6925SOL    HW121609   5.119   0.835   3.114  1.3967  0.6794 -0.3133
 6925SOL    HW221610   5.098   0.701   3.181 -1.3246  1.3578  0.3053
 6926SOL     OW21611   4.173   7.286   1.693  0.8556 -0.7656 -0.1998
 6926SOL    HW121612   4.239   7.238   1.743  0.3402 -1.5718 -0.2714
 6926SOL    HW221613   4.115   7.218   1.660 -0.9936  0.0097  1.2499
 6927SOL     OW21614   0.246   1.809   1.545  0.5678  0.0501  0.1703
 6927SOL    HW121615   0.289   1.725   1.533 -0.4374 -0.2613 -1.5019
 6927SOL    HW221616   0.316   1.869   1.571  1.5508 -0.9643 -0.0948
 6928SOL     OW21617   6.156   6.668   5.945 -0.1056  0.1413 -0.3196
 6928SOL    HW121618   6.080   6.699   5.895 -0.0851  1.1983  0.2616
 6928SOL    HW221619   6.126   6.669   6.036  1.0744  2.2074  0.1119
 6929SOL     OW21620   7.886   7.025   6.307  0.2842 -0.2704  0.0686
 6929SOL    HW121621   7.978   7.020   6.280  0.1096  2.0329 -1.2220
 6929SOL    HW221622   7.851   7.099   6.257 -1.8887 -0.1336  1.6854
 6930SOL     OW21623   1.114   4.234   4.906 -0.0739 -0.2022 -0.4219
 6930SOL    HW121624   1.063   4.192   4.837  0.2076  0.9407 -1.3526
 6930SOL    HW221625   1.109   4.328   4.886 -0.3098  0.1907  1.3269
 6931SOL     OW21626   7.215   6.013   6.964 -0.4251 -0.3092 -0.4585
 6931SOL    HW121627   7.291   6.020   7.022  0.3508 -1.8803 -1.2341
 6931SOL    HW221628   7.252   6.003   6.877 -1.4288 -2.6412 -0.6961
 6932SOL     OW21629   4.521   7.042   0.741 -0.5312  0.2265  0.3893
 6932SOL    HW121630   4.493   7.081   0.824  0.7900  1.0448  0.4763
 6932SOL    HW221631   4.612   7.070   0.731 -0.9238  0.9074 -1.7773
 6933SOL     OW21632   7.674   7.483   5.693 -0.0986  0.2035  0.1113
 6933SOL    HW121633   7.632   7.565   5.667  0.0163  0.2826  0.1729
 6933SOL    HW221634   7.601   7.425   5.717 -0.1478  0.5669  0.8684
 6934SOL     OW21635   2.564   7.090   6.925  0.2425  0.0300  0.3488
 6934SOL    HW121636   2.521   7.086   7.010  0.4740 -2.3762  0.4174
 6934SOL    HW221637   2.553   7.002   6.888  0.9956  0.7292 -1.6900
 6935SOL     OW21638   2.929   6.249   0.760 -0.5160 -0.0197  0.1773
 6935SOL    HW121639   2.971   6.200   0.689  0.4027  2.9662 -1.5115
 6935SOL    HW221640   2.960   6.205   0.840  0.6227 -1.8449 -1.1762
 6936SOL     OW21641   3.321   5.366   5.969 -0.1472 -0.0751 -0.3990
 6936SOL    HW121642   3.319   5.273   5.945 -0.6043 -0.1111 -0.2352
 6936SOL    HW221643   3.384   5.404   5.908  1.7637 -0.8697  0.9832
 6937SOL     OW21644   5.288   1.975   3.948 -0.3712 -0.4294  0.4760
 6937SOL    HW121645   5.202   1.955   3.910 -0.1721 -0.6673  0.1534
 6937SOL    HW221646   5.351   1.938   3.886 -0.0132  0.6169  0.1993
 6938SOL     OW21647   5.780   2.939   5.163 -0.1263 -0.5059 -0.0913
 6938SOL    HW121648   5.690   2.958   5.189  0.6623  4.2062  0.0336
 6938SOL    HW221649   5.830   2.942   5.245  0.5186  0.0456 -0.4927
 6939SOL     OW21650   6.180   7.588   6.916 -0.3660  0.1105 -0.4293
 6939SOL    HW121651   6.260   7.576   6.966  0.0511 -1.5565 -1.4246
 6939SOL    HW221652   6.209   7.624   6.832 -0.7146 -0.0114 -0.6052
 6940SOL     OW21653   7.098   6.782   7.277 -0.8738 -0.9068  0.3652
 6940SOL    HW121654   7.096   6.845   7.350 -3.2505 -2.5473  1.8515
 6940SOL    HW221655   7.190   6.761   7.266 -0.0937  2.0256  0.4779
 6941SOL     OW21656   1.949   3.268   0.711  0.3310  0.0598 -0.5609
 6941SOL    HW121657   1.993   3.294   0.630 -0.4463 -0.8022 -1.2880
 6941SOL    HW221658   1.857   3.288   0.695  0.1842 -0.0192  0.1567
 6942SOL     OW21659   4.018   3.416   4.072 -0.5251 -0.2408 -0.0070
 6942SOL    HW121660   4.075   3.456   4.139 -1.2882  1.2808 -0.2062
 6942SOL    HW221661   3.975   3.344   4.117 -1.3298  1.0043  1.3280
 6943SOL     OW21662   6.963   7.789   6.744  0.1974  0.6086  0.0946
 6943SOL    HW121663   6.911   7.830   6.675  1.6158 -0.3004 -1.5873
 6943SOL    HW221664   6.923   7.703   6.757 -1.0790  1.3876  1.6462
 6944SOL     OW21665   5.285   4.950   7.275 -0.2320 -0.2570 -0.2253
 6944SOL    HW121666   5.277   4.867   7.227  0.3407 -0.6822  0.3834
 6944SOL    HW221667   5.198   4.989   7.271 -0.5294 -0.9308 -0.4631
 6945SOL     OW21668   6.108   0.967   2.130  0.3598 -0.3422 -0.4249
 6945SOL    HW121669   6.023   0.964   2.087  0.8380 -0.3519 -1.4082
 6945SOL    HW221670   6.089   0.955   2.223 -0.7010 -0.3713 -0.6354
 6946SOL     OW21671   6.874   6.359   7.174 -0.5839  0.1868  0.0190
 6946SOL    HW121672   6.845   6.409   7.098 -1.8002 -0.8402 -0.2269
 6946SOL    HW221673   6.912   6.279   7.138 -0.5285  0.0064  0.4691
 6947SOL     OW21674   1.761   4.324   7.611  0.2646  0.3183 -0.3871
 6947SOL    HW121675   1.699   4.396   7.609  1.5572  1.6474  1.9165
 6947SOL    HW221676   1.710   4.249   7.639 -0.4627  1.2402  0.8640
 6948SOL     OW21677   2.612   4.567   2.947 -0.0717  0.2130  0.1659
 6948SOL    HW121678   2.661   4.610   3.017 -0.7776 -0.7045  1.2740
 6948SOL    HW221679   2.551   4.633   2.917  0.6424  0.8071  0.0003
 6949SOL     OW21680   1.759   6.809   7.182 -0.0804 -0.1975  0.4434
 6949SOL    HW121681   1.843   6.765   7.196 -0.4484 -0.7175  1.0911
 6949SOL    HW221682   1.765   6.889   7.233 -0.0204 -0.2945  0.5889
 6950SOL     OW21683   5.005   3.722   0.311  0.0826 -0.3876 -0.0116
 6950SOL    HW121684   4.952   3.711   0.390 -0.1625 -0.3781 -0.1754
 6950SOL    HW221685   4.953   3.682   0.241 -0.3405  0.8566 -0.4297
 6951SOL     OW21686   7.128   0.724   1.188 -0.5364 -0.5682 -0.0944
 6951SOL    HW121687   7.148   0.776   1.266  1.2795 -1.2722 -0.0468
 6951SOL    HW221688   7.204   0.736   1.131 -2.0149  0.2914 -2.0094
 6952SOL     OW21689   7.690   7.944   0.988 -0.7772  0.1104 -0.2263
 6952SOL    HW121690   7.640   7.895   1.053 -1.0851 -2.2213 -2.1013
 6952SOL    HW221691   7.631   7.950   0.912  0.1497  1.3377 -0.8917
 6953SOL     OW21692   3.212   5.179   3.932 -0.6788 -0.3888 -0.0981
 6953SOL    HW121693   3.246   5.091   3.948  0.5138  0.1485  0.4452
 6953SOL    HW221694   3.202   5.217   4.019 -0.3847  0.2995 -0.3603
 6954SOL     OW21695   5.309   7.528   3.231  0.3916  0.4265 -0.2477
 6954SOL    HW121696   5.253   7.595   3.272  0.0497 -0.2969  0.4940
 6954SOL    HW221697   5.358   7.490   3.304  1.1771  0.4123 -0.7716
 6955SOL     OW21698   6.386   1.753   3.521 -0.0594 -0.0598 -0.9353
 6955SOL    HW121699   6.439   1.829   3.543 -1.4086  0.8297 -0.6719
 6955SOL    HW221700   6.405   1.737   3.428  3.1082 -1.7893 -0.1523
 6956SOL     OW21701   4.790   2.236   4.399 -0.2188 -0.7228  0.7732
 6956SOL    HW121702   4.718   2.235   4.336 -0.8782  2.3772  1.3020
 6956SOL    HW221703   4.758   2.184   4.473 -0.3754 -2.4150 -0.4142
 6957SOL     OW21704   4.873   7.150   3.447 -0.2392 -0.6962 -0.3326
 6957SOL    HW121705   4.873   7.222   3.510 -1.4117 -0.7883 -0.1896
 6957SOL    HW221706   4.854   7.193   3.363 -0.5158 -0.7786 -0.3143
 6958SOL     OW21707   0.289   4.730   1.564  0.5214  0.4885  0.1058
 6958SOL    HW121708   0.205   4.761   1.529  0.7607 -1.4751 -2.5083
 6958SOL    HW221709   0.354   4.762   1.502  1.2257 -1.3235 -0.1319
 6959SOL     OW21710   2.522   7.448   4.059 -0.5458  0.3726 -0.2334
 6959SOL    HW121711   2.545   7.356   4.070  0.2489  0.5655 -0.2506
 6959SOL    HW221712   2.427   7.447   4.045 -0.9069 -0.2774  1.8846
 6960SOL     OW21713   0.346   6.267   6.489  0.0203  0.0752 -0.0248
 6960SOL    HW121714   0.323   6.360   6.483 -2.0374 -0.3650  0.3689
 6960SOL    HW221715   0.366   6.242   6.399  0.9997  0.9817 -0.0811
 6961SOL     OW21716   0.837   6.159   2.256  0.1671 -0.5336  0.3219
 6961SOL    HW121717   0.789   6.104   2.317 -0.7709 -0.6532 -0.4899
 6961SOL    HW221718   0.797   6.141   2.171  0.9551  0.1628 -0.2153
 6962SOL     OW21719   4.265   6.129   4.911 -1.1435 -0.1766 -0.2903
 6962SOL    HW121720   4.299   6.067   4.846  2.3330  2.1129 -0.9543
 6962SOL    HW221721   4.187   6.087   4.946 -0.7366 -3.4799 -2.8428
 6963SOL     OW21722   2.134   7.880   5.636  0.2079  0.0367 -0.2731
 6963SOL    HW121723   2.151   7.953   5.696 -0.8476  0.3448 -0.3224
 6963SOL    HW221724   2.137   7.920   5.549  0.0056 -0.0535 -0.3222
 6964SOL     OW21725   0.468   5.250   7.129 -0.1969  0.2947  0.3468
 6964SOL    HW121726   0.497   5.163   7.104  2.1938  0.7938  1.1472
 6964SOL    HW221727   0.443   5.292   7.047 -3.9223 -1.8779  0.1609
 6965SOL     OW21728   5.089   5.207   7.897 -0.1632  0.4168 -0.0889
 6965SOL    HW121729   5.137   5.166   7.825 -1.0315  1.0608 -1.0558
 6965SOL    HW221730   5.135   5.289   7.914 -1.0375  1.1688 -1.2048
 6966SOL     OW21731   2.652   7.684   4.949  0.3782 -0.3335 -0.1245
 6966SOL    HW121732   2.647   7.750   5.017 -1.2468  0.1768 -0.7029
 6966SOL    HW221733   2.615   7.726   4.871  3.7343 -0.2736 -1.8783
 6967SOL     OW21734   7.518   3.648   1.022 -0.3004  0.5349  0.2910
 6967SOL    HW121735   7.466   3.645   0.942 -0.0712  1.4032  0.1047
 6967SOL    HW221736   7.548   3.558   1.034  0.5450  0.5835 -1.1893
 6968SOL     OW21737   0.232   2.204   0.104 -0.2928 -0.0900  0.6420
 6968SOL    HW121738   0.231   2.273   0.038 -0.3584 -0.6175  0.0789
 6968SOL    HW221739   0.142   2.199   0.134 -0.5779 -0.8247 -0.2836
 6969SOL     OW21740   4.826   1.764   6.191  0.2349  0.1218 -0.6125
 6969SOL    HW121741   4.755   1.716   6.234  1.4111 -0.4271  0.8156
 6969SOL    HW221742   4.783   1.813   6.122 -1.9394  1.6917  1.6776
 6970SOL     OW21743   2.562   3.248   5.455 -0.7535 -0.5014 -0.7743
 6970SOL    HW121744   2.580   3.183   5.523 -1.5144  0.9956  0.9590
 6970SOL    HW221745   2.636   3.308   5.460 -0.9059 -0.2827 -1.1417
 6971SOL     OW21746   0.671   6.497   3.960  0.5001  0.0065 -0.4174
 6971SOL    HW121747   0.660   6.433   3.890 -0.7732  0.1484 -0.3632
 6971SOL    HW221748   0.596   6.483   4.018  0.0575  1.6953 -0.5237
 6972SOL     OW21749   7.752   5.550   4.238  0.7352  0.0834  0.1718
 6972SOL    HW121750   7.676   5.513   4.192 -0.8666  0.7075  2.1767
 6972SOL    HW221751   7.799   5.599   4.171 -1.5552  1.0591 -0.8220
 6973SOL     OW21752   5.448   0.007   4.046 -0.4959  0.9711 -0.1626
 6973SOL    HW121753   5.438  -0.029   3.958 -1.0670  1.3574 -0.2623
 6973SOL    HW221754   5.402  -0.055   4.103  1.0080  0.0037  0.0558
 6974SOL     OW21755   3.680   2.046   2.099 -0.1290  0.2912  0.2169
 6974SOL    HW121756   3.652   2.099   2.174  2.0156  1.7036  0.1135
 6974SOL    HW221757   3.683   2.108   2.026  1.3556 -0.1798 -0.1610
 6975SOL     OW21758   7.739   0.582   4.966  0.0098  0.5439 -0.1532
 6975SOL    HW121759   7.683   0.532   5.026  0.7800  0.2112  0.2922
 6975SOL    HW221760   7.775   0.653   5.020  1.2908 -0.1859 -0.0153
 6976SOL     OW21761   7.004   2.835   4.027 -0.5733 -0.0349  0.2955
 6976SOL    HW121762   6.925   2.792   4.058 -1.0454 -1.0280 -2.0741
 6976SOL    HW221763   7.044   2.772   3.967  0.3592  1.6241 -0.9212
 6977SOL     OW21764   6.247   4.968   6.360 -0.3786 -0.5638  0.1024
 6977SOL    HW121765   6.199   4.886   6.353 -0.9248 -0.2355 -0.1160
 6977SOL    HW221766   6.280   4.984   6.272 -0.1288 -0.6355  0.1832
 6978SOL     OW21767   2.723   1.607   6.006  0.2786 -0.5490 -0.3046
 6978SOL    HW121768   2.674   1.676   5.963  1.9328 -0.2787 -1.8995
 6978SOL    HW221769   2.664   1.573   6.073 -1.9219 -0.0504 -1.8898
 6979SOL     OW21770   2.632   7.926   1.746  0.4131 -0.7261 -0.2223
 6979SOL    HW121771   2.585   7.992   1.695 -0.3919 -1.5790 -0.5908
 6979SOL    HW221772   2.586   7.923   1.830  1.4580  0.3452  0.4233
 6980SOL     OW21773   1.026   3.793   2.685  1.0455  0.4905 -0.6141
 6980SOL    HW121774   1.041   3.706   2.722 -2.2523  0.1491  0.3102
 6980SOL    HW221775   1.113   3.829   2.669  2.5311 -2.9873 -1.1318
 6981SOL     OW21776   0.114   3.851   5.794 -0.0186 -0.0527  0.3665
 6981SOL    HW121777   0.077   3.938   5.808  1.0938  0.3254  1.1373
 6981SOL    HW221778   0.207   3.867   5.780 -0.0949 -0.9718 -1.4979
 6982SOL     OW21779   5.755   6.992   3.737  0.0754 -0.0493  0.5161
 6982SOL    HW121780   5.810   7.059   3.697  1.2983 -0.8559  0.7647
 6982SOL    HW221781   5.671   7.035   3.753 -0.0198  0.6696 -1.6712
 6983SOL     OW21782   1.769   6.428   4.468  0.5391 -0.2571  0.3045
 6983SOL    HW121783   1.857   6.398   4.492  0.1246 -0.8835  1.1018
 6983SOL    HW221784   1.756   6.508   4.518  1.6711  1.4130 -1.8730
 6984SOL     OW21785   1.051   5.641   0.493  0.5218  0.2061 -0.5053
 6984SOL    HW121786   1.034   5.586   0.569  1.8255 -0.5824 -0.7640
 6984SOL    HW221787   1.055   5.730   0.528  1.1382 -0.1558  0.3614
 6985SOL     OW21788   3.920   1.210   1.780 -0.1149  0.3014 -0.4127
 6985SOL    HW121789   3.961   1.125   1.760 -0.5310  0.4365 -1.9575
 6985SOL    HW221790   3.877   1.235   1.698 -0.3134  1.8322  0.1408
 6986SOL     OW21791   6.778   7.893   6.458  0.4932 -0.9235  0.0799
 6986SOL    HW121792   6.787   7.830   6.386 -2.4910 -0.7416 -0.5558
 6986SOL    HW221793   6.842   7.962   6.437  1.4827 -2.1026 -0.9730
 6987SOL     OW21794   6.456   4.130   4.613 -0.0907 -0.0757  0.4708
 6987SOL    HW121795   6.420   4.216   4.592  1.0482  0.4317  0.4837
 6987SOL    HW221796   6.492   4.140   4.701 -3.3232 -1.6973  2.1453
 6988SOL     OW21797   4.291   5.999   7.659 -0.1213 -0.0121  0.6244
 6988SOL    HW121798   4.344   5.946   7.718  1.7904  1.7048  0.5411
 6988SOL    HW221799   4.235   6.050   7.717 -0.9429 -1.0288  0.7566
 6989SOL     OW21800   4.199   5.098   6.584 -0.1712  0.3828  0.0022
 6989SOL    HW121801   4.178   5.188   6.607  1.8775  1.1805 -0.9585
 6989SOL    HW221802   4.284   5.104   6.541  0.3711 -2.1117  0.5806
 6990SOL     OW21803   4.665   3.881   0.954  0.8113 -0.3778 -0.8094
 6990SOL    HW121804   4.735   3.937   0.920  1.7983 -0.5238  0.8717
 6990SOL    HW221805   4.658   3.904   1.046 -0.2885 -1.4807 -0.5868
 6991SOL     OW21806   1.756   7.324   6.288  0.2963  0.4230  0.1167
 6991SOL    HW121807   1.685   7.355   6.344  1.3608  1.6870  0.8325
 6991SOL    HW221808   1.815   7.277   6.348 -0.0067 -0.7799 -0.5014
 6992SOL     OW21809   4.100   2.868   4.349 -0.3142  0.3186  0.3628
 6992SOL    HW121810   4.176   2.816   4.376 -1.5017 -1.8968 -0.2819
 6992SOL    HW221811   4.137   2.938   4.296  1.3024 -0.7663 -0.0332
 6993SOL     OW21812   5.559   2.753   4.454 -0.0621 -0.6685 -0.1658
 6993SOL    HW121813   5.573   2.762   4.360  1.2004 -1.4567 -0.0812
 6993SOL    HW221814   5.505   2.674   4.463  1.5211 -1.7908 -0.1550
 6994SOL     OW21815   6.399   0.536   1.819  0.2592  0.3286  0.1335
 6994SOL    HW121816   6.404   0.494   1.905  2.0780 -0.1202 -0.1515
 6994SOL    HW221817   6.490   0.548   1.793 -0.2551  0.0173 -1.9588
 6995SOL     OW21818   5.476   4.448   3.493 -0.0472 -0.3196 -0.1845
 6995SOL    HW121819   5.478   4.516   3.427 -0.4780  0.3970  0.5260
 6995SOL    HW221820   5.387   4.414   3.491 -0.6570  1.0373  1.3140
 6996SOL     OW21821   1.935   0.339   6.638  0.1376 -0.0063  0.1463
 6996SOL    HW121822   1.940   0.282   6.562  0.1166  2.5662 -1.9363
 6996SOL    HW221823   1.846   0.374   6.637  0.9760  2.3451 -0.5457
 6997SOL     OW21824   4.447   7.043   4.248 -0.5885  0.3834 -0.3239
 6997SOL    HW121825   4.505   7.117   4.267  0.5328 -0.2960 -0.9704
 6997SOL    HW221826   4.405   7.066   4.165  1.1246 -0.4474 -1.4766
 6998SOL     OW21827   5.751   1.915   2.323  0.0335  0.7130  0.4439
 6998SOL    HW121828   5.726   1.856   2.252  0.4326  2.4522 -1.2421
 6998SOL    HW221829   5.839   1.887   2.348  0.3264  0.7411 -0.5245
 6999SOL     OW21830   1.009   6.873   7.942 -0.1529  0.0571 -0.0916
 6999SOL    HW121831   0.928   6.904   7.902 -0.9294 -0.0212  1.3460
 6999SOL    HW221832   0.981   6.812   8.010  1.2220 -1.4484 -0.8077
 7000SOL     OW21833   0.932   3.891   2.421 -0.4279 -0.0340  0.4024
 7000SOL    HW121834   0.968   3.918   2.506  0.1080  1.2046 -0.1975
 7000SOL    HW221835   1.008   3.878   2.365 -0.8444  1.9403 -0.6917
 7001SOL     OW21836   0.374   5.733   2.177  0.0164 -0.3287  0.0546
 7001SOL    HW121837   0.440   5.676   2.138  1.3003  1.1659 -0.0636
 7001SOL    HW221838   0.379   5.715   2.271  1.7982  0.9326  0.2347
 7002SOL     OW21839   6.514   3.075   7.021 -0.6486 -0.4749  0.2317
 7002SOL    HW121840   6.434   3.065   6.971 -1.1514 -0.0863  0.9398
 7002SOL    HW221841   6.492   3.043   7.109 -0.0774 -0.2083  0.4787
 7003SOL     OW21842   3.880   3.193   6.717 -0.3234  0.4826 -0.2916
 7003SOL    HW121843   3.876   3.278   6.672 -1.9148 -0.9207 -3.1327
 7003SOL    HW221844   3.946   3.143   6.668 -0.2193 -0.2957  0.6194
 7004SOL     OW21845   3.380   2.400   3.024 -0.4286 -0.6536 -0.2798
 7004SOL    HW121846   3.304   2.397   2.965  0.1911  0.3199 -1.1582
 7004SOL    HW221847   3.456   2.400   2.966  0.2060  0.1441  0.5225
 7005SOL     OW21848   0.201   3.062   5.153  0.6016  0.5771  0.1380
 7005SOL    HW121849   0.203   3.157   5.160  0.8257  0.6103 -0.3380
 7005SOL    HW221850   0.111   3.038   5.178 -0.3741  1.1557 -2.4547
 7006SOL     OW21851   5.169   3.312   6.510 -0.8385  0.6093 -0.7252
 7006SOL    HW121852   5.140   3.386   6.458 -0.4701  0.7231 -0.7724
 7006SOL    HW221853   5.256   3.336   6.541 -1.2086  0.7215  0.2924
 7007SOL     OW21854   3.037   6.182   3.359  0.4664 -0.2190  0.3262
 7007SOL    HW121855   3.095   6.160   3.432 -0.7452 -1.4688  0.9507
 7007SOL    HW221856   2.952   6.148   3.385  0.3754 -2.5615 -2.5141
 7008SOL     OW21857   0.944   5.064   1.626  0.4168  0.2218 -0.2528
 7008SOL    HW121858   0.963   4.972   1.643  0.8413  0.3604  0.0206
 7008SOL    HW221859   0.914   5.065   1.535  0.7484 -0.1346 -0.3686
 7009SOL     OW21860   1.677   3.586   4.689 -0.0579  0.1893 -0.0621
 7009SOL    HW121861   1.635   3.534   4.621 -1.6675 -0.8823  1.6665
 7009SOL    HW221862   1.747   3.632   4.643 -0.4383 -1.2279 -2.2355
 7010SOL     OW21863   5.495   2.729   1.294 -0.5672  0.0231  0.6233
 7010SOL    HW121864   5.418   2.682   1.263 -0.9159 -0.4381  2.0755
 7010SOL    HW221865   5.460   2.812   1.328 -0.0609  1.0120 -1.1365
 7011SOL     OW21866   7.148   0.376   7.083 -0.4438 -0.6809 -1.0967
 7011SOL    HW121867   7.179   0.422   7.005  0.5768 -0.4427 -0.5671
 7011SOL    HW221868   7.217   0.311   7.102 -0.5177 -0.5197 -0.2172
 7012SOL     OW21869   1.084   3.777   5.624  0.5301  0.1382 -0.3748
 7012SOL    HW121870   1.019   3.718   5.660  0.7801 -0.2083 -0.4896
 7012SOL    HW221871   1.037   3.827   5.558  1.0111 -2.1387 -2.5951
 7013SOL     OW21872   6.362   1.064   3.875 -0.2342  0.7558  0.4693
 7013SOL    HW121873   6.271   1.085   3.893  0.2184  1.8141  1.6490
 7013SOL    HW221874   6.399   1.146   3.841  0.5681  0.6917  1.1688
 7014SOL     OW21875   2.735   5.739   5.061  0.3253  0.0166 -0.7845
 7014SOL    HW121876   2.701   5.677   4.997  0.8448 -0.5407 -0.5260
 7014SOL    HW221877   2.707   5.825   5.029  0.5771 -0.2533 -1.7443
 7015SOL     OW21878   1.987   0.508   1.167 -0.2079  0.5488 -0.2634
 7015SOL    HW121879   2.043   0.525   1.092 -1.7673  1.0693 -1.3527
 7015SOL    HW221880   2.044   0.462   1.229  0.4284 -2.5830 -2.8797
 7016SOL     OW21881   4.882   0.595   6.423 -0.0875  0.2071  0.2917
 7016SOL    HW121882   4.932   0.649   6.362 -0.9426  0.3966 -0.2585
 7016SOL    HW221883   4.904   0.630   6.509  0.3235  0.6247  0.0233
 7017SOL     OW21884   5.604   0.881   5.412  0.0644  0.3849 -0.5741
 7017SOL    HW121885   5.618   0.970   5.381  0.2090  0.6440  0.2076
 7017SOL    HW221886   5.595   0.829   5.332  1.2838  0.8814 -1.0517
 7018SOL     OW21887   6.197   5.566   7.178  0.4158 -0.2526 -0.7222
 7018SOL    HW121888   6.122   5.522   7.138 -0.9873  1.5448 -0.1652
 7018SOL    HW221889   6.223   5.509   7.250 -0.9587 -0.4975 -0.4057
 7019SOL     OW21890   0.725   1.111   1.409  0.3500 -0.0043 -0.2581
 7019SOL    HW121891   0.790   1.051   1.371  0.8480  0.3263  0.0631
 7019SOL    HW221892   0.753   1.123   1.499 -0.3305 -0.0859 -0.0314
 7020SOL     OW21893   4.898   4.904   1.676 -0.2998 -0.2503  0.0898
 7020SOL    HW121894   4.859   4.986   1.647  0.6753  0.3000  0.2967
 7020SOL    HW221895   4.854   4.885   1.760 -1.6712 -0.7977 -0.7151
 7021SOL     OW21896   3.819   1.272   1.536  0.8246 -0.1579 -0.1433
 7021SOL    HW121897   3.784   1.208   1.475  1.0077 -0.1344 -0.2746
 7021SOL    HW221898   3.888   1.317   1.487 -0.6718  1.6017 -0.7832
 7022SOL     OW21899   4.847   6.035   2.807  0.4034  0.3834  0.2827
 7022SOL    HW121900   4.935   6.008   2.782  0.0640 -1.0617  0.5365
 7022SOL    HW221901   4.816   5.965   2.864 -1.2467  0.3867 -0.5449
 7023SOL     OW21902   6.467   5.541   4.629  0.0790 -0.0962 -0.4296
 7023SOL    HW121903   6.399   5.558   4.694 -1.0965  0.3752 -1.7473
 7023SOL    HW221904   6.475   5.445   4.628  0.4453 -0.0955  0.7108
 7024SOL     OW21905   4.846   7.015   4.199  0.5178  0.1123  1.0675
 7024SOL    HW121906   4.775   7.002   4.136  0.0533 -0.5395  1.7191
 7024SOL    HW221907   4.915   6.956   4.170  0.2995 -0.1961  1.1776
 7025SOL     OW21908   3.193   4.903   4.007 -0.5193 -0.1639 -0.9514
 7025SOL    HW121909   3.184   4.824   3.954 -0.4679 -0.6414 -0.2543
 7025SOL    HW221910   3.105   4.919   4.041 -0.3365 -0.4779 -0.3132
 7026SOL     OW21911   2.977   1.228   7.336  0.5307  0.6586 -0.4818
 7026SOL    HW121912   2.970   1.209   7.430  0.1375  0.1886 -0.5980
 7026SOL    HW221913   2.887   1.248   7.309  0.5155  0.0523 -0.9024
 7027SOL     OW21914   4.770   2.663   5.755 -0.1673  1.3938 -0.0519
 7027SOL    HW121915   4.848   2.626   5.797 -1.0476 -1.4509 -0.7208
 7027SOL    HW221916   4.789   2.661   5.662 -0.0102  3.3895 -0.1122
 7028SOL     OW21917   4.156   3.944   4.342  0.2670  0.0708 -0.0363
 7028SOL    HW121918   4.083   3.982   4.294 -0.9102  0.1085  1.7269
 7028SOL    HW221919   4.218   4.016   4.353 -0.9325  0.9398  1.3111
 7029SOL     OW21920   5.166   5.394   0.293 -0.4393  0.5488  0.5097
 7029SOL    HW121921   5.251   5.352   0.305 -0.5887 -0.2185 -0.8811
 7029SOL    HW221922   5.153   5.395   0.198 -2.5610 -0.5430  0.7178
 7030SOL     OW21923   3.172   7.133   0.201 -0.4687  0.0482  0.6740
 7030SOL    HW121924   3.089   7.179   0.188 -0.7777 -0.2617  1.4497
 7030SOL    HW221925   3.238   7.202   0.204 -0.5536  0.2336 -0.9385
 7031SOL     OW21926   1.096   0.120   7.689  0.4151  0.4313 -0.1585
 7031SOL    HW121927   1.084   0.200   7.638  0.4214 -0.1526 -1.0965
 7031SOL    HW221928   1.082   0.147   7.780  1.1695  1.6559 -0.3836
 7032SOL     OW21929   3.994   2.297   1.082  0.3314 -0.5572 -0.1651
 7032SOL    HW121930   4.006   2.225   1.142  1.3890 -0.6126 -0.4230
 7032SOL    HW221931   3.906   2.330   1.100  0.0488 -1.5598  0.3181
 7033SOL     OW21932   0.991   6.096   1.393  0.3109  0.1844  0.5431
 7033SOL    HW121933   0.917   6.038   1.407 -0.1428  0.9093  1.2507
 7033SOL    HW221934   0.994   6.110   1.299  0.9373 -1.6163  0.2669
 7034SOL     OW21935   7.660   3.950   7.477  0.2892 -0.1164 -0.1885
 7034SOL    HW121936   7.615   4.034   7.468  2.4313  1.2695  1.3557
 7034SOL    HW221937   7.597   3.886   7.443 -1.9017  1.9412 -0.2571
 7035SOL     OW21938   3.511   4.983   1.626  0.4559 -0.5650  0.4011
 7035SOL    HW121939   3.583   5.043   1.605  2.0772 -2.5965 -0.1054
 7035SOL    HW221940   3.482   5.011   1.713  1.0557  1.0420  0.1239
 7036SOL     OW21941   3.851   0.779   5.449 -0.1909 -0.5651  0.2312
 7036SOL    HW121942   3.764   0.749   5.421  0.5956 -2.3654 -0.3617
 7036SOL    HW221943   3.853   0.871   5.423 -1.8970 -0.4931  0.2148
 7037SOL     OW21944   5.313   2.197   2.619  0.0212 -0.1049  0.3236
 7037SOL    HW121945   5.353   2.284   2.629 -0.6490  0.4793 -1.5045
 7037SOL    HW221946   5.249   2.192   2.690  1.4394  0.0521  1.6441
 7038SOL     OW21947   3.738   5.590   0.554 -0.1308  0.4117  0.4545
 7038SOL    HW121948   3.714   5.662   0.612 -0.3323 -0.1223  1.0409
 7038SOL    HW221949   3.670   5.590   0.486  0.2212  1.1680  0.0837
 7039SOL     OW21950   0.321   4.381   4.175 -0.1571 -0.2683  0.4303
 7039SOL    HW121951   0.263   4.333   4.234 -0.4474 -0.2425  0.1658
 7039SOL    HW221952   0.306   4.473   4.196  0.5621 -0.2863  1.0924
 7040SOL     OW21953   5.660   5.864   6.222 -0.4523  0.3870  0.2896
 7040SOL    HW121954   5.607   5.893   6.148 -0.5789 -0.3883  0.0720
 7040SOL    HW221955   5.750   5.867   6.190 -0.3594  1.5091  0.5958
 7041SOL     OW21956   1.506   4.337   6.495  0.0818  0.1465  0.0752
 7041SOL    HW121957   1.458   4.330   6.412  1.7686  0.9478 -1.0440
 7041SOL    HW221958   1.494   4.428   6.521  1.1812  0.4461 -0.3874
 7042SOL     OW21959   5.378   2.488   1.056  0.1974 -0.8622  0.4427
 7042SOL    HW121960   5.338   2.529   1.132  0.2223 -0.0913  0.0490
 7042SOL    HW221961   5.349   2.397   1.059 -0.7974 -0.5413  0.6893
 7043SOL     OW21962   2.243   2.204   2.449 -0.4434  0.4668 -0.1815
 7043SOL    HW121963   2.172   2.163   2.499 -1.0111  1.3097 -0.2834
 7043SOL    HW221964   2.216   2.295   2.438  1.6511  1.4041  1.6809
 7044SOL     OW21965   2.147   0.748   6.067  0.5973 -0.1463 -0.2232
 7044SOL    HW121966   2.138   0.842   6.051 -0.3870 -0.2460 -0.3080
 7044SOL    HW221967   2.136   0.738   6.162 -1.4463 -0.3729 -0.4302
 7045SOL     OW21968   0.760   5.297   0.296  0.1668  0.0094  0.2386
 7045SOL    HW121969   0.794   5.293   0.206  0.5102 -0.2053  0.3752
 7045SOL    HW221970   0.802   5.373   0.335 -0.1686  0.2441  0.1434
 7046SOL     OW21971   2.852   6.518   6.361  0.2197  0.0167  0.1260
 7046SOL    HW121972   2.925   6.510   6.422 -0.8272 -0.6275  1.3098
 7046SOL    HW221973   2.836   6.613   6.356  0.5439  0.0961  0.5461
 7047SOL     OW21974   2.621   3.561   1.024 -0.6874 -0.1753 -0.3398
 7047SOL    HW121975   2.615   3.494   1.092 -2.0332  1.2902  1.0853
 7047SOL    HW221976   2.586   3.519   0.946  1.6473 -2.1692 -0.4269
 7048SOL     OW21977   5.106   1.207   5.249  0.0340  0.0978 -0.5201
 7048SOL    HW121978   5.112   1.277   5.184  0.1934 -0.5004 -1.1628
 7048SOL    HW221979   5.148   1.131   5.207 -0.0649 -0.3639  0.1908
 7049SOL     OW21980   1.722   5.058   1.611 -0.0226 -0.4548  0.2510
 7049SOL    HW121981   1.670   5.045   1.691 -1.0233  1.6722  0.0029
 7049SOL    HW221982   1.776   5.135   1.630 -0.2930  0.0913 -1.1236
 7050SOL     OW21983   0.384   7.841   5.461  0.1332  0.1316  0.6256
 7050SOL    HW121984   0.374   7.821   5.368  0.0918  0.0792  0.6417
 7050SOL    HW221985   0.335   7.772   5.506  1.3085 -0.6617  0.7399
 7051SOL     OW21986   4.685   4.208   0.662  0.2532 -0.5424 -0.4228
 7051SOL    HW121987   4.677   4.281   0.601  1.3562  0.3616  0.4701
 7051SOL    HW221988   4.602   4.161   0.655 -0.8309  1.3073 -0.3638
 7052SOL     OW21989   5.175   3.197   7.844 -0.0811 -0.4908 -0.6102
 7052SOL    HW121990   5.250   3.141   7.863 -0.4527 -0.8393 -0.1595
 7052SOL    HW221991   5.179   3.267   7.910  0.8052  0.4622 -1.6130
 7053SOL     OW21992   2.060   0.429   0.849 -0.4148  0.1645  0.3651
 7053SOL    HW121993   2.095   0.502   0.901 -3.2639  1.9576 -0.0281
 7053SOL    HW221994   2.049   0.464   0.761  1.7762 -2.0227 -0.9089
 7054SOL     OW21995   6.832   0.071   2.544  0.6790 -0.3925  0.0686
 7054SOL    HW121996   6.917   0.042   2.577  0.0543 -2.1481  0.2315
 7054SOL    HW221997   6.785   0.101   2.622  1.5574  1.8634 -0.1795
 7055SOL     OW21998   3.456   6.539   7.919 -0.4993 -0.1589  0.3525
 7055SOL    HW121999   3.394   6.587   7.864  0.6687 -0.7896 -1.6316
 7055SOL    HW222000   3.528   6.600   7.933 -0.7867 -0.0074  1.1902
 7056SOL     OW22001   7.133   7.911   2.801 -0.0791 -0.5229  0.1120
 7056SOL    HW122002   7.051   7.960   2.804  0.0747 -0.3128  1.8700
 7056SOL    HW222003   7.119   7.845   2.733 -0.7224  1.1618 -1.4711
 7057SOL     OW22004   4.831   1.437   7.808 -0.0600  0.4106  0.0414
 7057SOL    HW122005   4.916   1.481   7.813  0.0085  0.3683 -0.6532
 7057SOL    HW222006   4.768   1.507   7.794 -0.0252  0.3620 -0.3942
 7058SOL     OW22007   7.135   5.948   6.684 -0.4921  0.1084  0.5180
 7058SOL    HW122008   7.045   5.933   6.711 -0.4668  0.4196  0.7692
 7058SOL    HW222009   7.138   5.917   6.593 -0.9409  0.4450  0.3889
 7059SOL     OW22010   5.860   5.428   4.941  0.0940 -0.2800  0.0398
 7059SOL    HW122011   5.936   5.415   4.884 -1.0847  0.4949 -1.8030
 7059SOL    HW222012   5.834   5.340   4.968 -0.3996 -0.8553 -2.1594
 7060SOL     OW22013   4.229   2.849   6.793  0.3141  0.0989  0.1823
 7060SOL    HW122014   4.317   2.825   6.762  0.0250  1.1815 -1.5969
 7060SOL    HW222015   4.179   2.767   6.786  1.0273 -0.3904  0.6666
 7061SOL     OW22016   1.397   5.435   0.005 -0.2905 -0.1406 -0.2513
 7061SOL    HW122017   1.336   5.455   0.076  0.5191 -1.3250  0.8206
 7061SOL    HW222018   1.484   5.457   0.041  0.0380  0.4188 -1.3336
 7062SOL     OW22019   5.205   6.919   2.615  0.5267  0.2568 -0.5692
 7062SOL    HW122020   5.262   6.863   2.563  1.8658  0.6171  0.4451
 7062SOL    HW222021   5.232   7.008   2.592  1.0750  0.4224  0.6237
 7063SOL     OW22022   1.188   2.423   1.223  0.3154 -0.1343  0.2464
 7063SOL    HW122023   1.280   2.444   1.211  0.9526 -1.5547  2.1331
 7063SOL    HW222024   1.160   2.385   1.140  1.0525  1.4736 -0.7734
 7064SOL     OW22025   1.873   4.885   4.201 -0.3895  0.2142  0.0224
 7064SOL    HW122026   1.953   4.928   4.171 -0.0624 -0.2557  0.2080
 7064SOL    HW222027   1.837   4.945   4.266 -1.3599  1.4633 -1.6169
 7065SOL     OW22028   0.413   7.795   5.188  0.1670  0.7855  0.1309
 7065SOL    HW122029   0.468   7.728   5.148  1.2096  1.9290 -0.4477
 7065SOL    HW222030   0.382   7.848   5.114  0.1567  1.4942  0.6253
 7066SOL     OW22031   4.396   5.941   7.050 -0.4596 -0.8172  0.3551
 7066SOL    HW122032   4.421   6.019   7.099 -1.4883 -1.7362  2.4964
 7066SOL    HW222033   4.312   5.915   7.089 -0.0395 -3.0986 -0.1277
 7067SOL     OW22034   4.442   4.453   0.307  0.2369 -0.8571  0.0323
 7067SOL    HW122035   4.442   4.544   0.277 -0.0900 -1.3210 -1.4913
 7067SOL    HW222036   4.414   4.457   0.398 -0.6273  0.4925 -0.2647
 7068SOL     OW22037   4.040   0.224   3.689  0.5642 -0.4235 -0.0925
 7068SOL    HW122038   4.057   0.294   3.753  2.6013  0.6198 -1.6618
 7068SOL    HW222039   4.089   0.149   3.722  0.8365 -0.1803  0.0618
 7069SOL     OW22040   3.290   0.743   1.091  0.6515 -1.2481 -0.3372
 7069SOL    HW122041   3.359   0.743   1.025  0.5336  0.0118 -0.4917
 7069SOL    HW222042   3.328   0.793   1.164  0.0908 -0.9682 -0.2333
 7070SOL     OW22043   1.088   2.882   2.891 -0.2509  0.3787  0.4274
 7070SOL    HW122044   1.016   2.912   2.946  0.0627  2.7863 -0.3447
 7070SOL    HW222045   1.048   2.865   2.806 -0.0591  0.8161  0.2485
 7071SOL     OW22046   7.254   6.601   4.666 -0.0724  0.4037 -0.1701
 7071SOL    HW122047   7.339   6.566   4.639 -0.4678 -0.0473 -0.8776
 7071SOL    HW222048   7.271   6.646   4.748  0.6025 -0.8461  0.4081
 7072SOL     OW22049   1.245   3.993   4.416 -0.0386 -0.0517  0.0938
 7072SOL    HW122050   1.223   4.086   4.417  2.5824  0.6629 -0.6583
 7072SOL    HW222051   1.316   3.986   4.352  0.1371 -2.4947  0.4743
 7073SOL     OW22052   4.596   6.667   4.037 -0.7026  0.6752 -0.0025
 7073SOL    HW122053   4.689   6.650   4.054 -1.1583 -0.0889  2.0457
 7073SOL    HW222054   4.558   6.680   4.124 -2.7722 -0.3930 -0.6863
 7074SOL     OW22055   6.335   2.517   5.569  0.1603 -0.1445 -0.3074
 7074SOL    HW122056   6.277   2.557   5.634 -0.4028  1.3990 -1.6971
 7074SOL    HW222057   6.423   2.537   5.601  0.0325 -2.5355  1.8358
 7075SOL     OW22058   6.987   1.832   3.005 -0.2931  0.1771  0.6449
 7075SOL    HW122059   6.924   1.803   2.939 -2.7398  0.2094  2.8077
 7075SOL    HW222060   7.071   1.827   2.961 -1.3552 -3.2091 -1.4025
 7076SOL     OW22061   4.189   1.351   2.913 -0.0464 -0.3069  0.0632
 7076SOL    HW122062   4.220   1.375   3.000 -0.6138 -4.5888  1.7111
 7076SOL    HW222063   4.261   1.300   2.876 -0.9500 -1.0849 -0.6665
 7077SOL     OW22064   4.036   3.424   3.798  0.0492 -0.0213 -0.1565
 7077SOL    HW122065   4.052   3.435   3.891  1.6694  2.3492 -0.5933
 7077SOL    HW222066   4.005   3.334   3.788 -1.6371  0.1102  2.7945
 7078SOL     OW22067   3.497   6.634   2.581  0.3754  0.2446  0.3534
 7078SOL    HW122068   3.418   6.660   2.629  0.8842  1.6771  0.4768
 7078SOL    HW222069   3.464   6.592   2.502 -0.4828 -0.9403  1.3107
 7079SOL     OW22070   0.878   7.213   2.803  0.2143 -0.2720 -0.4060
 7079SOL    HW122071   0.950   7.154   2.827 -0.7543 -0.9256  1.0678
 7079SOL    HW222072   0.844   7.245   2.887 -0.0165  1.5234 -1.1396
 7080SOL     OW22073   1.897   5.006   3.812 -0.3182 -0.1643  0.3880
 7080SOL    HW122074   1.931   5.061   3.741 -0.6042 -1.2619 -0.6380
 7080SOL    HW222075   1.905   5.061   3.890 -0.2425  1.1910 -0.5195
 7081SOL     OW22076   7.901   7.261   5.939 -0.3449 -0.0687 -0.0794
 7081SOL    HW122077   7.986   7.220   5.952 -1.7510 -2.9672  0.6518
 7081SOL    HW222078   7.906   7.299   5.851  1.5937 -0.3467 -0.1285
 7082SOL     OW22079   2.019   2.504   6.278 -0.2453  0.4266 -0.0535
 7082SOL    HW122080   2.085   2.566   6.248 -0.3685  0.5282 -0.1120
 7082SOL    HW222081   2.009   2.443   6.205 -0.4978  0.6363 -0.1948
 7083SOL     OW22082   4.226   7.833   1.878 -0.4377 -0.5656 -0.4344
 7083SOL    HW122083   4.315   7.869   1.882 -0.5125 -0.0779 -2.5273
 7083SOL    HW222084   4.210   7.800   1.967  0.5353  2.3423  0.9204
 7084SOL     OW22085   1.427   0.226   4.049  0.5267 -0.1474  0.0973
 7084SOL    HW122086   1.506   0.208   3.998  1.5089  1.1454  1.0829
 7084SOL    HW222087   1.450   0.201   4.139 -0.7611 -1.2506  0.1577
 7085SOL     OW22088   7.673   1.105   3.701  0.3741 -0.1724 -0.3829
 7085SOL    HW122089   7.603   1.150   3.748 -0.5257 -0.6087 -1.2859
 7085SOL    HW222090   7.710   1.173   3.644 -0.9091 -0.5017 -1.6643
 7086SOL     OW22091   3.569   5.613   7.606 -0.0312 -0.3536  0.0605
 7086SOL    HW122092   3.602   5.632   7.518  2.3562  2.4239  1.3861
 7086SOL    HW222093   3.482   5.652   7.607  0.8194  1.6718 -0.4404
 7087SOL     OW22094   6.635   2.478   7.371 -0.1904 -0.3609  0.0797
 7087SOL    HW122095   6.585   2.521   7.301 -0.6721  0.2392  0.7729
 7087SOL    HW222096   6.583   2.402   7.395 -1.1905  0.6700  1.3104
 7088SOL     OW22097   0.384   0.485   5.022  0.0922  0.3457  0.1374
 7088SOL    HW122098   0.369   0.546   4.949  0.9674 -1.2472 -1.4493
 7088SOL    HW222099   0.477   0.492   5.040  0.4439 -1.2757 -0.8400
 7089SOL     OW22100   2.743   4.208   2.220  0.3085 -0.2454  0.3296
 7089SOL    HW122101   2.696   4.169   2.294  0.6837 -1.1264  0.1120
 7089SOL    HW222102   2.715   4.158   2.144 -0.3951  0.9249 -0.2163
 7090SOL     OW22103   4.301   7.354   6.589 -0.5067 -0.2449 -0.2852
 7090SOL    HW122104   4.299   7.333   6.683  0.5222  1.0869  0.0591
 7090SOL    HW222105   4.362   7.291   6.552  0.6430  0.4797  0.3113
 7091SOL     OW22106   5.816   1.948   2.686 -0.0344 -0.1256 -0.1069
 7091SOL    HW122107   5.766   1.869   2.665 -0.3481  0.5500 -2.1022
 7091SOL    HW222108   5.750   2.017   2.693  0.4472  0.4518 -1.0764
 7092SOL     OW22109   6.686   0.577   4.808  0.3904 -0.4987  0.4181
 7092SOL    HW122110   6.674   0.671   4.816 -0.0693 -0.5068 -0.1219
 7092SOL    HW222111   6.694   0.561   4.714  0.6993 -0.9719  0.5204
 7093SOL     OW22112   4.040   7.655   4.295 -0.1984  0.5406 -0.1882
 7093SOL    HW122113   4.036   7.748   4.272  1.8064  0.7153  0.0123
 7093SOL    HW222114   4.131   7.639   4.319 -0.2887 -1.6869 -1.0442
 7094SOL     OW22115   3.659   5.596   7.319 -0.0901  0.1217 -0.4603
 7094SOL    HW122116   3.700   5.678   7.349  0.7823 -0.5799  0.3137
 7094SOL    HW222117   3.612   5.621   7.240  2.1136  0.8975 -1.5993
 7095SOL     OW22118   6.147   3.193   7.705  0.2881  0.7350 -0.1368
 7095SOL    HW122119   6.202   3.120   7.733  0.5675  0.4906 -1.2550
 7095SOL    HW222120   6.097   3.158   7.631  1.5185  2.0793 -1.6881
 7096SOL     OW22121   7.493   2.205   4.176 -0.0501 -0.1032  0.0001
 7096SOL    HW122122   7.407   2.163   4.167  1.1517 -2.9092  0.5568
 7096SOL    HW222123   7.494   2.238   4.266 -1.5228  2.6029 -0.8461
 7097SOL     OW22124   3.347   2.459   6.170 -0.0781 -0.3821  0.4480
 7097SOL    HW122125   3.257   2.449   6.202 -0.0751 -0.7743  0.3456
 7097SOL    HW222126   3.380   2.369   6.165 -0.3750 -0.4239 -1.5498
 7098SOL     OW22127   6.958   6.683   3.221 -0.2135 -0.4961 -0.0950
 7098SOL    HW122128   6.889   6.664   3.283 -0.9636 -1.4074 -1.1702
 7098SOL    HW222129   7.034   6.633   3.252 -0.0353  0.4625  1.0528
 7099SOL     OW22130   6.723   2.987   2.771  0.0034 -0.4457 -0.5143
 7099SOL    HW122131   6.637   3.025   2.787  0.4177 -0.3756  1.9391
 7099SOL    HW222132   6.733   2.989   2.675 -2.5542 -0.1900 -0.8319
 7100SOL     OW22133   3.642   2.745   1.924  0.1454  0.1728  0.0962
 7100SOL    HW122134   3.681   2.673   1.873 -0.4597 -1.4359  1.7732
 7100SOL    HW222135   3.596   2.798   1.860  1.1155 -0.5939 -1.2875
 7101SOL     OW22136   6.199   5.743   5.003 -0.0463 -0.4824  0.3201
 7101SOL    HW122137   6.289   5.712   4.994  0.6796  1.1168  1.6438
 7101SOL    HW222138   6.179   5.732   5.096  0.0490  2.2679  0.7561
 7102SOL     OW22139   6.781   0.365   4.531  0.1155 -0.0639  0.3934
 7102SOL    HW122140   6.798   0.342   4.622  1.8939  1.8915  0.6254
 7102SOL    HW222141   6.865   0.350   4.487 -1.1130 -2.5654 -1.3704
 7103SOL     OW22142   2.303   6.020   3.559 -0.8118 -0.2302  0.4564
 7103SOL    HW122143   2.353   5.952   3.514 -1.9623 -0.7124 -0.1232
 7103SOL    HW222144   2.369   6.074   3.602  0.1980 -0.8514 -0.2898
 7104SOL     OW22145   4.265   2.714   5.926 -0.7731  0.1378 -0.2468
 7104SOL    HW122146   4.260   2.623   5.895 -0.4557  0.2041 -0.4943
 7104SOL    HW222147   4.208   2.763   5.867 -1.7376 -0.0610  0.5016
 7105SOL     OW22148   7.446   6.090   0.545  0.1864  0.0342 -0.7191
 7105SOL    HW122149   7.508   6.052   0.608 -0.2836  1.5213  0.7252
 7105SOL    HW222150   7.378   6.130   0.600  0.7190  3.0356 -2.0517
 7106SOL     OW22151   4.875   2.541   6.975  0.2668 -0.7839  0.6650
 7106SOL    HW122152   4.813   2.604   6.938 -0.2177 -1.7200 -0.1868
 7106SOL    HW222153   4.957   2.590   6.985 -0.0345 -0.0804 -0.1708
 7107SOL     OW22154   2.541   6.853   5.572  0.0593  0.3612  0.0433
 7107SOL    HW122155   2.621   6.905   5.565 -0.0989  0.6030  0.0215
 7107SOL    HW222156   2.570   6.763   5.564  0.3986  0.4215  0.5650
 7108SOL     OW22157   0.238   5.049   2.760  0.4252 -0.2440  0.1334
 7108SOL    HW122158   0.318   5.094   2.732  0.3781 -1.0650 -1.4364
 7108SOL    HW222159   0.167   5.099   2.718  0.2537 -0.6858 -0.1055
 7109SOL     OW22160   1.927   0.192   6.430 -0.5006 -0.4429  0.3569
 7109SOL    HW122161   1.842   0.152   6.414 -1.2465  1.3573 -0.4300
 7109SOL    HW222162   1.984   0.154   6.363 -0.8623 -1.0871  0.4053
 7110SOL     OW22163   2.150   7.625   3.337  0.1590 -0.3443  0.7575
 7110SOL    HW122164   2.073   7.617   3.280  1.0057 -0.6001 -0.3757
 7110SOL    HW222165   2.188   7.537   3.338  1.8465  0.3231 -0.7447
 7111SOL     OW22166   2.167   6.705   0.156 -0.3192 -0.2822 -0.3092
 7111SOL    HW122167   2.140   6.711   0.248  1.3530 -0.1029  0.2094
 7111SOL    HW222168   2.200   6.615   0.147  1.5472  0.3425 -0.1002
 7112SOL     OW22169   7.934   7.129   0.151 -0.1206  0.1816 -0.4319
 7112SOL    HW122170   7.841   7.146   0.134 -0.2651 -1.3259 -1.3076
 7112SOL    HW222171   7.970   7.106   0.065  0.1485 -3.1506  0.4532
 7113SOL     OW22172   5.688   3.677   6.117  0.4098 -0.3067 -0.1991
 7113SOL    HW122173   5.758   3.656   6.179 -0.5489  0.3706  1.1549
 7113SOL    HW222174   5.626   3.605   6.126 -1.4489  1.4152  2.3080
 7114SOL     OW22175   7.725   5.700   5.564  0.4626  0.7808  0.0621
 7114SOL    HW122176   7.632   5.691   5.585  0.8855 -0.6328  1.5694
 7114SOL    HW222177   7.731   5.674   5.473 -0.1717 -3.1446  0.9591
 7115SOL     OW22178   0.693   2.935   2.718  0.3221  0.0778 -0.0901
 7115SOL    HW122179   0.741   2.928   2.636  1.9218  1.7880  0.6181
 7115SOL    HW222180   0.750   2.892   2.783 -0.6630 -0.7752  0.2410
 7116SOL     OW22181   6.098   4.309   4.510  0.3225 -0.2702 -0.7361
 7116SOL    HW122182   6.082   4.400   4.537 -1.5466 -0.5579 -0.7144
 7116SOL    HW222183   6.193   4.300   4.513  0.4568  0.9615  1.6460
 7117SOL     OW22184   6.709   1.739   0.541  0.0554 -0.1892  0.1432
 7117SOL    HW122185   6.726   1.810   0.603 -1.3629  0.1591  0.1745
 7117SOL    HW222186   6.617   1.750   0.516  0.5343 -0.4396 -1.8899
 7118SOL     OW22187   3.109   0.555   7.099  0.1114 -0.1793  0.0118
 7118SOL    HW122188   3.092   0.506   7.018 -2.8856  1.2149 -0.3781
 7118SOL    HW222189   3.075   0.499   7.168  0.5148 -0.4014  0.0276
 7119SOL     OW22190   6.023   3.558   1.075  1.0275  1.3207  0.2055
 7119SOL    HW122191   6.039   3.590   1.164  1.7377  0.7363  0.2958
 7119SOL    HW222192   5.950   3.611   1.043  1.1080  1.8904  0.9488
 7120SOL     OW22193   1.251   0.889   4.764 -0.2712 -0.0505 -1.1707
 7120SOL    HW122194   1.195   0.967   4.756  1.1588  1.0158 -1.2497
 7120SOL    HW222195   1.285   0.893   4.853  0.4525 -0.1300 -1.4382
 7121SOL     OW22196   0.341   0.210   2.113 -0.6997  0.2014 -0.1165
 7121SOL    HW122197   0.311   0.124   2.141 -0.1357 -0.7796 -2.2622
 7121SOL    HW222198   0.433   0.214   2.141 -0.9509  0.4513  0.6836
 7122SOL     OW22199   1.786   0.313   7.536 -0.4378 -0.4713  0.6276
 7122SOL    HW122200   1.750   0.273   7.614 -2.0919 -1.3133 -0.5197
 7122SOL    HW222201   1.775   0.407   7.549 -1.5142 -0.6482  1.0209
 7123SOL     OW22202   1.118   6.803   3.200  0.6295 -0.8025 -0.3427
 7123SOL    HW122203   1.160   6.787   3.285  0.3927 -0.4295 -0.1568
 7123SOL    HW222204   1.191   6.802   3.138  0.7830 -1.2600 -0.1639
 7124SOL     OW22205   4.153   2.480   7.603 -0.2501 -0.0573  0.2985
 7124SOL    HW122206   4.208   2.431   7.542 -2.2353  0.4736 -2.0442
 7124SOL    HW222207   4.105   2.413   7.652  0.3623 -0.4633  0.3579
 7125SOL     OW22208   2.560   1.667   6.834 -0.1899  0.4587  0.0407
 7125SOL    HW122209   2.500   1.687   6.763  1.6195  3.1766 -0.8749
 7125SOL    HW222210   2.607   1.589   6.805 -2.5683 -1.1872  0.3955
 7126SOL     OW22211   6.993   2.412   7.904  0.0647 -0.1725  0.4552
 7126SOL    HW122212   7.085   2.436   7.918  0.0580  0.4034 -0.4252
 7126SOL    HW222213   6.984   2.408   7.809 -1.0589  0.7508  0.4990
 7127SOL     OW22214   5.905   2.055   5.293 -0.1653  0.5168 -0.1368
 7127SOL    HW122215   5.991   2.033   5.257  0.1146  0.5494  0.5044
 7127SOL    HW222216   5.856   2.088   5.217 -0.3379 -1.4949 -0.9623
 7128SOL     OW22217   3.014   3.134   2.606  0.2460 -0.6122 -0.4677
 7128SOL    HW122218   3.079   3.064   2.596  1.1377  0.1278  0.0128
 7128SOL    HW222219   3.052   3.193   2.671 -0.4821  0.3241 -0.8646
 7129SOL     OW22220   7.793   3.304   3.484  0.0876  0.2762  0.2775
 7129SOL    HW122221   7.880   3.319   3.446  0.8098 -0.9845  1.3291
 7129SOL    HW222222   7.754   3.237   3.427 -0.5572  1.4193 -0.6714
 7130SOL     OW22223   3.926   6.686   1.765 -0.6140  0.5165 -0.0158
 7130SOL    HW122224   3.876   6.757   1.725 -0.9135 -0.9294 -2.3965
 7130SOL    HW222225   4.006   6.729   1.798 -0.9459  2.0078 -1.0425
 7131SOL     OW22226   3.083   6.788   1.975  0.2934  0.3326 -0.2063
 7131SOL    HW122227   3.082   6.764   1.883  1.0479  0.5260 -0.2691
 7131SOL    HW222228   3.055   6.709   2.021  1.0049 -0.1089 -0.5297
 7132SOL     OW22229   7.310   0.152   3.344 -0.0448  0.1108  0.6550
 7132SOL    HW122230   7.271   0.066   3.363  0.8641  0.3493  4.3238
 7132SOL    HW222231   7.247   0.215   3.378 -0.1524  0.9202 -0.9397
 7133SOL     OW22232   2.865   4.003   5.671  0.0619 -0.3446 -0.1108
 7133SOL    HW122233   2.917   4.076   5.705 -1.3485  1.1715 -1.0655
 7133SOL    HW222234   2.849   4.025   5.580 -1.6949 -1.0740 -0.0169
 7134SOL     OW22235   1.882   3.143   5.952  0.1206  0.0307  0.3652
 7134SOL    HW122236   1.821   3.183   5.890 -2.6337 -3.1795  0.7307
 7134SOL    HW222237   1.939   3.088   5.898 -2.6897 -3.2724  0.4692
 7135SOL     OW22238   1.281   7.457   0.390 -0.2030  0.3930  0.6987
 7135SOL    HW122239   1.191   7.482   0.368  0.5861  2.1470 -0.7830
 7135SOL    HW222240   1.327   7.540   0.399  1.3820 -0.4906  0.9867
 7136SOL     OW22241   5.759   3.648   1.810  0.3664 -0.0938  0.6500
 7136SOL    HW122242   5.829   3.594   1.771 -1.7193 -1.1542 -1.9611
 7136SOL    HW222243   5.747   3.612   1.898  0.7780 -2.2564 -0.1103
 7137SOL     OW22244   3.277   7.394   5.190 -0.0749 -0.6556  0.0503
 7137SOL    HW122245   3.363   7.353   5.181 -0.0095 -0.5705  0.3014
 7137SOL    HW222246   3.287   7.458   5.260 -0.6109 -1.3503  0.7835
 7138SOL     OW22247   4.850   6.034   3.267 -0.0735 -0.0366 -0.3783
 7138SOL    HW122248   4.830   6.081   3.348  0.9571  1.5412 -0.9717
 7138SOL    HW222249   4.918   5.971   3.291  1.0163  1.1644 -0.1768
 7139SOL     OW22250   0.982   6.720   2.213 -0.0285 -0.8387 -0.0554
 7139SOL    HW122251   0.936   6.689   2.291 -2.7188  2.0869 -0.2307
 7139SOL    HW222252   0.916   6.716   2.144  1.6837 -1.4380 -1.7241
 7140SOL     OW22253   1.745   5.692   2.003 -0.8222  0.4027 -0.6319
 7140SOL    HW122254   1.821   5.650   2.042 -1.4514  0.6534  0.9217
 7140SOL    HW222255   1.782   5.764   1.952 -0.0422  1.4282  1.2594
 7141SOL     OW22256   6.714   6.607   1.053 -0.4341 -0.0943  0.0251
 7141SOL    HW122257   6.704   6.663   0.975  1.1768  0.7303  0.3505
 7141SOL    HW222258   6.787   6.549   1.031 -1.1947 -1.1519  0.2311
 7142SOL     OW22259   2.138   6.357   1.235 -0.3217  0.3131  0.0787
 7142SOL    HW122260   2.073   6.310   1.184 -0.1293 -0.6135  0.6645
 7142SOL    HW222261   2.205   6.292   1.255 -0.5111  0.5743  1.7047
 7143SOL     OW22262   6.188   5.417   4.519 -0.0733 -0.9405 -0.0201
 7143SOL    HW122263   6.183   5.491   4.458  1.5914 -0.8425 -0.0964
 7143SOL    HW222264   6.265   5.367   4.490  1.0266 -0.6839  2.1825
 7144SOL     OW22265   7.705   2.222   3.597  0.7580 -0.1922  0.0905
 7144SOL    HW122266   7.665   2.140   3.568  0.3064 -0.1428  0.5585
 7144SOL    HW222267   7.665   2.239   3.682 -1.0896  1.8725 -1.1006
 7145SOL     OW22268   7.846   3.214   4.290 -0.3898  0.3053 -0.2183
 7145SOL    HW122269   7.931   3.192   4.328 -0.4282 -0.2870 -0.4529
 7145SOL    HW222270   7.833   3.147   4.223 -0.5361  1.0554 -0.9486
 7146SOL     OW22271   1.869   3.564   5.531  0.2415 -0.7972 -0.3094
 7146SOL    HW122272   1.956   3.602   5.521  0.2155 -0.5769  0.2246
 7146SOL    HW222273   1.840   3.545   5.442  0.2173  0.5272 -0.6030
 7147SOL     OW22274   7.836   6.433   5.808  0.1770 -0.4491 -0.0513
 7147SOL    HW122275   7.780   6.508   5.828 -0.9718 -1.1054 -0.6808
 7147SOL    HW222276   7.783   6.379   5.749  0.6032 -2.2042  1.0914
 7148SOL     OW22277   7.654   3.569   5.956 -0.3232 -0.1953 -0.3023
 7148SOL    HW122278   7.722   3.636   5.966 -1.2160  0.6432  0.4058
 7148SOL    HW222279   7.698   3.487   5.975  0.6574  0.2555 -0.5595
 7149SOL     OW22280   3.750   5.595   4.709 -0.6868 -0.1064 -0.2939
 7149SOL    HW122281   3.662   5.630   4.695 -1.0070 -1.4576 -1.9891
 7149SOL    HW222282   3.739   5.500   4.709  0.3417 -0.3235  2.8148
 7150SOL     OW22283   3.977   1.541   5.776  0.6256 -0.7744 -0.0224
 7150SOL    HW122284   4.038   1.499   5.836  1.7912 -0.4770 -0.9638
 7150SOL    HW222285   3.891   1.527   5.816  1.4032 -0.0762  1.9937
 7151SOL     OW22286   2.626   3.198   3.345  0.5661  0.1520 -0.0795
 7151SOL    HW122287   2.616   3.261   3.274  0.2283  2.0672  1.5585
 7151SOL    HW222288   2.717   3.168   3.339  1.5259  2.6997  0.4981
 7152SOL     OW22289   5.227   5.560   2.432  0.3406  0.1782  0.3885
 7152SOL    HW122290   5.192   5.599   2.352  1.4968  0.3797 -0.0376
 7152SOL    HW222291   5.154   5.563   2.493 -0.9482 -1.0823 -1.0058
 7153SOL     OW22292   1.133   1.887   3.591  0.3986 -0.6370  0.3234
 7153SOL    HW122293   1.139   1.972   3.634  0.6243 -1.0288  1.1007
 7153SOL    HW222294   1.225   1.861   3.578  0.3303 -0.6992 -0.0393
 7154SOL     OW22295   0.025   5.760   6.892 -0.6728  0.4227  0.0105
 7154SOL    HW122296   0.102   5.726   6.848  0.0839  0.0774  1.5177
 7154SOL    HW222297  -0.027   5.801   6.823  0.3814 -0.2007 -1.1847
 7155SOL     OW22298   5.762   4.456   1.213 -0.0440 -0.1378 -0.2747
 7155SOL    HW122299   5.720   4.397   1.276 -0.6586  1.9059  1.3411
 7155SOL    HW222300   5.689   4.500   1.169  0.3915  0.3347 -0.5368
 7156SOL     OW22301   0.154   7.875   3.820  0.4380 -0.5156  0.5092
 7156SOL    HW122302   0.127   7.784   3.835  0.3273 -0.4032  0.9952
 7156SOL    HW222303   0.202   7.871   3.737 -0.0402 -0.9197  0.2391
 7157SOL     OW22304   1.624   3.497   2.217  0.3205  0.3638 -0.2782
 7157SOL    HW122305   1.546   3.494   2.273  1.1475 -1.4288  0.8558
 7157SOL    HW222306   1.661   3.584   2.231 -0.3773  0.5160  0.7283
 7158SOL     OW22307   0.440   6.140   3.782  0.4343 -0.2451  0.3070
 7158SOL    HW122308   0.440   6.129   3.877  0.2324  0.3315  0.3732
 7158SOL    HW222309   0.416   6.231   3.768 -2.1611 -0.9694 -0.3845
 7159SOL     OW22310   4.916   0.898   4.519 -0.3152 -0.1200 -0.2058
 7159SOL    HW122311   4.823   0.913   4.499 -0.1551 -1.7481 -2.6730
 7159SOL    HW222312   4.957   0.985   4.510 -1.1716  0.1444 -2.1604
 7160SOL     OW22313   6.514   4.861   7.038 -0.3720 -0.0124 -0.3209
 7160SOL    HW122314   6.500   4.956   7.041  0.9969  0.2436 -1.0913
 7160SOL    HW222315   6.427   4.825   7.022 -0.8368  1.1481 -0.5337
 7161SOL     OW22316   4.330   2.961   3.314 -0.0227 -0.1053  0.6276
 7161SOL    HW122317   4.359   2.888   3.368  0.6596  0.2002  0.6791
 7161SOL    HW222318   4.410   3.007   3.291 -0.1625 -0.8630 -1.5984
 7162SOL     OW22319   7.830   7.737   7.516  0.7441  0.2736 -0.1547
 7162SOL    HW122320   7.870   7.772   7.596  1.7720  0.7419 -0.8585
 7162SOL    HW222321   7.871   7.652   7.504  0.2005 -0.0281  0.0939
 7163SOL     OW22322   2.853   3.670   4.421  0.1100 -0.4795 -0.0820
 7163SOL    HW122323   2.913   3.622   4.480 -0.4212 -0.3887  0.5432
 7163SOL    HW222324   2.907   3.692   4.345  0.8038 -0.6296  0.3564
 7164SOL     OW22325   3.016   1.114   2.470 -0.1985 -0.1869  0.4434
 7164SOL    HW122326   3.081   1.175   2.504  0.4893 -1.0464  0.7105
 7164SOL    HW222327   3.051   1.027   2.491 -0.3274 -0.7302 -1.3486
 7165SOL     OW22328   0.018   2.163   4.353  0.1183  0.2570  0.2526
 7165SOL    HW122329   0.063   2.079   4.346 -1.5770 -0.5936 -1.3405
 7165SOL    HW222330   0.035   2.207   4.270  1.3932  1.7805  1.2493
 7166SOL     OW22331   3.188   2.072   0.521  0.3136  0.0755  0.4997
 7166SOL    HW122332   3.165   1.980   0.529 -0.2974 -0.0780 -2.2387
 7166SOL    HW222333   3.133   2.116   0.586  0.0448 -1.3825  1.2969
 7167SOL     OW22334   6.913   3.085   3.908 -0.0431 -0.0873  0.6402
 7167SOL    HW122335   6.939   2.994   3.926  0.2808  0.1172  1.2372
 7167SOL    HW222336   6.982   3.138   3.949  0.7318  0.4159 -1.2387
 7168SOL     OW22337   6.439   6.884   4.121  0.2681  0.1658 -0.3355
 7168SOL    HW122338   6.531   6.886   4.095  0.1922  0.2967 -0.5950
 7168SOL    HW222339   6.404   6.805   4.079 -0.0080  0.7170 -1.1477
 7169SOL     OW22340   7.563   3.344   0.492  0.0148  0.3003  0.2156
 7169SOL    HW122341   7.488   3.377   0.442 -0.0054 -0.6357 -0.3925
 7169SOL    HW222342   7.621   3.420   0.501 -1.8010  1.5382  2.3063
 7170SOL     OW22343   5.915   7.587   5.693 -0.2700  0.7533 -0.4925
 7170SOL    HW122344   5.920   7.623   5.781  1.9711 -0.9977  0.2242
 7170SOL    HW222345   5.929   7.662   5.635  1.1355  1.5444  0.7874
 7171SOL     OW22346   1.440   0.693   6.396 -0.1635  0.1133  0.2880
 7171SOL    HW122347   1.444   0.710   6.490  1.3487 -0.6654  0.4018
 7171SOL    HW222348   1.351   0.718   6.371 -0.5928  0.3527  1.9121
 7172SOL     OW22349   3.132   3.614   2.153  0.1514 -0.6814  0.4956
 7172SOL    HW122350   3.113   3.704   2.181  0.8080 -0.0158 -1.0506
 7172SOL    HW222351   3.052   3.566   2.172 -0.5293  0.4344  0.5838
 7173SOL     OW22352   6.059   4.769   0.581 -0.9478 -0.1983  0.0392
 7173SOL    HW122353   6.103   4.700   0.532  2.6431  0.6789  1.7329
 7173SOL    HW222354   6.073   4.848   0.529 -2.4624 -0.1981 -0.4234
 7174SOL     OW22355   6.826   3.306   3.760 -0.0684 -0.6121  0.5747
 7174SOL    HW122356   6.864   3.234   3.809 -0.9329 -1.3536  0.1784
 7174SOL    HW222357   6.801   3.267   3.676 -1.1144 -0.0073  0.5901
 7175SOL     OW22358   0.255   1.035   6.281  0.7762 -0.7324  0.0112
 7175SOL    HW122359   0.305   1.116   6.270 -0.0962 -0.1394  0.2647
 7175SOL    HW222360   0.319   0.971   6.312  1.2352  0.1897  1.0311
 7176SOL     OW22361   2.514   4.776   0.887 -0.1040  0.0869 -0.1357
 7176SOL    HW122362   2.583   4.775   0.954  0.9738  0.6286 -1.2096
 7176SOL    HW222363   2.473   4.862   0.896 -0.2946 -0.0354  0.1621
 7177SOL     OW22364   0.498   4.540   5.032  0.1799  0.0455  0.4593
 7177SOL    HW122365   0.577   4.540   4.979  0.1046  0.0126  0.3466
 7177SOL    HW222366   0.445   4.611   4.996  0.4696  0.5508  1.0031
 7178SOL     OW22367   1.718   4.193   4.261  0.6253 -0.2538 -0.2491
 7178SOL    HW122368   1.748   4.128   4.324 -0.9339 -1.2346 -0.4646
 7178SOL    HW222369   1.793   4.251   4.248  1.6043 -1.1954  0.9919
 7179SOL     OW22370   0.772   6.091   1.643 -0.2794  0.4441  0.0528
 7179SOL    HW122371   0.839   6.049   1.696  0.8348  0.8207 -1.0013
 7179SOL    HW222372   0.815   6.169   1.607 -1.2543  0.6460 -0.7319
 7180SOL     OW22373   5.202   5.912   5.477 -0.3381 -0.3862  0.2262
 7180SOL    HW122374   5.157   5.914   5.561 -1.7214 -1.4121 -0.4470
 7180SOL    HW222375   5.278   5.969   5.489 -2.3414  2.3025  1.1212
 7181SOL     OW22376   2.273   4.339   4.723 -0.4736  0.6599 -0.0127
 7181SOL    HW122377   2.323   4.404   4.674 -0.4232  0.7718  0.1857
 7181SOL    HW222378   2.235   4.388   4.796 -0.6356  0.5166  0.0015
 7182SOL     OW22379   5.878   7.791   1.437  0.3294  0.1684  0.2182
 7182SOL    HW122380   5.946   7.724   1.448 -0.9929 -0.9147  2.4495
 7182SOL    HW222381   5.834   7.795   1.522 -2.2723  0.9774 -1.0582
 7183SOL     OW22382   4.585   6.462   0.049  0.3956  0.3771  0.4789
 7183SOL    HW122383   4.494   6.471   0.020  0.3977 -0.8203  0.0530
 7183SOL    HW222384   4.627   6.544   0.023 -0.7058  1.2296  1.2943
 7184SOL     OW22385   6.400   3.091   3.874 -0.3627  0.5152 -0.5608
 7184SOL    HW122386   6.488   3.107   3.908 -0.2292 -0.3057 -0.5073
 7184SOL    HW222387   6.384   2.998   3.890 -1.0673  0.5557 -0.9741
 7185SOL     OW22388   7.609   1.935   6.758  0.2475 -0.0677  0.3355
 7185SOL    HW122389   7.522   1.955   6.724  0.0529  0.3758  1.0764
 7185SOL    HW222390   7.665   1.931   6.680 -0.3884 -0.1308 -0.1230
 7186SOL     OW22391   6.142   5.400   0.626  0.2743  0.4549  0.1906
 7186SOL    HW122392   6.053   5.414   0.660 -0.7936  0.5183 -2.3578
 7186SOL    HW222393   6.191   5.477   0.652 -0.6976  0.8641  0.8519
 7187SOL     OW22394   0.557   2.251   1.729  1.2930 -0.1934  0.6449
 7187SOL    HW122395   0.555   2.175   1.671  1.9583  0.8200 -0.7683
 7187SOL    HW222396   0.647   2.255   1.761  1.8072  1.0809 -0.8459
 7188SOL     OW22397   1.194   3.177   1.201 -0.1563 -0.4248  0.3757
 7188SOL    HW122398   1.283   3.184   1.236  0.6382  3.1594 -1.7787
 7188SOL    HW222399   1.191   3.092   1.157  2.2058 -0.6416  0.5242
 7189SOL     OW22400   1.079   0.488   0.303 -0.2037 -0.3041  0.3724
 7189SOL    HW122401   1.105   0.561   0.246  1.0468  0.3779  1.7417
 7189SOL    HW222402   1.088   0.411   0.248  3.9965 -0.0384  0.3377
 7190SOL     OW22403   7.903   1.868   2.548  0.3307 -0.4528 -0.0355
 7190SOL    HW122404   7.955   1.936   2.593 -1.3366  0.2517  0.9273
 7190SOL    HW222405   7.822   1.913   2.524  0.2592 -1.4398 -1.7916
 7191SOL     OW22406   2.244   0.545   7.579 -0.4198 -0.2081 -0.0998
 7191SOL    HW122407   2.172   0.574   7.524 -0.3311  0.8247  0.3061
 7191SOL    HW222408   2.314   0.610   7.563  0.3105 -1.0120 -0.2529
 7192SOL     OW22409   3.940   4.280   3.117 -0.1538  0.2060 -0.0900
 7192SOL    HW122410   4.035   4.270   3.113 -0.2845 -1.0421 -0.4985
 7192SOL    HW222411   3.915   4.302   3.027 -0.3523 -0.7138 -0.2780
 7193SOL     OW22412   3.541   2.675   2.652  0.5141  0.1829 -0.9425
 7193SOL    HW122413   3.554   2.594   2.701  2.3188  1.0198  0.0358
 7193SOL    HW222414   3.620   2.726   2.669 -1.0002  2.5694 -0.7529
 7194SOL     OW22415   2.943   0.705   5.517 -1.1062  0.0887 -0.2401
 7194SOL    HW122416   3.000   0.705   5.440  1.4323 -0.9070  1.5254
 7194SOL    HW222417   2.918   0.614   5.528 -2.7439  0.4500 -0.7218
 7195SOL     OW22418   2.470   2.189   7.240 -0.5892 -0.2594  0.3521
 7195SOL    HW122419   2.511   2.175   7.326  0.0707 -1.6471 -0.1562
 7195SOL    HW222420   2.418   2.110   7.226  0.1752 -0.5568 -0.9868
 7196SOL     OW22421   5.700   5.873   1.046 -0.1118 -0.2472 -0.1631
 7196SOL    HW122422   5.677   5.780   1.042  2.7579 -1.0101 -0.8407
 7196SOL    HW222423   5.669   5.908   0.962  0.3745 -1.0140 -0.6809
 7197SOL     OW22424   2.324   1.946   4.749 -0.8382 -0.7685 -0.6731
 7197SOL    HW122425   2.327   1.890   4.671  1.2350 -0.8356 -0.6134
 7197SOL    HW222426   2.401   1.920   4.800 -1.1082  0.5677  0.4884
 7198SOL     OW22427   7.147   3.982   7.494 -0.4440  0.1601 -0.4282
 7198SOL    HW122428   7.100   4.003   7.413 -0.0534  0.5443 -0.5605
 7198SOL    HW222429   7.181   3.893   7.480 -0.4556  0.1899 -0.6508
 7199SOL     OW22430   0.490   0.866   0.176 -0.0601 -0.1066  0.7056
 7199SOL    HW122431   0.466   0.938   0.118  1.3767 -1.4801 -1.8322
 7199SOL    HW222432   0.419   0.802   0.166  0.3556 -0.4942  0.0901
 7200SOL     OW22433   0.577   6.166   6.879  0.1501  0.3079  0.1440
 7200SOL    HW122434   0.644   6.138   6.817  0.1607 -0.9292  0.6803
 7200SOL    HW222435   0.505   6.197   6.825  0.5318  0.1544 -0.4625
 7201SOL     OW22436   7.584   3.613   2.877 -0.1967  0.1399 -0.2359
 7201SOL    HW122437   7.514   3.548   2.881  0.2042 -0.2619  0.3765
 7201SOL    HW222438   7.635   3.599   2.957  1.0271 -0.0710 -1.0143
 7202SOL     OW22439   3.877   3.663   0.155 -0.1607 -0.1804  0.9045
 7202SOL    HW122440   3.886   3.589   0.215 -4.2923 -1.0282  0.7210
 7202SOL    HW222441   3.789   3.696   0.170 -0.6054  0.9660 -3.1693
 7203SOL     OW22442   6.056   4.209   6.529  0.1297  0.0633  0.0588
 7203SOL    HW122443   5.997   4.276   6.492  1.8595  0.8987 -1.3266
 7203SOL    HW222444   6.033   4.129   6.481 -1.3149 -0.1828  1.0734
 7204SOL     OW22445   6.191   4.231   5.980 -0.4849 -0.4855 -0.0127
 7204SOL    HW122446   6.207   4.277   5.897  4.0847 -0.2552  0.7915
 7204SOL    HW222447   6.136   4.291   6.030  0.0910  1.2434 -1.3527
 7205SOL     OW22448   6.991   7.393   1.850  0.1305  0.4717 -0.1652
 7205SOL    HW122449   7.003   7.479   1.889 -1.8585  0.2297  1.0572
 7205SOL    HW222450   6.952   7.410   1.764 -1.0844  0.7854  0.4321
 7206SOL     OW22451   6.775   0.118   7.366 -0.4212 -0.3378 -0.4477
 7206SOL    HW122452   6.682   0.098   7.358 -0.8878  0.9235  1.2065
 7206SOL    HW222453   6.803   0.136   7.276 -1.4901 -1.7507 -1.1094
 7207SOL     OW22454   1.159   4.511   7.244  0.2506 -0.0307 -0.5665
 7207SOL    HW122455   1.151   4.431   7.191  1.2280 -0.0044 -0.7621
 7207SOL    HW222456   1.140   4.482   7.333  1.2035 -0.6136 -0.5448
 7208SOL     OW22457   5.030   3.277   2.012 -0.1309 -0.0283  0.3263
 7208SOL    HW122458   5.120   3.298   2.036  0.4661 -0.6852 -1.2097
 7208SOL    HW222459   4.992   3.361   1.985 -0.6228  0.6108  2.7047
 7209SOL     OW22460   7.484   5.646   1.554 -0.3840 -0.6963  0.0979
 7209SOL    HW122461   7.456   5.702   1.626 -1.4100 -1.0870  0.0207
 7209SOL    HW222462   7.552   5.696   1.509 -1.8424  0.8622 -0.4793
 7210SOL     OW22463   6.175   7.810   1.139  0.1138 -0.0265 -0.4786
 7210SOL    HW122464   6.138   7.724   1.116  0.6530 -0.3845 -0.0324
 7210SOL    HW222465   6.098   7.866   1.152 -0.2632 -0.5927 -0.1999
 7211SOL     OW22466   6.559   1.432   6.643 -0.3904 -0.2757 -0.0176
 7211SOL    HW122467   6.511   1.361   6.601 -1.8133  0.4148  0.3797
 7211SOL    HW222468   6.637   1.445   6.588 -0.3151 -1.8434 -0.3154
 7212SOL     OW22469   3.259   2.535   3.535 -0.0512  0.1551 -0.6799
 7212SOL    HW122470   3.197   2.466   3.513 -0.3549  0.3003 -0.2959
 7212SOL    HW222471   3.208   2.597   3.586  1.0486 -1.1588  2.2489
 7213SOL     OW22472   6.516   3.238   0.350 -0.8484 -0.4436  0.4238
 7213SOL    HW122473   6.546   3.278   0.432  1.9510 -2.6711  0.6139
 7213SOL    HW222474   6.545   3.299   0.282  1.7490 -1.1643  0.8132
 7214SOL     OW22475   6.785   7.322   6.906  0.2185 -0.4290  0.0758
 7214SOL    HW122476   6.764   7.304   6.814  2.6991 -2.9118 -0.1359
 7214SOL    HW222477   6.850   7.392   6.902  1.5733 -1.6625 -0.2504
 7215SOL     OW22478   0.628   4.664   4.485 -0.2919 -0.2358  0.0012
 7215SOL    HW122479   0.649   4.619   4.402  1.3131 -2.3419  1.4388
 7215SOL    HW222480   0.565   4.605   4.528 -1.8973  1.3380 -0.0838
 7216SOL     OW22481   4.676   4.082   5.103  0.1415  0.3684  0.2882
 7216SOL    HW122482   4.591   4.037   5.102  0.6306 -0.7120  2.2547
 7216SOL    HW222483   4.725   4.042   5.031 -0.4387 -0.2039  0.1973
 7217SOL     OW22484   0.716   7.777   0.399  0.8051  0.0019 -0.4264
 7217SOL    HW122485   0.732   7.852   0.456 -1.2664 -1.1806  1.8952
 7217SOL    HW222486   0.753   7.702   0.446  0.0576 -0.8765 -1.1951
 7218SOL     OW22487   6.669   7.337   4.619  0.0591  0.6698 -0.2616
 7218SOL    HW122488   6.685   7.244   4.601 -0.2177  0.4542  0.5566
 7218SOL    HW222489   6.668   7.343   4.714 -2.0191  1.1128 -0.2614
 7219SOL     OW22490   2.139   5.473   0.129 -0.5460  0.5515  0.1348
 7219SOL    HW122491   2.098   5.466   0.216 -0.5790  3.2519  0.4111
 7219SOL    HW222492   2.174   5.562   0.126  0.7159  0.0546 -2.1184
 7220SOL     OW22493   0.261   7.037   5.748 -0.0618  0.7930 -0.1469
 7220SOL    HW122494   0.239   6.959   5.799 -0.7449  1.3673  0.4460
 7220SOL    HW222495   0.190   7.044   5.684 -0.2503  1.1839  0.1013
 7221SOL     OW22496   3.230   6.022   2.502  0.2144  0.0009  0.4778
 7221SOL    HW122497   3.316   5.998   2.536  0.2179 -0.1416  0.3663
 7221SOL    HW222498   3.237   6.116   2.484  1.0026 -0.3822 -1.4850
 7222SOL     OW22499   5.303   1.032   2.662 -0.0504  0.1087  0.4050
 7222SOL    HW122500   5.322   0.977   2.585 -0.4646  0.0621  0.3318
 7222SOL    HW222501   5.207   1.029   2.670 -0.2369  2.1351 -0.5821
 7223SOL     OW22502   6.430   3.831   7.468 -0.0374 -0.0635 -0.1515
 7223SOL    HW122503   6.475   3.867   7.391  0.4334 -1.6932 -0.6767
 7223SOL    HW222504   6.354   3.888   7.480  0.7763  1.2111 -0.8046
 7224SOL     OW22505   1.155   4.198   0.588  0.0058 -0.2873 -0.8404
 7224SOL    HW122506   1.136   4.281   0.630  0.6652 -0.5194 -0.0623
 7224SOL    HW222507   1.143   4.215   0.494  1.2623  1.0097 -0.8094
 7225SOL     OW22508   7.941   0.022   2.558 -0.0905  0.5681 -0.0543
 7225SOL    HW122509   8.007   0.085   2.529  0.9916 -0.2583  0.5310
 7225SOL    HW222510   7.969  -0.004   2.645  1.8137 -3.6640 -1.6426
 7226SOL     OW22511   2.227   0.370   5.950  0.0821 -0.2402  0.2966
 7226SOL    HW122512   2.307   0.377   6.002  1.2711  0.2882 -1.5428
 7226SOL    HW222513   2.201   0.461   5.933 -0.2484 -0.4059 -0.1036
 7227SOL     OW22514   4.160   1.787   1.668 -0.0623 -0.2753 -0.1516
 7227SOL    HW122515   4.114   1.801   1.750  0.0145  1.2851 -0.3346
 7227SOL    HW222516   4.138   1.697   1.643 -1.6149 -0.1503  0.6175
 7228SOL     OW22517   4.918   7.420   6.947 -0.3162 -0.3456  0.6349
 7228SOL    HW122518   4.831   7.455   6.966 -0.7829 -1.4159  0.5682
 7228SOL    HW222519   4.912   7.328   6.972  0.7398 -0.4769  0.4355
 7229SOL     OW22520   4.469   5.960   0.392 -0.5338 -0.3146 -1.1103
 7229SOL    HW122521   4.499   5.874   0.362 -2.3702 -1.0753 -0.8760
 7229SOL    HW222522   4.429   5.944   0.478  1.3320  1.2231  0.1395
 7230SOL     OW22523   3.385   1.257   5.152 -0.1449  0.0714 -0.3326
 7230SOL    HW122524   3.302   1.238   5.107 -1.2580  2.0808  0.7053
 7230SOL    HW222525   3.376   1.214   5.237 -1.4596  2.5623  0.9109
 7231SOL     OW22526   4.580   0.408   7.384 -0.2849  0.5717  0.3319
 7231SOL    HW122527   4.574   0.419   7.479 -0.4905 -0.0072  0.3901
 7231SOL    HW222528   4.615   0.320   7.372  1.0370  1.1167 -0.1200
 7232SOL     OW22529   4.220   2.214   0.291  0.1985  0.3992 -0.0097
 7232SOL    HW122530   4.283   2.240   0.223 -0.4730  1.6470 -0.1819
 7232SOL    HW222531   4.135   2.223   0.249 -0.1381 -0.8445  0.3639
 7233SOL     OW22532   0.683   3.208   7.559  0.0604 -0.5153 -0.1045
 7233SOL    HW122533   0.683   3.148   7.634 -1.5729  0.5983  0.8594
 7233SOL    HW222534   0.596   3.249   7.562  0.8680  1.3720 -1.1298
 7234SOL     OW22535   2.710   5.836   5.686 -0.0805  0.3579  0.3654
 7234SOL    HW122536   2.690   5.827   5.780  2.0372 -0.1213  0.8337
 7234SOL    HW222537   2.797   5.878   5.685 -0.0975  0.3900 -1.3998
 7235SOL     OW22538   1.435   3.797   2.550 -0.4525 -0.0269  0.2132
 7235SOL    HW122539   1.508   3.848   2.584 -0.4137 -0.4187  0.7273
 7235SOL    HW222540   1.386   3.770   2.628 -0.3321 -0.9751 -0.0211
 7236SOL     OW22541   1.200   6.772   7.780 -0.7707  0.3649  0.0139
 7236SOL    HW122542   1.131   6.789   7.844 -0.2872  0.7312  0.4455
 7236SOL    HW222543   1.263   6.717   7.827 -0.4535  0.5720 -0.1677
 7237SOL     OW22544   5.164   4.731   6.049 -0.1860 -0.8006  0.4603
 7237SOL    HW122545   5.224   4.704   5.980 -0.4224 -2.5267  0.8830
 7237SOL    HW222546   5.086   4.762   6.003  0.4427  0.0805 -0.0546
 7238SOL     OW22547   1.164   2.143   5.805  0.5044 -0.3463 -0.0387
 7238SOL    HW122548   1.246   2.140   5.754  0.9973  0.7581  0.6626
 7238SOL    HW222549   1.119   2.062   5.781  2.0209 -1.2264 -0.0707
 7239SOL     OW22550   7.123   2.526   6.786  0.0470 -0.5137 -0.1141
 7239SOL    HW122551   7.146   2.610   6.824 -0.3217  0.3952 -1.7898
 7239SOL    HW222552   7.193   2.508   6.723  0.0832 -1.4409  0.1695
 7240SOL     OW22553   6.067   0.977   2.617  0.0621 -0.0336  0.3396
 7240SOL    HW122554   6.006   1.016   2.679  0.9545 -0.7881  1.7239
 7240SOL    HW222555   6.080   0.888   2.648  0.6885 -0.3772 -0.8234
 7241SOL     OW22556   3.994   1.420   1.383 -0.0569 -0.7393  0.5496
 7241SOL    HW122557   4.076   1.382   1.354  0.0762  0.0834 -0.1961
 7241SOL    HW222558   3.976   1.490   1.320 -0.5167  0.1279  1.6009
 7242SOL     OW22559   1.602   3.603   5.827  0.4391 -0.4199 -0.2194
 7242SOL    HW122560   1.594   3.515   5.862  2.2001 -1.0448 -1.2985
 7242SOL    HW222561   1.695   3.624   5.834  0.2856  0.7771 -1.3241
 7243SOL     OW22562   1.631   3.558   4.325  0.4756  0.2705 -0.4824
 7243SOL    HW122563   1.617   3.466   4.305 -0.4476 -0.0266  1.3038
 7243SOL    HW222564   1.722   3.563   4.354  0.8517  0.1338 -1.6286
 7244SOL     OW22565   5.090   4.182   6.235  0.6241  0.2168  0.0277
 7244SOL    HW122566   5.001   4.150   6.218  0.3929  0.8740 -0.0005
 7244SOL    HW222567   5.119   4.131   6.311 -0.0978  0.5886  0.5699
 7245SOL     OW22568   0.702   5.516   5.983 -0.2867  0.2678  0.7224
 7245SOL    HW122569   0.664   5.573   5.916 -1.5228  0.8442  1.8607
 7245SOL    HW222570   0.676   5.428   5.956 -1.0531  0.5228  0.6047
 7246SOL     OW22571   5.424   0.373   5.927  0.5153 -0.2495 -0.2923
 7246SOL    HW122572   5.436   0.363   6.022 -0.7205  1.9129  0.1672
 7246SOL    HW222573   5.474   0.452   5.905 -1.5354  0.9945 -0.8130
 7247SOL     OW22574   0.853   5.002   4.008 -0.3693 -0.0313 -0.1128
 7247SOL    HW122575   0.845   5.013   4.103 -2.0161 -0.3840 -0.1893
 7247SOL    HW222576   0.906   4.923   3.998 -2.1411 -1.3619  0.5630
 7248SOL     OW22577   0.149   1.278   0.365  0.2233 -0.3248  0.5364
 7248SOL    HW122578   0.077   1.312   0.312  0.3363 -0.3662  0.3550
 7248SOL    HW222579   0.171   1.194   0.324  0.0807 -0.5184  0.8596
 7249SOL     OW22580   5.604   0.220   3.060  0.2361  0.4004 -0.2352
 7249SOL    HW122581   5.680   0.226   3.119  0.3925  0.3376 -0.4305
 7249SOL    HW222582   5.600   0.305   3.018  0.5348  0.2177 -0.6385
 7250SOL     OW22583   5.486   4.961   1.265  0.6955  0.0615 -0.1985
 7250SOL    HW122584   5.431   5.010   1.204 -0.4894 -0.3693  0.4905
 7250SOL    HW222585   5.458   4.992   1.352  1.6164 -0.1018  0.1675
 7251SOL     OW22586   2.626   6.398   7.225 -0.0429 -0.1109 -0.1657
 7251SOL    HW122587   2.654   6.395   7.317  0.1578  0.5958 -0.1977
 7251SOL    HW222588   2.665   6.479   7.191 -1.1754  0.3084 -0.5177
 7252SOL     OW22589   3.770   0.167   0.602 -0.3679 -0.3485 -0.4086
 7252SOL    HW122590   3.842   0.140   0.545 -0.4528  0.9896 -1.1769
 7252SOL    HW222591   3.785   0.260   0.618 -1.4680 -0.2444  0.1006
 7253SOL     OW22592   2.624   7.296   6.092 -0.4949  0.1799 -0.1431
 7253SOL    HW122593   2.556   7.357   6.120  0.8521  0.4774  2.8917
 7253SOL    HW222594   2.678   7.346   6.031 -0.7021  1.2827  0.5603
 7254SOL     OW22595   6.888   1.316   5.048  0.5706 -0.1064 -0.5487
 7254SOL    HW122596   6.924   1.256   4.983  0.6555 -0.5766 -0.0711
 7254SOL    HW222597   6.916   1.403   5.019  1.1175 -0.3663 -0.8152
 7255SOL     OW22598   4.781   1.527   2.489  0.1607  0.2261 -0.1998
 7255SOL    HW122599   4.871   1.502   2.509  0.0321 -0.7976 -0.8152
 7255SOL    HW222600   4.771   1.614   2.529  1.0053 -0.1950  1.0110
 7256SOL     OW22601   1.102   4.856   6.592 -0.4276  0.1024 -0.1218
 7256SOL    HW122602   1.040   4.929   6.596  0.8670  1.2450 -0.2501
 7256SOL    HW222603   1.186   4.897   6.574  0.4316 -1.3842  0.3398
 7257SOL     OW22604   0.592   0.112   3.622 -0.2187  0.1323 -0.6270
 7257SOL    HW122605   0.596   0.017   3.634 -3.8434 -0.3954 -2.4045
 7257SOL    HW222606   0.522   0.141   3.679  0.4755  1.7206 -0.5131
 7258SOL     OW22607   6.803   7.858   1.907 -0.3423 -0.1512 -0.1025
 7258SOL    HW122608   6.790   7.896   1.994 -1.4008 -1.7127  0.4586
 7258SOL    HW222609   6.884   7.898   1.876  0.7257 -0.4219  2.1007
 7259SOL     OW22610   6.350   7.297   6.686 -0.2760 -0.0442 -0.7148
 7259SOL    HW122611   6.398   7.278   6.766 -1.4397 -1.9610 -0.4056
 7259SOL    HW222612   6.416   7.331   6.626  0.7028  1.0395  0.8942
 7260SOL     OW22613   5.335   1.583   4.682 -0.6470  0.1744  0.2088
 7260SOL    HW122614   5.298   1.598   4.769 -0.6968  0.0388  0.2121
 7260SOL    HW222615   5.392   1.658   4.666 -0.2095 -0.0747  0.5900
 7261SOL     OW22616   0.026   0.309   4.792  0.5127  0.2335  0.0673
 7261SOL    HW122617   0.078   0.322   4.871  0.5219 -1.5159  0.3863
 7261SOL    HW222618   0.090   0.307   4.721  0.7524 -0.4051  0.2900
 7262SOL     OW22619   1.302   5.961   7.078  0.0698 -0.6918 -0.4111
 7262SOL    HW122620   1.248   5.892   7.040  0.6007 -1.3613  0.0316
 7262SOL    HW222621   1.318   6.021   7.005 -0.8567 -0.7404 -0.6598
 7263SOL     OW22622   0.129   2.511   7.254  0.4040 -1.0715 -0.5241
 7263SOL    HW122623   0.090   2.511   7.342  0.3517  1.6900 -0.4585
 7263SOL    HW222624   0.186   2.435   7.253  1.3141 -0.5428  2.3492
 7264SOL     OW22625   2.363   1.711   2.413  0.5453 -0.3362  0.2041
 7264SOL    HW122626   2.305   1.663   2.353 -0.2315  0.0156  0.6467
 7264SOL    HW222627   2.359   1.801   2.382  2.2626 -0.5833 -0.8269
 7265SOL     OW22628   3.141   5.552   7.406  0.3124  0.1007 -0.6591
 7265SOL    HW122629   3.176   5.491   7.470  0.8022  1.2564  0.2238
 7265SOL    HW222630   3.205   5.552   7.335  1.2371  0.8844  0.1474
 7266SOL     OW22631   3.076   5.022   5.438  0.2284  0.3478 -0.4479
 7266SOL    HW122632   3.048   5.016   5.529 -0.9604 -1.6730 -0.8743
 7266SOL    HW222633   3.171   5.017   5.441  0.1332 -1.4991  0.6244
 7267SOL     OW22634   0.063   4.449   1.106 -0.1994  0.4838 -0.1935
 7267SOL    HW122635  -0.015   4.400   1.131 -0.0366  0.3495  0.0484
 7267SOL    HW222636   0.045   4.539   1.136 -0.1378  0.3906  0.1231
 7268SOL     OW22637   1.423   4.626   2.499 -0.2533  0.2874  0.1264
 7268SOL    HW122638   1.349   4.660   2.448 -0.4051  0.4080  0.4244
 7268SOL    HW222639   1.392   4.627   2.589  0.1649  0.4667  0.2692
 7269SOL     OW22640   4.407   2.790   7.945 -0.1492 -0.4046  0.1400
 7269SOL    HW122641   4.317   2.757   7.949 -0.9565  1.7385  1.8479
 7269SOL    HW222642   4.400   2.880   7.975  2.5615 -0.1031  0.0530
 7270SOL     OW22643   4.569   1.639   5.810  0.3552 -0.1456  0.0286
 7270SOL    HW122644   4.655   1.601   5.827 -0.1177 -1.1277  0.2895
 7270SOL    HW222645   4.510   1.594   5.870 -0.5749 -0.4325 -1.0633
 7271SOL     OW22646   1.574   5.233   4.501 -0.4696 -0.1142  0.2402
 7271SOL    HW122647   1.488   5.270   4.481 -0.3717 -0.7639 -1.5141
 7271SOL    HW222648   1.556   5.142   4.526 -0.3194 -0.1485  0.2278
 7272SOL     OW22649   7.670   1.924   4.504 -0.1317 -0.1003 -0.0794
 7272SOL    HW122650   7.676   2.015   4.535  0.6716 -0.2949  0.3651
 7272SOL    HW222651   7.592   1.890   4.547 -1.4532  0.8562 -1.5769
 7273SOL     OW22652   2.930   7.723   0.674  0.1086  0.2862 -0.1630
 7273SOL    HW122653   2.923   7.629   0.657 -1.0753  0.0254  1.5271
 7273SOL    HW222654   2.877   7.764   0.605 -1.2153 -0.4510  0.3741
 7274SOL     OW22655   2.428   3.960   5.912 -0.8714 -0.1268 -0.4627
 7274SOL    HW122656   2.463   3.944   5.824 -0.8949 -1.1523 -0.2905
 7274SOL    HW222657   2.456   3.884   5.963  2.6016  2.1730  1.5083
 7275SOL     OW22658   1.706   1.736   2.358 -0.2530 -0.6150 -0.5072
 7275SOL    HW122659   1.750   1.694   2.432  1.3114 -0.0380 -1.0900
 7275SOL    HW222660   1.675   1.662   2.305 -0.0591 -1.0230 -0.0673
 7276SOL     OW22661   1.507   1.149   1.503 -0.0295  0.4461  0.3394
 7276SOL    HW122662   1.555   1.213   1.556 -0.2190  1.4440 -0.6510
 7276SOL    HW222663   1.429   1.196   1.474 -0.3574 -0.3600 -0.1103
 7277SOL     OW22664   5.097   1.553   6.668  0.3525  0.2112  0.0742
 7277SOL    HW122665   5.158   1.481   6.680 -0.0902 -0.2145 -0.1900
 7277SOL    HW222666   5.111   1.582   6.578 -0.1837 -0.2162 -0.1486
 7278SOL     OW22667   4.549   2.981   2.357 -0.7391  0.9484  0.2187
 7278SOL    HW122668   4.635   2.962   2.321  0.2798  3.0994  1.3099
 7278SOL    HW222669   4.502   3.023   2.286 -0.1253  1.6327  0.2040
 7279SOL     OW22670   6.682   1.467   4.304  0.0884 -0.0183 -0.7331
 7279SOL    HW122671   6.678   1.372   4.295  0.0112  0.1062 -2.3803
 7279SOL    HW222672   6.769   1.490   4.272 -0.2605  0.5370 -1.3020
 7280SOL     OW22673   4.107   3.245   0.993 -0.2927 -0.2362  0.1217
 7280SOL    HW122674   4.017   3.238   0.960 -0.8086  0.1313  1.3885
 7280SOL    HW222675   4.138   3.154   0.998 -0.7235 -0.3897  0.0364
 7281SOL     OW22676   0.745   0.697   4.579  0.3766 -0.1619  0.3561
 7281SOL    HW122677   0.835   0.726   4.595  1.0348 -2.1070  0.3892
 7281SOL    HW222678   0.704   0.773   4.537  2.2950  0.4706 -0.5362
 7282SOL     OW22679   2.348   6.104   3.283  0.7858  0.5099 -0.1052
 7282SOL    HW122680   2.433   6.148   3.278  0.3598  1.4233  0.3651
 7282SOL    HW222681   2.327   6.104   3.377  0.3198  0.1878 -0.2098
 7283SOL     OW22682   1.328   7.663   3.266 -0.4817 -0.1530 -0.6215
 7283SOL    HW122683   1.273   7.722   3.215 -0.1320  0.3362 -0.4444
 7283SOL    HW222684   1.396   7.635   3.205  0.2218  0.8171 -0.3147
 7284SOL     OW22685   7.628   1.243   5.686 -0.1286 -0.2176  0.3480
 7284SOL    HW122686   7.642   1.245   5.781 -1.2486 -1.3269  0.5700
 7284SOL    HW222687   7.545   1.289   5.673  1.1300  1.9848 -0.3912
 7285SOL     OW22688   7.815   5.064   3.838  0.0685  0.1880 -0.3096
 7285SOL    HW122689   7.799   5.119   3.914  1.4247  0.4204 -0.1649
 7285SOL    HW222690   7.733   5.016   3.825  0.2358 -0.9858  2.2290
 7286SOL     OW22691   0.305   4.379   1.362  0.1185 -0.4015  0.2949
 7286SOL    HW122692   0.262   4.382   1.448 -2.1695 -0.0104 -0.7867
 7286SOL    HW222693   0.322   4.286   1.347  2.6723 -0.3116  2.0948
 7287SOL     OW22694   4.229   2.463   7.242  0.4012  0.0386 -0.2348
 7287SOL    HW122695   4.267   2.397   7.300 -2.0395 -1.2398  0.0105
 7287SOL    HW222696   4.289   2.465   7.166  0.9584 -1.8835  0.1040
 7288SOL     OW22697   6.311   0.197   4.418  0.1269 -0.6425  0.2805
 7288SOL    HW122698   6.397   0.238   4.412 -0.0363 -0.4782 -1.5289
 7288SOL    HW222699   6.328   0.103   4.405 -0.0119 -0.5367 -0.7443
 7289SOL     OW22700   2.556   7.106   1.520  0.1220  0.0698  0.0498
 7289SOL    HW122701   2.495   7.089   1.592 -1.2917 -0.6984 -1.2798
 7289SOL    HW222702   2.503   7.102   1.441  2.0087 -1.4826 -1.2526
 7290SOL     OW22703   7.114   0.852   0.752 -0.3026  0.4997 -0.1222
 7290SOL    HW122704   7.110   0.879   0.844  0.9967 -1.6892  0.6661
 7290SOL    HW222705   7.156   0.766   0.755  1.1186  0.9855 -2.8930
 7291SOL     OW22706   5.318   7.382   5.301 -0.2759 -0.2250 -0.6898
 7291SOL    HW122707   5.382   7.433   5.252  1.1734 -2.2166 -0.9870
 7291SOL    HW222708   5.369   7.339   5.370 -1.5703 -0.6904  0.0197
 7292SOL     OW22709   5.658   0.898   6.152  0.1577  0.0263  0.1576
 7292SOL    HW122710   5.678   0.815   6.196 -1.0662  0.9048  2.5128
 7292SOL    HW222711   5.571   0.884   6.115  0.1717  0.0836  0.1037
 7293SOL     OW22712   0.972   2.206   1.766 -0.1278  0.2552  0.0163
 7293SOL    HW122713   1.048   2.255   1.797  0.1487 -0.7189  0.9211
 7293SOL    HW222714   0.948   2.249   1.684  1.4914  0.4896 -0.3685
 7294SOL     OW22715   0.549   2.423   0.757 -0.0545 -0.3252  0.4001
 7294SOL    HW122716   0.479   2.423   0.823 -0.1446 -1.5939  0.3267
 7294SOL    HW222717   0.546   2.511   0.719 -0.4001  0.2258  1.6600
 7295SOL     OW22718   7.609   5.335   4.966 -0.6617 -0.1393 -0.1210
 7295SOL    HW122719   7.580   5.406   5.023  0.8324 -0.2918  0.8676
 7295SOL    HW222720   7.544   5.266   4.980 -1.1753  0.3927  0.1904
 7296SOL     OW22721   2.725   0.858   1.326 -0.0144  0.2589 -0.5537
 7296SOL    HW122722   2.630   0.866   1.338 -0.1321 -2.1658  0.7388
 7296SOL    HW222723   2.757   0.827   1.411  1.7326 -0.4337 -1.4158
 7297SOL     OW22724   5.166   1.315   7.586  0.6495  0.1381  1.0003
 7297SOL    HW122725   5.236   1.359   7.634  0.6415 -1.0793  2.2037
 7297SOL    HW222726   5.100   1.382   7.572  2.0454  1.3444 -0.2286
 7298SOL     OW22727   7.586   1.761   2.259  0.0710  0.1167  0.4729
 7298SOL    HW122728   7.618   1.846   2.228 -1.8774  0.7587  0.0680
 7298SOL    HW222729   7.504   1.781   2.303 -0.6043 -1.5976  0.0596
 7299SOL     OW22730   4.030   6.121   1.452  0.1260  1.0028  0.0817
 7299SOL    HW122731   4.046   6.201   1.502  0.7709  0.2774  1.0700
 7299SOL    HW222732   4.040   6.149   1.361  1.4663  1.8304  0.4451
 7300SOL     OW22733   3.711   0.971   7.483 -0.1184 -0.2029 -0.4229
 7300SOL    HW122734   3.778   0.958   7.549  1.2609 -2.5919 -2.1448
 7300SOL    HW222735   3.637   1.009   7.531  1.1130 -0.9931  2.2775
 7301SOL     OW22736   2.935   7.411   0.207 -0.1479 -0.1463 -0.3981
 7301SOL    HW122737   2.999   7.461   0.157 -0.5468  0.9019  0.1045
 7301SOL    HW222738   2.853   7.461   0.200 -0.1538  0.1954  1.4855
 7302SOL     OW22739   3.806   7.581   6.046 -0.1293 -0.2396  0.2652
 7302SOL    HW122740   3.890   7.536   6.057 -0.0012  0.4188  2.4607
 7302SOL    HW222741   3.744   7.510   6.028  0.9245 -0.6715 -2.1052
 7303SOL     OW22742   3.704   4.750   1.740  0.4217 -0.0928 -0.3157
 7303SOL    HW122743   3.687   4.691   1.667 -0.3444 -2.0894  1.3748
 7303SOL    HW222744   3.798   4.741   1.757  0.2884 -0.9210 -0.0001
 7304SOL     OW22745   2.658   2.164   4.790  0.3515  0.1352 -0.1202
 7304SOL    HW122746   2.655   2.259   4.776  2.4491  0.4539  1.1639
 7304SOL    HW222747   2.742   2.149   4.834 -0.1538 -2.2730  0.1505
 7305SOL     OW22748   3.342   3.402   6.663 -0.2363  0.2810 -0.3633
 7305SOL    HW122749   3.260   3.430   6.705  0.1962 -0.4370  1.0390
 7305SOL    HW222750   3.410   3.426   6.726  0.5872  0.3128 -1.2382
 7306SOL     OW22751   3.267   3.568   7.566  0.4551 -0.2316  0.1672
 7306SOL    HW122752   3.216   3.525   7.497 -1.2045  2.2107 -0.2734
 7306SOL    HW222753   3.268   3.505   7.638  2.1476 -2.8273 -1.9411
 7307SOL     OW22754   1.321   5.366   1.802  0.0469 -0.0005 -0.0513
 7307SOL    HW122755   1.385   5.417   1.853  1.5226 -3.4102  1.9090
 7307SOL    HW222756   1.361   5.357   1.716  0.1161  1.4064 -0.1943
 7308SOL     OW22757   2.632   7.338   7.066 -0.2911  0.5996  0.0262
 7308SOL    HW122758   2.681   7.329   7.148  0.1926  3.3544  0.1611
 7308SOL    HW222759   2.638   7.253   7.024  1.5802 -0.1735  1.7076
 7309SOL     OW22760   2.916   0.468   2.810 -0.4995 -0.5177  0.1056
 7309SOL    HW122761   2.985   0.404   2.827 -0.7454 -0.5773  0.9371
 7309SOL    HW222762   2.903   0.512   2.894  0.2992  1.2744 -0.6396
 7310SOL     OW22763   5.687   4.052   5.020  0.4853 -0.2518 -0.1535
 7310SOL    HW122764   5.770   4.030   4.978 -0.5735 -0.3670 -2.3190
 7310SOL    HW222765   5.685   4.147   5.020 -0.4652 -0.1897 -2.5897
 7311SOL     OW22766   7.023   7.496   4.568  0.2507  0.1859 -0.4922
 7311SOL    HW122767   7.052   7.586   4.555 -0.0792  0.5652  1.2049
 7311SOL    HW222768   7.101   7.451   4.600  0.2758 -0.0103 -0.8254
 7312SOL     OW22769   1.116   6.190   2.220 -0.0553  0.0911  0.3409
 7312SOL    HW122770   1.148   6.175   2.309 -0.2812  0.1173  0.4279
 7312SOL    HW222771   1.021   6.190   2.228 -0.1114 -1.1090 -0.0896
 7313SOL     OW22772   7.635   2.618   6.506 -0.1124 -0.2739  0.2780
 7313SOL    HW122773   7.716   2.628   6.457  0.1654 -0.4408  0.7010
 7313SOL    HW222774   7.662   2.592   6.594 -0.6591 -2.4200 -0.1094
 7314SOL     OW22775   4.247   3.423   6.062  0.0579  0.1444 -0.3884
 7314SOL    HW122776   4.192   3.468   6.126 -0.2379 -0.8211  0.0520
 7314SOL    HW222777   4.242   3.478   5.983 -2.4745 -0.5092 -0.7535
 7315SOL     OW22778   1.493   6.411   1.925  0.0539 -0.3980 -0.1304
 7315SOL    HW122779   1.487   6.469   2.001 -0.4165 -1.1162  0.3867
 7315SOL    HW222780   1.403   6.390   1.903  0.2240 -1.1626 -0.1327
 7316SOL     OW22781   3.573   6.169   2.755  0.4336 -0.1502  0.1618
 7316SOL    HW122782   3.652   6.214   2.787  0.7238 -1.8763  2.1157
 7316SOL    HW222783   3.501   6.210   2.804 -0.1173  1.9680 -2.1807
 7317SOL     OW22784   3.651   6.411   3.504  0.4161 -0.4168  0.6010
 7317SOL    HW122785   3.714   6.481   3.523  0.1475 -0.2547  0.8860
 7317SOL    HW222786   3.607   6.394   3.587  1.5749 -2.0189  0.9414
 7318SOL     OW22787   1.926   2.812   0.452  0.5177  0.2748  0.0544
 7318SOL    HW122788   1.970   2.892   0.424  1.2352 -0.0138  0.3467
 7318SOL    HW222789   1.982   2.741   0.422 -0.6943 -0.1944 -1.2405
 7319SOL     OW22790   1.052   5.735   4.248 -0.4581  0.7784 -0.8184
 7319SOL    HW122791   1.013   5.653   4.277  0.8443  0.3863 -0.0892
 7319SOL    HW222792   1.080   5.718   4.158 -0.0380  0.3602 -0.6113
 7320SOL     OW22793   3.683   1.482   6.391 -0.1810 -0.5931 -0.1994
 7320SOL    HW122794   3.728   1.457   6.472  1.2850 -0.5792 -0.9832
 7320SOL    HW222795   3.657   1.573   6.406 -0.0151 -0.6214  0.2989
 7321SOL     OW22796   0.598   0.795   3.228 -0.7024  0.2685  0.1943
 7321SOL    HW122797   0.623   0.757   3.312  1.1006  0.6969 -0.1176
 7321SOL    HW222798   0.680   0.818   3.186 -1.5331 -0.3012 -1.8939
 7322SOL     OW22799   7.643   3.966   4.098 -0.3481 -0.2018  0.3220
 7322SOL    HW122800   7.630   3.896   4.162 -0.8422 -0.5839 -0.1880
 7322SOL    HW222801   7.692   3.925   4.027  0.1831  0.2158  0.4428
 7323SOL     OW22802   4.582   5.869   4.991  0.1037  0.7678 -0.0380
 7323SOL    HW122803   4.541   5.888   5.075 -1.8123 -0.6203 -0.5781
 7323SOL    HW222804   4.570   5.949   4.939  1.2331  1.6037  0.9367
 7324SOL     OW22805   2.641   0.282   3.446 -0.3509  0.1073  0.6418
 7324SOL    HW122806   2.687   0.319   3.371 -2.3715  0.7041 -0.3444
 7324SOL    HW222807   2.549   0.297   3.429 -0.9905 -1.4354  2.3683
 7325SOL     OW22808   1.349   0.897   0.686  0.1502 -0.7379  1.1426
 7325SOL    HW122809   1.285   0.910   0.757  1.0813  2.2315  1.5698
 7325SOL    HW222810   1.386   0.984   0.671  1.6975 -1.7333 -1.4112
 7326SOL     OW22811   6.260   0.095   3.638  0.3478 -0.3265  0.3453
 7326SOL    HW122812   6.296   0.029   3.579  0.2544 -0.2365  0.1869
 7326SOL    HW222813   6.331   0.112   3.700 -0.2537 -1.9430  1.5459
 7327SOL     OW22814   5.032   7.930   1.546 -0.0327 -0.1813  0.1111
 7327SOL    HW122815   5.123   7.910   1.526  0.1328 -1.6490  2.0913
 7327SOL    HW222816   5.000   7.854   1.594 -2.4346  0.1414 -0.8081
 7328SOL     OW22817   2.047   1.044   3.662  0.2362  1.0031  0.4852
 7328SOL    HW122818   1.954   1.035   3.684  0.4332 -0.6425  0.8275
 7328SOL    HW222819   2.052   1.023   3.569  0.4390 -0.5790  0.8255
 7329SOL     OW22820   5.803   3.934   3.215  0.1294 -0.4682 -0.6238
 7329SOL    HW122821   5.741   3.970   3.152  0.3786  1.4568  0.1628
 7329SOL    HW222822   5.870   4.002   3.225 -1.9281  1.2990  4.6666
 7330SOL     OW22823   1.830   4.365   3.097  0.7271 -0.1063 -0.4818
 7330SOL    HW122824   1.786   4.298   3.045 -0.2780  1.3790 -1.6266
 7330SOL    HW222825   1.919   4.368   3.064  0.7443 -0.7637 -0.5080
 7331SOL     OW22826   2.746   7.131   6.324 -0.6274  0.2272  0.3591
 7331SOL    HW122827   2.659   7.148   6.288 -0.4023  1.3881  0.3454
 7331SOL    HW222828   2.730   7.083   6.406 -1.1848 -1.3780 -0.6380
 7332SOL     OW22829   4.816   4.475   2.633 -0.3926  0.3267 -1.0812
 7332SOL    HW122830   4.721   4.471   2.648 -0.3232 -1.0402 -0.8645
 7332SOL    HW222831   4.830   4.417   2.558  0.5213 -1.2869  0.2849
 7333SOL     OW22832   7.139   5.589   5.747 -0.1312  0.0988  0.4413
 7333SOL    HW122833   7.123   5.681   5.766  0.1656  0.3982 -0.6877
 7333SOL    HW222834   7.053   5.547   5.757 -0.5342  0.7287 -0.2689
 7334SOL     OW22835   2.039   0.257   0.521  0.1391  0.6027  0.6648
 7334SOL    HW122836   2.029   0.318   0.448  1.6884  0.3616  0.2209
 7334SOL    HW222837   1.962   0.199   0.514  0.1608  0.7008 -0.6650
 7335SOL     OW22838   4.462   3.086   2.629 -0.4257 -0.2238 -0.1098
 7335SOL    HW122839   4.468   3.055   2.539 -0.3756  0.3305 -0.3000
 7335SOL    HW222840   4.529   3.154   2.636 -0.5858 -0.0986  0.2788
 7336SOL     OW22841   0.034   5.850   2.620 -0.4075  0.2843  0.2058
 7336SOL    HW122842   0.041   5.898   2.702 -1.3351 -0.5118  0.7709
 7336SOL    HW222843   0.109   5.879   2.568  0.0243  1.0095  1.2184
 7337SOL     OW22844   3.112   6.302   1.479 -0.6604  0.0683 -0.0062
 7337SOL    HW122845   3.199   6.324   1.445 -0.7112 -1.9557 -1.6804
 7337SOL    HW222846   3.052   6.337   1.414 -1.1702  1.6015  1.2265
 7338SOL     OW22847   2.080   2.304   5.402 -0.5600  0.4752 -0.0132
 7338SOL    HW122848   2.115   2.215   5.395 -1.5909  0.1047 -0.5589
 7338SOL    HW222849   1.986   2.293   5.412 -0.7791  1.5180 -0.7132
 7339SOL     OW22850   2.743   6.157   6.099 -0.0308 -0.5096  0.2671
 7339SOL    HW122851   2.819   6.206   6.070 -1.4486  0.6764 -1.7025
 7339SOL    HW222852   2.704   6.211   6.168  1.0214 -1.2807  1.5181
 7340SOL     OW22853   2.914   5.661   7.280 -0.3776 -0.3310  0.5061
 7340SOL    HW122854   2.949   5.607   7.210 -1.1121 -2.0711  1.4167
 7340SOL    HW222855   2.986   5.671   7.342  0.2713  1.2057 -0.4286
 7341SOL     OW22856   2.573   5.384   2.089  0.1644 -0.2070 -0.0776
 7341SOL    HW122857   2.625   5.457   2.121 -0.3007  0.9839 -1.9382
 7341SOL    HW222858   2.636   5.326   2.047  0.2801  0.0856 -0.3079
 7342SOL     OW22859   5.260   1.887   4.209  0.3449  0.8860  0.0585
 7342SOL    HW122860   5.280   1.932   4.127  2.0549  0.6255  0.2829
 7342SOL    HW222861   5.174   1.847   4.195  0.7104  0.6269 -1.7079
 7343SOL     OW22862   5.915   2.683   5.335 -0.0084  0.2175  0.2329
 7343SOL    HW122863   5.833   2.635   5.319  0.8586 -0.9840 -0.8349
 7343SOL    HW222864   5.950   2.643   5.415  0.7824 -1.0968 -0.7336
 7344SOL     OW22865   0.230   2.891   3.896 -1.2265  0.2313  0.2354
 7344SOL    HW122866   0.210   2.871   3.987 -1.1831  0.4408  0.2929
 7344SOL    HW222867   0.251   2.807   3.856 -0.4007  0.2361  0.6310
 7345SOL     OW22868   6.533   2.929   7.686  0.8902  0.0249 -0.0658
 7345SOL    HW122869   6.439   2.917   7.701  0.7364 -0.0493 -0.9841
 7345SOL    HW222870   6.559   2.852   7.635  1.4904 -0.0450  0.3338
 7346SOL     OW22871   5.397   3.828   3.785 -0.5297  0.0759  0.3193
 7346SOL    HW122872   5.429   3.891   3.850 -0.0074  1.9108 -1.5992
 7346SOL    HW222873   5.306   3.813   3.810 -0.2363  0.4074  1.6981
 7347SOL     OW22874   3.553   4.617   3.972 -0.1429  0.1972 -0.0176
 7347SOL    HW122875   3.640   4.577   3.977 -0.4762 -0.6058 -0.4388
 7347SOL    HW222876   3.568   4.709   3.997  0.9490  0.2603 -0.8175
 7348SOL     OW22877   1.391   1.018   2.459 -0.3193 -0.2343 -0.3228
 7348SOL    HW122878   1.298   1.038   2.466 -0.3408  0.4612 -2.0169
 7348SOL    HW222879   1.432   1.068   2.530 -0.9994  1.4097 -1.0288
 7349SOL     OW22880   5.536   5.951   3.161 -0.5770 -0.3248 -0.0760
 7349SOL    HW122881   5.495   6.014   3.221 -1.2535 -2.0695  1.3744
 7349SOL    HW222882   5.467   5.887   3.142  0.7717 -2.0388  0.5269
 7350SOL     OW22883   1.308   1.585   1.511 -0.5952  0.5314 -0.4463
 7350SOL    HW122884   1.384   1.642   1.501 -0.4491  0.4655  0.2556
 7350SOL    HW222885   1.244   1.638   1.558 -0.6529  0.2892 -0.2516
 7351SOL     OW22886   4.920   4.463   2.886  0.3138 -0.0652 -0.4011
 7351SOL    HW122887   4.849   4.400   2.899  1.0393 -1.4184 -2.4711
 7351SOL    HW222888   4.908   4.494   2.796  2.0229  0.0773 -0.6105
 7352SOL     OW22889   2.444   3.050   3.489  0.1144 -0.1398  0.0353
 7352SOL    HW122890   2.524   3.079   3.446  1.0223 -1.1628  0.9950
 7352SOL    HW222891   2.467   3.044   3.582 -0.6175 -1.8800  0.1385
 7353SOL     OW22892   4.219   5.490   0.333 -0.0264 -0.1388  0.4430
 7353SOL    HW122893   4.222   5.431   0.258  0.4281 -0.0995  0.4259
 7353SOL    HW222894   4.210   5.433   0.409  0.3233 -0.2265  0.4196
 7354SOL     OW22895   6.943   7.231   1.080  0.3229  0.3711  0.2234
 7354SOL    HW122896   6.987   7.197   1.158 -0.1192  0.8992  0.7176
 7354SOL    HW222897   6.851   7.238   1.106 -0.0556 -0.6749 -0.7788
 7355SOL     OW22898   5.662   4.175   3.864 -0.1445 -0.9133  1.0064
 7355SOL    HW122899   5.753   4.153   3.882  0.3594  0.7528  0.6065
 7355SOL    HW222900   5.612   4.116   3.920  1.1837 -1.3033  1.8240
 7356SOL     OW22901   2.504   4.966   1.655 -0.0046  0.2461  0.3259
 7356SOL    HW122902   2.446   5.039   1.677  0.6430  0.7897  0.2834
 7356SOL    HW222903   2.449   4.904   1.609 -0.5846  0.6924  0.4081
 7357SOL     OW22904   5.329   5.967   2.271 -0.3296 -0.1163 -0.1731
 7357SOL    HW122905   5.303   5.990   2.183  1.1624  0.4748 -0.4807
 7357SOL    HW222906   5.280   6.026   2.328 -2.5734 -1.6018 -0.4559
 7358SOL     OW22907   7.386   4.215   6.428  0.5275 -0.0290 -0.0897
 7358SOL    HW122908   7.476   4.188   6.446  0.0834 -2.3330 -0.8904
 7358SOL    HW222909   7.343   4.134   6.399 -2.0111  0.8334  1.0168
 7359SOL     OW22910   3.281   5.571   4.363 -0.4468 -0.4748 -0.0236
 7359SOL    HW122911   3.253   5.580   4.454 -1.1864 -0.8724 -0.1999
 7359SOL    HW222912   3.212   5.614   4.312  0.1988  0.1552 -0.3733
 7360SOL     OW22913   3.734   6.435   3.035  0.0720  0.4312  1.1088
 7360SOL    HW122914   3.768   6.406   2.950  1.8415  0.2052  1.8465
 7360SOL    HW222915   3.668   6.369   3.058  0.3073 -0.0771  0.3796
 7361SOL     OW22916   6.463   7.704   5.617 -0.1369  0.4929  0.0055
 7361SOL    HW122917   6.399   7.729   5.550  0.0149 -1.4150 -0.9189
 7361SOL    HW222918   6.537   7.764   5.603 -1.3037  2.0942  0.4734
 7362SOL     OW22919   1.924   7.220   4.201  0.1750  0.6481 -0.3490
 7362SOL    HW122920   1.890   7.168   4.274 -2.7613 -0.4391 -2.2718
 7362SOL    HW222921   2.007   7.180   4.179 -0.8656 -1.7486 -0.2087
 7363SOL     OW22922   7.711   4.155   5.074  0.0412  0.3147  0.1427
 7363SOL    HW122923   7.690   4.066   5.045  1.3837  0.5714 -1.7667
 7363SOL    HW222924   7.797   4.173   5.036 -0.2977  2.5086  0.3021
 7364SOL     OW22925   7.595   1.398   2.157  0.3468  0.5719  0.3121
 7364SOL    HW122926   7.581   1.434   2.244 -1.7376 -0.6325  0.5526
 7364SOL    HW222927   7.544   1.454   2.099 -2.1752 -1.2276  0.5765
 7365SOL     OW22928   1.657   3.314   7.108 -0.0121  0.2657  0.0359
 7365SOL    HW122929   1.637   3.306   7.015  0.3359 -0.5123  0.0228
 7365SOL    HW222930   1.731   3.255   7.122 -0.2293  0.1740  0.8595
 7366SOL     OW22931   7.620   5.728   4.983 -0.1055 -0.4726 -0.7063
 7366SOL    HW122932   7.715   5.715   4.987 -0.2263 -1.0690  0.3148
 7366SOL    HW222933   7.602   5.738   4.889  0.4742 -4.2459 -1.3912
 7367SOL     OW22934   7.171   4.671   4.338 -0.0130  0.1871  0.0012
 7367SOL    HW122935   7.231   4.598   4.321 -0.3795 -0.2611  0.6141
 7367SOL    HW222936   7.202   4.741   4.280  0.0223 -0.6233 -0.9945
 7368SOL     OW22937   0.567   6.529   6.523  0.7901  0.2664 -0.3163
 7368SOL    HW122938   0.571   6.463   6.454  1.3600  1.2045 -1.2095
 7368SOL    HW222939   0.477   6.561   6.521  0.6616 -0.0938 -0.2555
 7369SOL     OW22940   5.167   3.625   7.132 -0.0890 -0.6746  0.5674
 7369SOL    HW122941   5.119   3.628   7.215  0.5771  0.3630  0.9520
 7369SOL    HW222942   5.259   3.617   7.159  0.3210  1.5660  0.0430
 7370SOL     OW22943   4.054   6.488   0.872 -0.1064  0.1908 -0.3380
 7370SOL    HW122944   4.044   6.579   0.842  0.8113  0.0926 -0.9751
 7370SOL    HW222945   3.964   6.459   0.888 -0.5885  0.5476 -2.1138
 7371SOL     OW22946   5.093   6.586   1.257  0.1195 -0.4095  0.1855
 7371SOL    HW122947   5.049   6.502   1.272 -1.4686  0.8036  3.3077
 7371SOL    HW222948   5.121   6.614   1.343  1.1585  2.0144 -0.8523
 7372SOL     OW22949   6.557   2.222   3.849 -0.2069 -0.4095 -0.9314
 7372SOL    HW122950   6.495   2.213   3.776  0.2940  0.2755 -1.4612
 7372SOL    HW222951   6.511   2.276   3.913 -0.3056 -0.2203 -1.1595
 7373SOL     OW22952   5.365   4.970   7.943  0.2311  0.0600  0.1468
 7373SOL    HW122953   5.399   5.059   7.951  1.0577 -0.4200  3.3279
 7373SOL    HW222954   5.439   4.918   7.912  0.1851  0.2413 -0.2654
 7374SOL     OW22955   6.896   1.770   4.967 -0.0711  0.1669 -0.1381
 7374SOL    HW122956   6.958   1.716   5.017 -1.0353 -0.9955 -0.1468
 7374SOL    HW222957   6.822   1.783   5.026 -0.5792  0.0448 -0.7396
 7375SOL     OW22958   0.124   1.104   0.730 -0.2899 -0.8281  0.1781
 7375SOL    HW122959   0.208   1.096   0.685 -0.7411  1.6835 -1.3320
 7375SOL    HW222960   0.059   1.090   0.661 -1.0134  1.3864  0.3159
 7376SOL     OW22961   4.677   1.660   7.249 -0.2431  0.7936 -0.2596
 7376SOL    HW122962   4.686   1.738   7.304  1.4947 -0.3137  1.1384
 7376SOL    HW222963   4.760   1.654   7.202 -1.3695  1.2313 -2.4712
 7377SOL     OW22964   3.829   7.703   6.364  0.2646 -0.4783 -0.1548
 7377SOL    HW122965   3.875   7.777   6.404 -0.4348  0.1568 -0.4928
 7377SOL    HW222966   3.897   7.656   6.315  1.1524 -1.3056  1.7610
 7378SOL     OW22967   5.439   2.870   1.912  0.1446  0.1414 -0.2997
 7378SOL    HW122968   5.532   2.856   1.928  0.4292  0.9964 -1.1603
 7378SOL    HW222969   5.403   2.893   1.998  0.7399 -0.0545  0.0098
 7379SOL     OW22970   1.159   7.512   5.990 -0.6441 -0.1345 -0.0567
 7379SOL    HW122971   1.182   7.419   5.986 -1.2499 -0.4372  1.9805
 7379SOL    HW222972   1.234   7.557   5.952  1.0324 -1.3468  1.5931
 7380SOL     OW22973   2.476   7.190   6.562 -0.0397 -0.2896  0.0641
 7380SOL    HW122974   2.466   7.158   6.472  0.4742  0.2216 -0.1833
 7380SOL    HW222975   2.415   7.138   6.613 -2.7162  1.4899 -1.0617
 7381SOL     OW22976   3.030   2.820   1.811  0.3615  0.3443 -0.4318
 7381SOL    HW122977   2.953   2.827   1.755 -0.0673  1.5047  0.2805
 7381SOL    HW222978   2.997   2.832   1.900  1.2504  0.0775 -0.0515
 7382SOL     OW22979   3.385   6.919   3.950  0.2233 -0.0231 -0.3086
 7382SOL    HW122980   3.319   6.862   3.911  1.0925 -0.0307 -1.8701
 7382SOL    HW222981   3.461   6.861   3.964  0.8779  0.5609 -1.2736
 7383SOL     OW22982   1.270   3.050   5.383  0.3289 -0.1200 -0.0570
 7383SOL    HW122983   1.357   3.038   5.345 -0.3426 -1.7758 -1.1985
 7383SOL    HW222984   1.285   3.049   5.478  1.8064  2.1142 -0.2003
 7384SOL     OW22985   7.328   1.486   4.689 -0.3883  0.8214  0.2068
 7384SOL    HW122986   7.411   1.495   4.642  0.3358 -2.0763  0.7380
 7384SOL    HW222987   7.293   1.402   4.660 -0.8491 -0.1935  3.3157
 7385SOL     OW22988   5.762   7.081   1.644  0.4027 -0.3621 -0.3958
 7385SOL    HW122989   5.697   7.143   1.612 -1.2129 -1.5350  0.4954
 7385SOL    HW222990   5.755   7.006   1.585  1.5501 -0.1963 -0.7825
 7386SOL     OW22991   5.018   2.087   0.716  0.5742 -0.5920 -0.2874
 7386SOL    HW122992   5.073   2.077   0.794  0.7898  0.2999 -0.3079
 7386SOL    HW222993   5.000   1.998   0.687  1.6891 -0.9080 -0.0512
 7387SOL     OW22994   7.131   6.215   1.384  0.1361 -0.2254  0.3010
 7387SOL    HW122995   7.149   6.130   1.426  0.1248 -0.5313 -0.2987
 7387SOL    HW222996   7.126   6.277   1.456 -2.8633 -1.2270  1.1123
 7388SOL     OW22997   7.276   6.687   7.685  0.1638 -0.3971  0.2139
 7388SOL    HW122998   7.362   6.646   7.675  0.3998 -0.3155  1.7427
 7388SOL    HW222999   7.214   6.616   7.664  0.5896 -1.1629  1.4283
 7389SOL     OW23000   0.938   0.859   3.465 -0.2809 -0.4094  0.1701
 7389SOL    HW123001   0.914   0.948   3.440 -2.1136 -1.1491 -0.9826
 7389SOL    HW223002   0.978   0.867   3.552  1.1006  1.6755 -0.5848
 7390SOL     OW23003   7.292   4.764   1.614 -0.1754 -0.4972 -0.4601
 7390SOL    HW123004   7.329   4.697   1.556  1.5480  0.8534 -1.0304
 7390SOL    HW223005   7.321   4.847   1.575 -0.6248  0.5191  1.2718
 7391SOL     OW23006   6.848   1.516   1.648  0.2519  0.4143  0.2065
 7391SOL    HW123007   6.941   1.512   1.625 -0.0045 -0.4575 -0.7472
 7391SOL    HW223008   6.818   1.426   1.641 -1.1743  0.9682 -1.7441
 7392SOL     OW23009   0.865   4.493   5.954 -0.1588 -0.3656 -0.4617
 7392SOL    HW123010   0.825   4.437   6.020  2.0290  0.0354  1.3367
 7392SOL    HW223011   0.869   4.579   5.995  0.6944  0.0468 -1.3637
 7393SOL     OW23012   2.872   6.721   5.763  0.4704 -0.0882 -0.3676
 7393SOL    HW123013   2.952   6.772   5.772  0.5719 -0.0600 -1.3716
 7393SOL    HW223014   2.868   6.698   5.671 -1.1702  0.7269 -0.5446
 7394SOL     OW23015   6.261   6.196   4.732  0.1212 -0.0098 -0.4103
 7394SOL    HW123016   6.325   6.135   4.696  0.3791  0.3041 -0.4886
 7394SOL    HW223017   6.176   6.160   4.707  0.2462 -0.6495  0.0372
 7395SOL     OW23018   0.661   7.788   2.209  0.7476 -0.1592 -0.1125
 7395SOL    HW123019   0.740   7.739   2.234  0.9707  0.9090  1.4338
 7395SOL    HW223020   0.695   7.870   2.171  0.3870  0.0540  0.0245
 7396SOL     OW23021   4.894   0.317   6.439 -0.3381  0.4716  0.1956
 7396SOL    HW123022   4.919   0.409   6.431  0.3684  0.2461 -0.3139
 7396SOL    HW223023   4.959   0.278   6.497 -0.9684  0.4043  0.8823
 7397SOL     OW23024   7.110   0.422   3.117  0.2304  0.1913 -0.1989
 7397SOL    HW123025   7.062   0.365   3.178 -0.7084  0.0164 -1.0665
 7397SOL    HW223026   7.201   0.393   3.123  0.4254  1.0933  2.1279
 7398SOL     OW23027   4.258   2.690   2.975  0.2810  0.4230 -0.3912
 7398SOL    HW123028   4.339   2.720   2.935 -0.2771  1.9759 -0.4150
 7398SOL    HW223029   4.236   2.757   3.040 -0.9645  0.0212 -0.3632
 7399SOL     OW23030   4.488   4.996   7.186 -0.1189  1.0416 -0.2952
 7399SOL    HW123031   4.413   5.007   7.127  0.1159  0.8424 -0.6370
 7399SOL    HW223032   4.478   5.066   7.250  0.0965  1.8053 -1.0867
 7400SOL     OW23033   1.646   4.887   6.837 -0.2369 -0.6355 -0.0898
 7400SOL    HW123034   1.691   4.971   6.833  0.8554 -1.2433 -1.8693
 7400SOL    HW223035   1.618   4.879   6.928  2.8246  0.0338  1.0365
 7401SOL     OW23036   3.327   6.598   4.736  0.9142  0.4808 -0.9166
 7401SOL    HW123037   3.363   6.623   4.651  0.9019  1.9516 -0.5138
 7401SOL    HW223038   3.318   6.680   4.784 -0.2065 -0.1835  0.0813
 7402SOL     OW23039   1.194   7.429   6.288  0.4065 -0.1289 -0.0099
 7402SOL    HW123040   1.186   7.427   6.383 -1.7038  1.2381 -0.1018
 7402SOL    HW223041   1.287   7.448   6.272  0.6409  0.3857  1.7832
 7403SOL     OW23042   0.056   4.661   0.129  0.2838 -0.1892 -0.6519
 7403SOL    HW123043   0.093   4.625   0.049  0.0668 -0.0399 -0.8200
 7403SOL    HW223044   0.075   4.755   0.124  0.3638 -0.1945 -0.4778
 7404SOL     OW23045   4.958   0.354   4.047  0.2593 -0.5861  0.5627
 7404SOL    HW123046   4.944   0.435   3.997  0.2271 -0.5415  0.6441
 7404SOL    HW223047   5.035   0.314   4.006 -0.2074 -0.9184  0.0037
 7405SOL     OW23048   4.017   1.016   3.831 -0.5315 -0.3126 -0.3108
 7405SOL    HW123049   4.004   1.102   3.789  0.9018 -0.7546 -1.7440
 7405SOL    HW223050   4.034   0.956   3.759 -1.2084 -1.7779  0.6938
 7406SOL     OW23051   0.997   0.857   1.634  0.4428 -0.7318  0.0971
 7406SOL    HW123052   0.936   0.784   1.627 -0.6333 -0.0171  1.6141
 7406SOL    HW223053   1.015   0.882   1.543 -1.5294 -0.9710 -0.4005
 7407SOL     OW23054   4.317   6.406   5.758  0.4991 -0.1154  0.5536
 7407SOL    HW123055   4.235   6.386   5.713  0.7754 -0.2792  0.1162
 7407SOL    HW223056   4.356   6.477   5.707  1.2783 -0.9554 -0.0332
 7408SOL     OW23057   6.509   2.051   2.195 -0.0726  0.0157 -0.1057
 7408SOL    HW123058   6.518   2.121   2.130 -0.1167  0.7402  0.6470
 7408SOL    HW223059   6.427   2.071   2.240 -0.3233 -0.7946 -0.1915
 7409SOL     OW23060   0.788   4.984   5.185 -0.2101 -0.4340  0.5110
 7409SOL    HW123061   0.700   4.996   5.150  0.1396 -1.2652 -0.7097
 7409SOL    HW223062   0.803   5.063   5.238 -1.5343 -0.1078  0.4378
 7410SOL     OW23063   6.226   6.421   1.132  0.0667  0.5442 -0.0237
 7410SOL    HW123064   6.165   6.371   1.186 -0.5830 -0.0418 -1.2582
 7410SOL    HW223065   6.312   6.404   1.170 -0.1674 -1.2987 -0.2427
 7411SOL     OW23066   3.222   4.719   7.636  0.2280  0.2116 -0.3642
 7411SOL    HW123067   3.152   4.767   7.681  0.5800  1.2621 -0.8834
 7411SOL    HW223068   3.222   4.756   7.547 -0.2313 -1.5638 -1.1426
 7412SOL     OW23069   3.329   2.722   5.195 -0.2632  0.5335  0.0406
 7412SOL    HW123070   3.325   2.805   5.243 -0.9714 -0.0687  1.0719
 7412SOL    HW223071   3.266   2.732   5.124 -2.1301  0.0997  1.5307
 7413SOL     OW23072   1.438   7.570   5.594 -0.1973 -0.0368 -0.2917
 7413SOL    HW123073   1.364   7.616   5.632  0.9532  1.0986  0.6377
 7413SOL    HW223074   1.512   7.590   5.652  0.8272 -1.2032 -1.1369
 7414SOL     OW23075   0.512   1.143   5.524  0.1963  0.2190 -0.5755
 7414SOL    HW123076   0.519   1.238   5.532 -0.0866  0.3271 -1.4360
 7414SOL    HW223077   0.417   1.126   5.517  0.2088 -0.1828  0.1717
 7415SOL     OW23078   4.344   4.011   1.519 -0.0315 -0.2516 -0.4055
 7415SOL    HW123079   4.367   4.077   1.584  0.9897 -0.5252 -0.4858
 7415SOL    HW223080   4.415   3.947   1.522 -0.5679 -0.8930 -0.9506
 7416SOL     OW23081   1.843   6.573   5.501  0.0960  0.1053 -0.4185
 7416SOL    HW123082   1.837   6.647   5.561  1.8044 -0.6897  0.8120
 7416SOL    HW223083   1.909   6.515   5.540  1.2989 -0.4702 -3.0648
 7417SOL     OW23084   6.606   5.026   7.490  0.2577 -0.0240  0.2094
 7417SOL    HW123085   6.577   4.936   7.472  0.1968  0.1044 -0.3486
 7417SOL    HW223086   6.684   5.016   7.545  1.0078 -0.4636 -0.8972
 7418SOL     OW23087   6.616   0.054   7.604  0.4627 -0.5453  0.4781
 7418SOL    HW123088   6.595   0.143   7.575  0.9119  0.2610  2.4539
 7418SOL    HW223089   6.700   0.063   7.649  0.2336 -1.8696  1.1994
 7419SOL     OW23090   5.563   1.915   1.330 -0.1023  0.1309 -0.0863
 7419SOL    HW123091   5.570   1.821   1.347  0.3301  0.1987  0.1282
 7419SOL    HW223092   5.652   1.947   1.338 -0.3584  0.6997  0.6870
 7420SOL     OW23093   3.561   5.709   5.480 -0.1584 -0.2962 -0.3257
 7420SOL    HW123094   3.591   5.628   5.439 -0.7593 -0.8467  0.3020
 7420SOL    HW223095   3.554   5.688   5.573  1.6000  1.0684  0.1728
 7421SOL     OW23096   0.312   5.379   5.207 -0.0607 -0.4010 -0.2186
 7421SOL    HW123097   0.251   5.317   5.246  0.5650  0.6444  2.6951
 7421SOL    HW223098   0.268   5.411   5.128 -1.3644 -2.7869 -0.5258
 7422SOL     OW23099   7.168   5.725   2.713 -0.0755 -0.2068  0.5279
 7422SOL    HW123100   7.169   5.738   2.808  1.4226  1.5632  0.3206
 7422SOL    HW223101   7.230   5.654   2.698  1.4146  1.0168  0.7247
 7423SOL     OW23102   1.641   5.394   5.479  0.0329  0.1671  0.1177
 7423SOL    HW123103   1.675   5.469   5.431 -0.7722 -0.7248 -1.9755
 7423SOL    HW223104   1.719   5.348   5.511  0.5832  0.8292 -0.2527
 7424SOL     OW23105   0.681   1.253   2.403 -0.6761 -0.0370 -0.1073
 7424SOL    HW123106   0.696   1.343   2.374 -0.9364 -0.0232 -0.2067
 7424SOL    HW223107   0.733   1.244   2.482 -0.1063 -0.0151 -0.4772
 7425SOL     OW23108   0.263   6.206   2.789  0.1481  0.2949 -0.2205
 7425SOL    HW123109   0.182   6.221   2.741  0.8697 -0.7653 -1.8719
 7425SOL    HW223110   0.285   6.291   2.828 -1.7911  0.5605  0.3822
 7426SOL     OW23111   5.074   6.683   7.553  0.2512 -0.3042 -0.9020
 7426SOL    HW123112   4.981   6.662   7.556  0.1211  0.3125  0.1936
 7426SOL    HW223113   5.113   6.630   7.623  0.8303 -0.9945 -1.7285
 7427SOL     OW23114   2.478   5.569   6.526  0.2456  0.2565 -0.3631
 7427SOL    HW123115   2.558   5.609   6.560  0.2528 -0.3799  0.4147
 7427SOL    HW223116   2.508   5.502   6.465  0.3533 -0.5493  0.5538
 7428SOL     OW23117   7.814   6.774   6.321 -0.7720  0.1846 -0.0456
 7428SOL    HW123118   7.856   6.860   6.324  0.8897 -0.4907 -2.1210
 7428SOL    HW223119   7.722   6.794   6.301 -0.6200  1.5081  0.4236
 7429SOL     OW23120   3.266   7.042   6.889 -0.0177 -0.5519 -0.1597
 7429SOL    HW123121   3.203   7.038   6.816 -0.8443 -1.1438  0.5544
 7429SOL    HW223122   3.351   7.029   6.848 -0.1635  1.8651 -1.3642
 7430SOL     OW23123   3.113   1.782   0.872 -0.7963 -0.3435 -0.1501
 7430SOL    HW123124   3.094   1.702   0.921  0.8679  0.0733  1.2501
 7430SOL    HW223125   3.196   1.814   0.907 -0.9598  1.5308 -1.2944
 7431SOL     OW23126   2.813   7.568   1.086 -0.4255 -0.3804  0.4982
 7431SOL    HW123127   2.779   7.656   1.072 -1.7421 -0.8029  0.9183
 7431SOL    HW223128   2.903   7.572   1.054 -1.0376  0.6088 -1.2358
 7432SOL     OW23129   4.582   3.057   4.935  0.2036 -0.3959  0.0761
 7432SOL    HW123130   4.606   3.052   4.842 -1.2311 -0.3513 -0.3131
 7432SOL    HW223131   4.651   3.111   4.974  0.5735 -0.0172 -1.0502
 7433SOL     OW23132   7.154   6.432   3.351 -0.0203  0.1267 -0.0823
 7433SOL    HW123133   7.183   6.387   3.431 -1.8021 -1.2404 -0.1409
 7433SOL    HW223134   7.215   6.403   3.283  0.7138  0.2703  0.5007
 7434SOL     OW23135   3.632   6.693   7.748  0.2636 -0.1307  0.3885
 7434SOL    HW123136   3.539   6.711   7.742  0.7194  2.1732 -0.7885
 7434SOL    HW223137   3.657   6.665   7.659  1.0328  1.3059  0.1227
 7435SOL     OW23138   2.365   0.269   5.385 -0.3062 -0.3907  0.1068
 7435SOL    HW123139   2.378   0.295   5.294  0.4269 -0.9660  0.0420
 7435SOL    HW223140   2.319   0.185   5.379 -0.9771 -0.0457  0.2868
 7436SOL     OW23141   5.365   4.380   4.922  0.2791  0.1280  0.3589
 7436SOL    HW123142   5.321   4.405   5.004 -0.5787 -1.9621  0.5972
 7436SOL    HW223143   5.429   4.315   4.949  0.6768  0.1504 -0.5172
 7437SOL     OW23144   3.565   0.216   6.799  0.5586 -0.5895  0.3023
 7437SOL    HW123145   3.519   0.265   6.731  1.8109 -0.7332 -0.6878
 7437SOL    HW223146   3.588   0.282   6.864  1.3872 -0.0018 -0.5566
 7438SOL     OW23147   1.124   6.135   4.598 -0.0416 -0.1910 -0.0113
 7438SOL    HW123148   1.102   6.185   4.519  2.5910  0.4190 -0.4460
 7438SOL    HW223149   1.087   6.186   4.670 -1.7822 -0.3434 -0.7336
 7439SOL     OW23150   7.563   5.812   0.991 -0.6683  0.2739  0.0670
 7439SOL    HW123151   7.624   5.766   0.933  0.2138  1.0831  0.3395
 7439SOL    HW223152   7.580   5.905   0.975 -0.4915  0.5090  1.5383
 7440SOL     OW23153   0.381   0.786   2.640  0.2231 -0.1344 -0.4539
 7440SOL    HW123154   0.473   0.759   2.631  0.1918 -0.7853  0.8491
 7440SOL    HW223155   0.331   0.711   2.608  0.1528 -1.2283  1.9466
 7441SOL     OW23156   1.171   6.572   0.341  0.0088  0.1223  0.8649
 7441SOL    HW123157   1.148   6.524   0.420  0.3342 -0.9815  0.3055
 7441SOL    HW223158   1.251   6.619   0.364  0.2003 -0.3354  1.1349
 7442SOL     OW23159   4.122   1.052   6.210  0.4606 -0.1772 -0.3855
 7442SOL    HW123160   4.192   0.996   6.242 -1.4531 -2.3902  0.1765
 7442SOL    HW223161   4.125   1.043   6.115  1.2441  0.1953 -0.4061
 7443SOL     OW23162   0.235   3.044   7.744  0.0049  0.2914  1.3455
 7443SOL    HW123163   0.198   3.123   7.705  0.7899  0.2147  0.3812
 7443SOL    HW223164   0.187   2.972   7.703  1.0224  0.1994  0.2323
 7444SOL     OW23165   5.722   6.361   6.245  0.3890 -0.0773 -0.5725
 7444SOL    HW123166   5.716   6.457   6.252 -0.0881 -0.2173  1.4754
 7444SOL    HW223167   5.772   6.335   6.322  0.4856 -1.4873 -1.0975
 7445SOL     OW23168   4.349   7.623   6.895 -0.1020 -0.0443 -0.1015
 7445SOL    HW123169   4.372   7.657   6.981  0.8335 -1.5869  0.3131
 7445SOL    HW223170   4.381   7.532   6.897 -0.9984 -0.4207 -1.6985
 7446SOL     OW23171   1.121   7.042   5.809 -0.0052 -0.1363  0.3017
 7446SOL    HW123172   1.178   6.981   5.855  0.1724 -0.3280 -0.1676
 7446SOL    HW223173   1.045   7.052   5.867 -0.1002 -0.9105  0.3270
 7447SOL     OW23174   7.898   3.620   6.602  0.6090 -0.1193  0.2728
 7447SOL    HW123175   7.830   3.626   6.535 -0.2461 -0.7186  1.0664
 7447SOL    HW223176   7.851   3.611   6.684  1.6194 -2.3518  0.6765
 7448SOL     OW23177   7.458   0.684   3.115  0.3543  0.0665  0.1575
 7448SOL    HW123178   7.396   0.620   3.151  1.1036 -1.2653 -0.8616
 7448SOL    HW223179   7.492   0.729   3.192 -0.8153 -0.1589  0.8353
 7449SOL     OW23180   1.633   5.774   3.513 -0.0761  0.5167  0.0340
 7449SOL    HW123181   1.622   5.790   3.419 -0.4786 -1.3869 -0.2960
 7449SOL    HW223182   1.546   5.746   3.543  0.6502 -1.6948  0.3033
 7450SOL     OW23183   3.713   5.486   5.110 -0.5869  0.3212 -0.0583
 7450SOL    HW123184   3.711   5.430   5.187  0.3012  0.6164  0.1883
 7450SOL    HW223185   3.774   5.443   5.051 -0.3412  0.7291 -0.1027
 7451SOL     OW23186   3.726   5.866   0.662 -0.1451  0.2062 -0.4125
 7451SOL    HW123187   3.700   5.949   0.620 -0.5534  0.5008  0.3968
 7451SOL    HW223188   3.821   5.863   0.651 -0.3194 -0.2109 -2.2090
 7452SOL     OW23189   0.358   0.807   1.150  0.1667  0.2727 -0.9355
 7452SOL    HW123190   0.435   0.857   1.178  0.1050 -0.5530  0.8378
 7452SOL    HW223191   0.292   0.825   1.217 -1.1660  0.8280 -2.3410
 7453SOL     OW23192   3.117   2.185   4.049 -0.3046 -0.6870 -0.5954
 7453SOL    HW123193   3.107   2.101   4.004  0.4473  0.1006 -2.3431
 7453SOL    HW223194   3.034   2.196   4.096 -0.7266 -2.0374 -0.9573
 7454SOL     OW23195   1.483   4.759   3.859  0.0630  0.6856 -0.2164
 7454SOL    HW123196   1.516   4.771   3.948 -0.4784  0.4175  0.0317
 7454SOL    HW223197   1.537   4.816   3.805 -1.8730  3.6707  0.7530
 7455SOL     OW23198   3.676   4.476   7.589 -0.4658 -0.4813 -0.5082
 7455SOL    HW123199   3.587   4.506   7.574 -0.1995  1.2172  0.8598
 7455SOL    HW223200   3.728   4.516   7.519 -0.7960 -1.7813 -1.5296
 7456SOL     OW23201   6.317   4.793   7.609 -0.0838  0.1724 -0.4505
 7456SOL    HW123202   6.351   4.787   7.520  1.1144  1.6119 -0.1350
 7456SOL    HW223203   6.389   4.765   7.664 -0.0655  1.3220  0.1441
 7457SOL     OW23204   7.048   2.111   7.405  0.1039 -0.2000  0.2291
 7457SOL    HW123205   7.077   2.093   7.315  0.9344  2.0126  0.0072
 7457SOL    HW223206   6.966   2.160   7.394  0.0609 -0.1660  0.7019
 7458SOL     OW23207   6.290   4.111   5.465  0.7466 -0.4588  0.7658
 7458SOL    HW123208   6.347   4.135   5.538  0.3280  0.7724  0.7075
 7458SOL    HW223209   6.252   4.194   5.436  0.7861 -0.9546 -0.7565
 7459SOL     OW23210   4.580   2.099   2.759 -0.3222 -0.0133 -0.2182
 7459SOL    HW123211   4.562   2.026   2.700 -1.1808 -0.1904  0.2416
 7459SOL    HW223212   4.519   2.168   2.731 -1.9914 -0.6994  1.5054
 7460SOL     OW23213   1.554   7.833   2.100  0.0855 -0.6159  0.7806
 7460SOL    HW123214   1.550   7.811   2.193 -0.7328 -0.4937  0.7895
 7460SOL    HW223215   1.472   7.881   2.084  0.6144  0.1012  0.1848
 7461SOL     OW23216   0.985   4.960   2.948 -0.1588 -0.2856  0.3214
 7461SOL    HW123217   0.913   5.004   2.994  0.0353  0.3554  0.0291
 7461SOL    HW223218   1.053   4.948   3.015  1.4713  3.5881 -0.3671
 7462SOL     OW23219   3.340   6.837   2.026  0.2627  0.7003 -0.6032
 7462SOL    HW123220   3.249   6.821   2.001 -0.2220  3.8788 -1.2430
 7462SOL    HW223221   3.380   6.750   2.029 -2.4398 -0.6694 -1.6107
 7463SOL     OW23222   2.810   4.211   0.329  0.6392 -0.4137  0.1509
 7463SOL    HW123223   2.889   4.251   0.365 -0.3579  1.4174  0.4118
 7463SOL    HW223224   2.791   4.261   0.250 -0.6487 -0.3689  0.4700
 7464SOL     OW23225   6.721   1.042   5.882 -0.0401 -0.1314  0.2163
 7464SOL    HW123226   6.730   0.971   5.819  0.6122  1.3216 -1.4199
 7464SOL    HW223227   6.807   1.085   5.883 -0.6363  1.1077  0.5651
 7465SOL     OW23228   7.427   7.207   2.969  0.3811 -0.2830 -0.4968
 7465SOL    HW123229   7.407   7.295   2.938  0.6241 -1.1753 -3.5295
 7465SOL    HW223230   7.342   7.172   2.995 -0.0222  0.2212 -1.0951
 7466SOL     OW23231   4.884   0.499   5.405 -0.4416 -0.3840  0.1204
 7466SOL    HW123232   4.793   0.471   5.394 -0.9098  1.2142 -0.3142
 7466SOL    HW223233   4.884   0.551   5.485  0.6066 -2.3234  1.4432
 7467SOL     OW23234   7.404   1.849   3.200 -0.3678 -0.3879  0.3720
 7467SOL    HW123235   7.308   1.859   3.195 -0.3084  0.2920  0.5161
 7467SOL    HW223236   7.421   1.766   3.155 -1.2292 -1.6549  2.2690
 7468SOL     OW23237   7.570   1.405   6.675 -0.6737 -0.0891  0.4069
 7468SOL    HW123238   7.574   1.473   6.608 -0.8875  0.0638  0.5488
 7468SOL    HW223239   7.599   1.448   6.755 -1.5436  0.0455  0.6604
 7469SOL     OW23240   3.365   5.590   1.340  0.4646 -0.0545 -0.1467
 7469SOL    HW123241   3.453   5.612   1.310  0.0755  1.4011 -0.2872
 7469SOL    HW223242   3.308   5.653   1.295 -0.5229 -0.1885  0.8723
 7470SOL     OW23243   6.113   0.119   1.663  0.1452 -1.0446 -0.5299
 7470SOL    HW123244   6.118   0.170   1.582  2.4661  0.6114  0.5249
 7470SOL    HW223245   6.138   0.030   1.637  2.8968 -0.1127 -1.4054
 7471SOL     OW23246   3.363   2.132   2.712 -0.0171 -0.7017  0.4247
 7471SOL    HW123247   3.297   2.100   2.774 -1.2574  0.1812 -0.3985
 7471SOL    HW223248   3.338   2.094   2.628  1.0175 -1.0060  0.2306
 7472SOL     OW23249   7.922   1.833   2.199 -0.2715  0.8528  0.7094
 7472SOL    HW123250   7.837   1.876   2.199  0.1114  1.6261  0.5619
 7472SOL    HW223251   7.913   1.761   2.136 -0.4427  1.7003 -0.2636
 7473SOL     OW23252   2.921   4.963   4.278  0.3319  0.2868 -0.7588
 7473SOL    HW123253   2.894   5.048   4.313  0.7209  0.4113 -0.7542
 7473SOL    HW223254   2.939   4.979   4.186  1.7855  0.5454 -0.4576
 7474SOL     OW23255   1.863   2.197   4.914 -0.6465 -0.2578  0.2338
 7474SOL    HW123256   1.809   2.276   4.913 -1.3849 -0.7197  1.2381
 7474SOL    HW223257   1.911   2.200   4.832  0.3940  1.9531  0.8247
 7475SOL     OW23258   1.531   6.832   3.904  0.1368  0.0300  0.0610
 7475SOL    HW123259   1.620   6.817   3.873 -0.1569  0.9163 -1.2877
 7475SOL    HW223260   1.481   6.757   3.872  0.6095 -1.1048  1.8749
 7476SOL     OW23261   5.870   4.793   2.957 -0.1794  0.5187  0.2041
 7476SOL    HW123262   5.827   4.861   3.009  0.3141  0.5071  0.6325
 7476SOL    HW223263   5.959   4.789   2.992  0.4879  1.2319 -1.3046
 7477SOL     OW23264   5.157   3.385   0.088 -0.3128 -0.4687 -0.0906
 7477SOL    HW123265   5.171   3.400   0.181 -0.5327 -2.6057  0.3439
 7477SOL    HW223266   5.078   3.435   0.066  0.0395  0.4722  0.7228
 7478SOL     OW23267   0.589   2.610   1.860 -0.0372  0.0448  0.4817
 7478SOL    HW123268   0.675   2.600   1.821 -0.0261  0.9207  0.2724
 7478SOL    HW223269   0.530   2.565   1.799  0.3381 -1.1796  0.9813
 7479SOL     OW23270   5.048   7.844   3.025  0.1436  0.1268 -0.1171
 7479SOL    HW123271   4.992   7.920   3.007 -1.3811 -0.8918  0.1838
 7479SOL    HW223272   5.097   7.831   2.944  0.2859  1.2981 -0.2417
 7480SOL     OW23273   5.378   1.137   0.154 -0.0315 -0.2254  0.0128
 7480SOL    HW123274   5.415   1.149   0.067 -0.7658 -0.1766 -0.3044
 7480SOL    HW223275   5.339   1.221   0.176 -0.0882 -0.3177  0.2724
 7481SOL     OW23276   6.930   0.277   7.659 -0.1150 -0.1135 -0.7041
 7481SOL    HW123277   6.884   0.361   7.658 -3.0755 -1.5777  0.3322
 7481SOL    HW223278   6.933   0.253   7.752  0.7704 -1.1466 -0.9757
 7482SOL     OW23279   0.910   2.525   3.184 -0.2124 -0.0578 -0.0630
 7482SOL    HW123280   0.910   2.539   3.089 -2.3314 -0.1142 -0.1191
 7482SOL    HW223281   0.912   2.430   3.194  2.8842 -0.0870  0.0845
 7483SOL     OW23282   7.706   2.500   6.102  0.7354 -0.0859  0.4271
 7483SOL    HW123283   7.774   2.537   6.159  2.0490  0.2038 -1.2674
 7483SOL    HW223284   7.716   2.405   6.112  0.6469 -0.0379  1.0155
 7484SOL     OW23285   1.348   0.744   3.403  0.2169 -0.1290  0.6611
 7484SOL    HW123286   1.330   0.656   3.370 -1.2067 -0.1806  1.4911
 7484SOL    HW223287   1.305   0.747   3.488  0.0846  1.4264  0.5695
 7485SOL     OW23288   6.818   5.887   4.578 -0.0584  0.4059 -0.1423
 7485SOL    HW123289   6.741   5.942   4.559  0.1353  0.5438 -0.5457
 7485SOL    HW223290   6.869   5.890   4.497 -0.3532 -0.8848 -0.3967
 7486SOL     OW23291   7.797   2.405   1.777 -0.1174 -0.5040 -0.1038
 7486SOL    HW123292   7.877   2.356   1.797  0.8973  1.2999  0.4753
 7486SOL    HW223293   7.800   2.418   1.683 -1.6065 -3.4513 -0.6876
 7487SOL     OW23294   0.523   1.136   1.997  0.4092  0.5421 -0.4130
 7487SOL    HW123295   0.452   1.156   2.058 -0.9849  1.5869 -2.2596
 7487SOL    HW223296   0.585   1.207   2.009  0.6365  0.2095  0.4569
 7488SOL     OW23297   4.982   3.053   2.568 -0.0756  0.4199  0.5785
 7488SOL    HW123298   4.900   3.064   2.616 -1.2584 -0.3177 -1.1726
 7488SOL    HW223299   4.987   2.959   2.550  0.1897  0.6918 -0.9041
 7489SOL     OW23300   0.193   3.985   0.563  0.5288 -0.4782  0.0601
 7489SOL    HW123301   0.279   3.944   0.570  0.6507 -0.6711 -2.0057
 7489SOL    HW223302   0.140   3.923   0.512 -0.8155 -0.3059  1.1856
 7490SOL     OW23303   2.751   0.159   5.075  0.6330 -0.3729 -0.2934
 7490SOL    HW123304   2.839   0.124   5.058  1.3349  0.8615  0.6375
 7490SOL    HW223305   2.750   0.175   5.169 -1.0447 -1.5153 -0.0864
 7491SOL     OW23306   5.739   1.199   7.032 -0.0182  0.2969  0.2112
 7491SOL    HW123307   5.684   1.268   6.995 -0.8205 -1.2621 -1.6906
 7491SOL    HW223308   5.829   1.229   7.019 -0.2454 -0.1958 -3.2637
 7492SOL     OW23309   6.422   7.868   6.000  0.3898  0.0233 -0.3314
 7492SOL    HW123310   6.517   7.880   5.995  0.2800  1.1849  0.0820
 7492SOL    HW223311   6.400   7.889   6.091 -0.3194  0.2319 -0.5455
 7493SOL     OW23312   6.858   7.401   2.965 -0.1936 -0.3738  0.0614
 7493SOL    HW123313   6.824   7.482   3.004  1.4226 -0.4947  1.8854
 7493SOL    HW223314   6.929   7.431   2.907 -0.0522 -0.4359  0.2024
 7494SOL     OW23315   2.794   6.955   5.556 -0.0862 -0.0879 -0.1839
 7494SOL    HW123316   2.810   6.963   5.650  0.3653  0.3945 -0.2960
 7494SOL    HW223317   2.835   6.873   5.531  0.3212  0.0755 -0.0648
 7495SOL     OW23318   6.459   0.354   2.033 -0.2082 -0.2421  0.1117
 7495SOL    HW123319   6.419   0.324   1.951 -2.0734  1.5736  0.2722
 7495SOL    HW223320   6.408   0.311   2.102 -0.3534  0.2497  0.3154
 7496SOL     OW23321   3.781   6.969   3.655 -0.4008  0.5073  0.2380
 7496SOL    HW123322   3.765   6.919   3.575  0.7684 -1.6261  1.2403
 7496SOL    HW223323   3.694   7.002   3.681 -1.1213 -0.5064 -0.8126
 7497SOL     OW23324   5.705   4.455   6.165  0.2520  0.3286 -0.0367
 7497SOL    HW123325   5.696   4.363   6.141  3.9331 -0.4557  0.9852
 7497SOL    HW223326   5.662   4.462   6.250  1.5056 -0.9254  0.7269
 7498SOL     OW23327   4.320   1.966   0.359 -0.3337 -0.2475  0.0246
 7498SOL    HW123328   4.414   1.980   0.376 -0.5583  0.2450  0.9386
 7498SOL    HW223329   4.288   2.053   0.333 -0.6660 -0.2675  0.3676
 7499SOL     OW23330   1.648   7.637   2.547  0.1007  0.0258  0.0318
 7499SOL    HW123331   1.557   7.665   2.545  0.1933  0.2766 -0.9756
 7499SOL    HW223332   1.644   7.541   2.557 -0.2887 -0.0310 -0.6344
 7500SOL     OW23333   6.517   4.539   3.432 -0.0566 -0.1079 -0.0134
 7500SOL    HW123334   6.518   4.622   3.383  2.5326 -0.2101 -0.2602
 7500SOL    HW223335   6.472   4.478   3.374 -0.2242  0.6549 -0.7125
 7501SOL     OW23336   2.758   4.055   3.489  0.0941  0.2156  0.1755
 7501SOL    HW123337   2.806   4.020   3.414  0.1672  1.6941 -0.5013
 7501SOL    HW223338   2.826   4.093   3.545 -0.0282 -0.2578  0.6551
 7502SOL     OW23339   5.195   1.633   1.321 -0.0402 -0.0754 -0.1299
 7502SOL    HW123340   5.253   1.580   1.266  2.1931  2.6922 -0.6555
 7502SOL    HW223341   5.124   1.659   1.263 -0.2353 -1.0391 -0.3387
 7503SOL     OW23342   4.753   1.600   3.977 -0.2132 -0.8887  0.1868
 7503SOL    HW123343   4.834   1.636   4.012 -0.9277  1.0615 -0.0117
 7503SOL    HW223344   4.713   1.674   3.930 -1.3181 -2.2473 -1.1033
 7504SOL     OW23345   3.808   4.657   1.217 -0.2327 -0.2452 -0.5601
 7504SOL    HW123346   3.844   4.688   1.133  0.7429  0.1305 -0.0163
 7504SOL    HW223347   3.809   4.735   1.273  1.5892 -1.0421  0.6059
 7505SOL     OW23348   6.681   3.242   6.463  0.5386 -0.6250  0.3742
 7505SOL    HW123349   6.769   3.264   6.434 -0.7090  2.2623 -1.7431
 7505SOL    HW223350   6.655   3.314   6.521 -0.2064 -1.8246  1.6009
 7506SOL     OW23351   7.100   5.698   4.442  0.0067 -0.0177  0.1904
 7506SOL    HW123352   7.037   5.662   4.380 -0.6344  0.8192  0.3401
 7506SOL    HW223353   7.167   5.631   4.450 -0.6175 -0.7153 -0.3457
 7507SOL     OW23354   7.912   0.428   4.351 -0.4983 -0.4669 -0.1935
 7507SOL    HW123355   7.933   0.479   4.428  0.3711 -1.3604  0.1834
 7507SOL    HW223356   7.975   0.356   4.351  0.5960  0.3853 -2.6328
 7508SOL     OW23357   7.688   5.929   4.135  0.4904 -0.5516  0.2474
 7508SOL    HW123358   7.603   5.893   4.110  0.2669 -0.5077  0.9304
 7508SOL    HW223359   7.670   5.981   4.213  1.1620 -0.6058  0.4455
 7509SOL     OW23360   3.574   6.318   7.833  0.0768 -0.4116  0.2152
 7509SOL    HW123361   3.641   6.333   7.766  0.4269 -0.3482  0.5728
 7509SOL    HW223362   3.538   6.405   7.850 -1.0990 -0.6367 -0.9932
 7510SOL     OW23363   2.403   3.096   4.233 -0.0651 -0.0839  0.2715
 7510SOL    HW123364   2.474   3.033   4.231  0.9206  0.8500 -3.7197
 7510SOL    HW223365   2.442   3.176   4.268  0.2024 -0.2475  0.3480
 7511SOL     OW23366   7.233   7.886   3.537  0.0502  0.0523 -0.0559
 7511SOL    HW123367   7.328   7.896   3.535  0.0838 -0.4561 -1.3346
 7511SOL    HW223368   7.215   7.805   3.490 -1.1504  1.2218 -1.7438
 7512SOL     OW23369   4.988   0.111   6.238 -0.1324 -0.2553 -0.3014
 7512SOL    HW123370   4.912   0.087   6.185 -0.0821 -0.5672 -0.2351
 7512SOL    HW223371   4.953   0.168   6.307 -0.2884 -0.3167 -0.3312
 7513SOL     OW23372   7.412   4.224   3.844 -0.3533  0.6962  0.0144
 7513SOL    HW123373   7.428   4.162   3.773  0.3570  0.6552  0.2034
 7513SOL    HW223374   7.499   4.256   3.868 -0.3290 -0.8873  2.3120
 7514SOL     OW23375   1.971   7.295   6.438  0.1659 -0.6642  0.0787
 7514SOL    HW123376   1.986   7.203   6.417 -1.3334 -0.6200 -1.3739
 7514SOL    HW223377   1.960   7.296   6.533 -1.2609 -2.2404 -0.0160
 7515SOL     OW23378   0.526   2.250   0.269 -0.8061  0.7488 -0.1101
 7515SOL    HW123379   0.559   2.271   0.357 -2.1240 -1.4793  1.0083
 7515SOL    HW223380   0.510   2.156   0.271  0.6248  0.3210 -3.3239
 7516SOL     OW23381   3.725   1.160   0.550  0.0182 -0.3093 -0.2799
 7516SOL    HW123382   3.728   1.229   0.617 -0.8015 -1.3225  0.8569
 7516SOL    HW223383   3.631   1.149   0.533  0.1171 -1.4260 -0.1327
 7517SOL     OW23384   7.777   6.210   7.469 -0.5706  0.1974  0.6498
 7517SOL    HW123385   7.804   6.299   7.487 -0.2076  0.6994 -1.9879
 7517SOL    HW223386   7.849   6.156   7.503  0.3689  1.0704  0.1159
 7518SOL     OW23387   1.558   2.236   7.330  0.2211 -0.1146  0.5179
 7518SOL    HW123388   1.528   2.199   7.248  0.2122 -0.3643  0.6332
 7518SOL    HW223389   1.549   2.331   7.319  1.9491 -0.0147 -0.4450
 7519SOL     OW23390   7.348   3.499   0.820 -0.0392  0.6074  0.2870
 7519SOL    HW123391   7.315   3.426   0.873  0.1307  1.3819  1.5000
 7519SOL    HW223392   7.413   3.459   0.762 -0.2993 -0.2895  0.5966
 7520SOL     OW23393   6.381   0.845   0.785  0.5381 -0.2060  0.3608
 7520SOL    HW123394   6.475   0.847   0.765  0.3060 -0.2968 -0.7833
 7520SOL    HW223395   6.355   0.937   0.790  0.1182 -0.1104 -2.2461
 7521SOL     OW23396   4.504   2.750   6.733 -0.2942  0.2709 -0.2094
 7521SOL    HW123397   4.565   2.753   6.659  1.0695  0.0805  0.8585
 7521SOL    HW223398   4.488   2.656   6.747 -0.0991  0.2771  0.0722
 7522SOL     OW23399   6.505   7.080   2.806 -0.0652 -0.5034 -0.0203
 7522SOL    HW123400   6.515   7.037   2.721 -2.5422 -1.2476 -0.0164
 7522SOL    HW223401   6.582   7.052   2.856 -0.0763 -2.5217 -1.0332
 7523SOL     OW23402   1.892   7.588   0.200 -1.1356 -0.0048  0.1596
 7523SOL    HW123403   1.888   7.646   0.124  1.6058 -0.2267 -0.2717
 7523SOL    HW223404   1.835   7.514   0.177 -0.5820  0.0664 -1.5955
 7524SOL     OW23405   5.955   0.663   5.401 -0.2137  0.2439  0.0205
 7524SOL    HW123406   5.931   0.738   5.347  0.6170  2.4499  2.5033
 7524SOL    HW223407   5.874   0.641   5.449  0.4835  2.4291  2.4098
 7525SOL     OW23408   5.746   0.828   4.581  0.3027 -0.7413  0.4463
 7525SOL    HW123409   5.832   0.849   4.544  0.3707  2.1167  1.8653
 7525SOL    HW223410   5.687   0.823   4.506  1.6770 -3.0139 -0.5787
 7526SOL     OW23411   1.662   7.723   2.803  0.2008 -0.8758  0.0933
 7526SOL    HW123412   1.663   7.684   2.716 -0.7121  0.0245 -0.3405
 7526SOL    HW223413   1.576   7.702   2.839 -0.1787  0.3782 -0.0084
 7527SOL     OW23414   2.627   3.140   0.977  0.4786  0.9224 -0.1569
 7527SOL    HW123415   2.692   3.080   0.941  0.4542  1.5300 -1.2399
 7527SOL    HW223416   2.556   3.083   1.007  1.5345  0.2400  1.1516
 7528SOL     OW23417   1.960   2.545   0.113 -0.6714 -0.2227 -0.6596
 7528SOL    HW123418   1.887   2.491   0.144 -0.2024 -0.3546  0.2425
 7528SOL    HW223419   2.025   2.540   0.183 -0.6024  1.4793 -0.5697
 7529SOL     OW23420   7.474   5.765   3.550 -0.0668 -0.1239  0.2160
 7529SOL    HW123421   7.521   5.843   3.579 -2.1742  1.5714 -0.6853
 7529SOL    HW223422   7.471   5.773   3.455 -1.7326 -0.3929  0.2145
 7530SOL     OW23423   6.230   2.396   7.371 -0.3537 -0.1841  0.0936
 7530SOL    HW123424   6.204   2.456   7.441 -0.1337  0.7180 -0.5816
 7530SOL    HW223425   6.148   2.357   7.340 -0.4895 -0.2942  0.5850
 7531SOL     OW23426   0.860   2.057   6.776 -0.2675  0.5090  0.5625
 7531SOL    HW123427   0.902   2.055   6.690 -2.0209  0.5141 -0.3527
 7531SOL    HW223428   0.866   2.149   6.803  0.1796  0.5330  0.3916
 7532SOL     OW23429   6.609   2.524   0.559 -0.0905 -0.3449 -0.0191
 7532SOL    HW123430   6.578   2.614   0.572 -1.4731 -0.9797  1.4086
 7532SOL    HW223431   6.646   2.500   0.644  0.6492 -1.0000 -0.5163
 7533SOL     OW23432   3.985   0.359   4.731 -0.1988  0.0233  0.2819
 7533SOL    HW123433   3.919   0.305   4.775  0.1566 -0.8970 -0.2837
 7533SOL    HW223434   4.067   0.340   4.776 -0.1403  0.3971  0.3362
 7534SOL     OW23435   5.899   5.167   3.824 -0.0609  0.2792 -0.1240
 7534SOL    HW123436   5.867   5.142   3.738 -1.9955  1.1802  0.2851
 7534SOL    HW223437   5.950   5.092   3.854  1.6477  0.3961 -2.4924
 7535SOL     OW23438   3.763   7.238   6.342  0.3492 -0.0861  0.0311
 7535SOL    HW123439   3.848   7.218   6.380  0.2189 -0.3692  0.1751
 7535SOL    HW223440   3.772   7.218   6.249 -0.1798 -2.1495  0.3791
 7536SOL     OW23441   3.202   0.223   6.524  0.3429  0.5379 -0.9465
 7536SOL    HW123442   3.145   0.147   6.538  3.0582 -1.2467  1.5776
 7536SOL    HW223443   3.178   0.255   6.437 -2.9049 -1.3828 -0.9443
 7537SOL     OW23444   1.582   7.051   4.059  0.7829  0.7209 -0.5326
 7537SOL    HW123445   1.497   7.049   4.104  1.2541 -0.7606  0.3805
 7537SOL    HW223446   1.574   6.984   3.991  1.3230  0.3131 -0.2069
 7538SOL     OW23447   7.528   2.361   7.274  0.6634  0.0837  0.4251
 7538SOL    HW123448   7.598   2.298   7.254  0.1899 -0.5476  0.7378
 7538SOL    HW223449   7.463   2.310   7.322 -0.0531  0.6500  0.0702
 7539SOL     OW23450   1.328   0.652   2.514 -0.6418  0.3086 -0.3283
 7539SOL    HW123451   1.408   0.688   2.477 -0.2436  1.1293  1.2272
 7539SOL    HW223452   1.337   0.666   2.609 -1.3518 -2.1901  0.1750
 7540SOL     OW23453   5.951   5.086   1.407 -0.2631 -0.2884  0.6226
 7540SOL    HW123454   5.902   5.047   1.335 -0.6681 -0.2760  0.8907
 7540SOL    HW223455   5.898   5.070   1.484 -0.2867  0.5230  0.7839
 7541SOL     OW23456   2.031   5.973   2.709 -0.5995  0.3873 -0.1199
 7541SOL    HW123457   2.032   5.970   2.614  1.1438  1.3827 -0.1836
 7541SOL    HW223458   1.940   5.955   2.734 -0.7794 -1.4520 -1.8856
 7542SOL     OW23459   5.412   3.198   5.443  0.3147 -0.1512 -0.2779
 7542SOL    HW123460   5.329   3.245   5.440  1.1276  1.3085 -1.1069
 7542SOL    HW223461   5.478   3.265   5.426  1.5437 -1.5636 -1.3328
 7543SOL     OW23462   6.521   0.190   3.724  0.5837  0.2929  0.1876
 7543SOL    HW123463   6.512   0.283   3.704  0.3544  0.3816  0.6828
 7543SOL    HW223464   6.523   0.186   3.819  0.4236 -0.2247  0.1725
 7544SOL     OW23465   3.704   2.669   3.108 -0.6587 -0.3482  0.1906
 7544SOL    HW123466   3.766   2.633   3.172 -0.0571 -0.3930 -0.4122
 7544SOL    HW223467   3.700   2.603   3.039 -0.0968  0.3941 -0.5758
 7545SOL     OW23468   2.454   4.053   5.259 -0.5409 -0.0525  0.3528
 7545SOL    HW123469   2.515   3.993   5.215 -1.0234 -0.1545 -0.1882
 7545SOL    HW223470   2.497   4.139   5.253 -0.6576 -0.0380 -0.4543
 7546SOL     OW23471   1.583   6.707   5.116 -0.1230  0.1272 -0.5279
 7546SOL    HW123472   1.548   6.647   5.181 -0.3340  1.7595  0.9551
 7546SOL    HW223473   1.506   6.752   5.081  0.1564  0.7372 -0.3676
 7547SOL     OW23474   1.423   0.348   1.987  0.0316  0.2646 -0.1642
 7547SOL    HW123475   1.450   0.409   1.918  0.6661 -2.0537 -2.1016
 7547SOL    HW223476   1.496   0.286   1.995 -0.8813 -0.7066  1.1870
 7548SOL     OW23477   7.589   1.764   3.361  0.2266  0.3072 -0.7371
 7548SOL    HW123478   7.529   1.811   3.303  0.2214  0.9712 -0.2085
 7548SOL    HW223479   7.550   1.772   3.448  1.6295  1.7944 -0.1658
 7549SOL     OW23480   4.868   0.907   7.756 -0.0334 -0.2406  0.0004
 7549SOL    HW123481   4.882   0.987   7.706 -0.6190 -0.5335 -0.6490
 7549SOL    HW223482   4.916   0.839   7.706  0.9189 -0.2076  0.8377
 7550SOL     OW23483   5.325   0.247   2.075 -0.0962  0.3451  0.0385
 7550SOL    HW123484   5.392   0.309   2.045  1.1635 -0.6327  0.7056
 7550SOL    HW223485   5.375   0.177   2.118 -1.3334 -1.8832 -1.9175
 7551SOL     OW23486   3.132   3.433   3.562 -0.1610  0.2068  0.1800
 7551SOL    HW123487   3.210   3.457   3.611  0.2066 -0.2358 -0.1785
 7551SOL    HW223488   3.160   3.431   3.471 -0.6065  0.1074  0.0411
 7552SOL     OW23489   5.660   4.995   2.624  0.2423 -0.0851  0.1254
 7552SOL    HW123490   5.696   5.073   2.667 -0.3406  0.5545 -0.5114
 7552SOL    HW223491   5.726   4.928   2.638  0.9843  0.6539  0.2818
 7553SOL     OW23492   2.161   7.165   3.239  0.5442 -0.2589  0.0454
 7553SOL    HW123493   2.233   7.119   3.195 -2.2584 -3.0173 -2.1634
 7553SOL    HW223494   2.121   7.098   3.295 -1.6915  0.4082 -0.6429
 7554SOL     OW23495   7.656   5.761   2.514  0.3791 -0.5630 -0.7441
 7554SOL    HW123496   7.751   5.747   2.507  0.5461 -0.2882  0.5611
 7554SOL    HW223497   7.618   5.703   2.449  1.5048  0.5946 -2.5424
 7555SOL     OW23498   1.068   4.202   2.823 -0.4562  0.3322  0.3654
 7555SOL    HW123499   1.028   4.230   2.741 -1.2893 -1.7412  0.0016
 7555SOL    HW223500   1.027   4.258   2.889  0.0243  1.8350 -0.5560
 7556SOL     OW23501   5.418   2.864   6.704 -0.1729  0.5141  0.7901
 7556SOL    HW123502   5.427   2.876   6.798 -0.0910 -1.5626  1.0870
 7556SOL    HW223503   5.331   2.825   6.693 -0.1424  0.6523  0.0008
 7557SOL     OW23504   6.658   6.248   2.026 -0.1054 -0.5030 -0.1085
 7557SOL    HW123505   6.675   6.153   2.026 -2.4440 -1.0432 -2.8162
 7557SOL    HW223506   6.599   6.261   2.100 -1.6783 -1.6281 -1.1133
 7558SOL     OW23507   1.378   6.707   2.641  0.3812  0.1915  0.1914
 7558SOL    HW123508   1.459   6.722   2.690  0.5195 -1.1084  0.4089
 7558SOL    HW223509   1.405   6.715   2.549  0.7362 -0.0925  0.2667
 7559SOL     OW23510   0.231   1.115   1.630 -0.1350  0.2633 -0.5025
 7559SOL    HW123511   0.249   1.142   1.540  0.9089 -0.4186 -0.5227
 7559SOL    HW223512   0.183   1.033   1.621  0.2053  0.0545 -0.4500
 7560SOL     OW23513   2.945   6.713   5.497 -0.1213  0.3050  0.4104
 7560SOL    HW123514   2.930   6.708   5.403 -2.0233  0.9933  0.6394
 7560SOL    HW223515   3.041   6.709   5.506  0.0965  0.1185 -1.5138
 7561SOL     OW23516   3.250   3.443   2.578  0.1155  0.1202 -0.7622
 7561SOL    HW123517   3.328   3.496   2.560 -0.0346  1.3437  1.7706
 7561SOL    HW223518   3.177   3.502   2.557 -0.0560  1.2785  2.5772
 7562SOL     OW23519   4.457   7.811   3.324  0.1855 -0.1463  0.1826
 7562SOL    HW123520   4.375   7.825   3.277 -0.3280 -0.4270  0.9760
 7562SOL    HW223521   4.523   7.802   3.255 -0.4707 -0.0857 -0.4663
 7563SOL     OW23522   1.881   0.361   6.903 -0.8205  0.2927  0.1104
 7563SOL    HW123523   1.886   0.367   6.808 -2.9978 -0.6800 -0.1301
 7563SOL    HW223524   1.927   0.438   6.935  0.8749  0.0969 -1.6676
 7564SOL     OW23525   6.587   7.379   5.971 -0.2578 -0.5123 -0.0253
 7564SOL    HW123526   6.555   7.385   5.881 -0.1029 -0.4784 -0.0783
 7564SOL    HW223527   6.511   7.401   6.025 -0.9102 -2.4374 -0.0706
 7565SOL     OW23528   0.925   5.431   6.642 -0.2030  0.4287  0.4474
 7565SOL    HW123529   0.846   5.377   6.636 -0.6878  0.7509  2.8913
 7565SOL    HW223530   0.971   5.415   6.560 -2.2365 -0.6692 -0.5526
 7566SOL     OW23531   3.027   5.226   7.135  0.7629  0.2645 -0.2119
 7566SOL    HW123532   2.935   5.248   7.150  0.7664  0.0981  0.0606
 7566SOL    HW223533   3.075   5.305   7.160  0.7934 -0.1261  1.0138
 7567SOL     OW23534   4.798   3.546   3.669 -0.5595 -0.4197  0.0244
 7567SOL    HW123535   4.774   3.634   3.642 -0.6443 -0.7990 -1.1589
 7567SOL    HW223536   4.717   3.508   3.703 -0.5243 -0.0639  0.5327
 7568SOL     OW23537   7.870   1.582   2.803  0.0771  0.0387 -0.0036
 7568SOL    HW123538   7.927   1.645   2.758  0.5362 -0.2540  0.1627
 7568SOL    HW223539   7.840   1.629   2.881 -0.2680  0.3491 -0.3204
 7569SOL     OW23540   1.944   1.628   4.079 -0.6379 -0.4643 -0.1904
 7569SOL    HW123541   1.930   1.671   4.164 -1.3480 -1.3362  0.1511
 7569SOL    HW223542   2.026   1.580   4.089 -1.1791 -1.3045  0.3262
 7570SOL     OW23543   3.629   0.697   3.314  0.5509  0.2252  0.0089
 7570SOL    HW123544   3.554   0.733   3.361 -0.0412 -1.0033  0.0309
 7570SOL    HW223545   3.614   0.720   3.222  1.8654  2.9076  0.3511
 7571SOL     OW23546   2.746   6.022   4.953  1.2062 -0.0367 -0.0936
 7571SOL    HW123547   2.700   6.044   4.872  3.0696  1.5214 -0.7914
 7571SOL    HW223548   2.737   6.101   5.007  3.0256  0.3367 -0.2722
 7572SOL     OW23549   1.587   4.781   6.190  0.2596  0.2881 -0.7118
 7572SOL    HW123550   1.656   4.772   6.256  0.7374 -0.6336 -1.3118
 7572SOL    HW223551   1.588   4.873   6.166 -0.0771  0.6888  0.7253
 7573SOL     OW23552   6.494   1.091   0.311  0.0655 -0.3257 -0.0325
 7573SOL    HW123553   6.569   1.073   0.254 -1.8667 -5.3687 -1.5287
 7573SOL    HW223554   6.531   1.093   0.400  2.3156  1.2314 -0.9119
 7574SOL     OW23555   7.155   5.329   1.447  0.0957 -0.4754 -0.0191
 7574SOL    HW123556   7.198   5.358   1.366  1.1720  1.4141  1.1442
 7574SOL    HW223557   7.122   5.242   1.427 -0.9324  0.4776 -2.9281
 7575SOL     OW23558   0.796   4.111   0.277  0.1703 -0.1119  0.1887
 7575SOL    HW123559   0.705   4.140   0.272  0.2539 -0.0170 -1.3914
 7575SOL    HW223560   0.799   4.032   0.223  1.1202  0.1553 -0.1648
 7576SOL     OW23561   6.835   1.244   1.602  0.0116  0.6842  0.4922
 7576SOL    HW123562   6.903   1.180   1.622  0.7757 -0.3362 -4.2701
 7576SOL    HW223563   6.764   1.192   1.565 -0.1316  2.3261 -1.7411
 7577SOL     OW23564   2.088   6.587   0.645 -0.0937 -0.1784  0.4455
 7577SOL    HW123565   2.003   6.594   0.687  0.6232  0.6995  1.8114
 7577SOL    HW223566   2.096   6.495   0.620 -1.6784 -0.1449 -0.2697
 7578SOL     OW23567   4.755   6.016   7.219 -0.1951 -0.9653 -0.0926
 7578SOL    HW123568   4.671   6.053   7.192  0.5790 -0.6117 -2.2124
 7578SOL    HW223569   4.752   5.926   7.188  0.8759 -0.4377 -1.8627
 7579SOL     OW23570   2.095   1.497   3.829 -0.0168  0.5190  0.4524
 7579SOL    HW123571   2.184   1.522   3.856  0.4102  1.7340 -1.8020
 7579SOL    HW223572   2.043   1.502   3.909  1.4466  2.2924  1.3599
 7580SOL     OW23573   5.830   6.045   5.450  0.6130 -0.4971  0.7413
 7580SOL    HW123574   5.914   6.075   5.417  0.7123  0.9427  2.1726
 7580SOL    HW223575   5.766   6.107   5.413  0.4146 -0.4811  1.1022
 7581SOL     OW23576   1.232   3.431   1.645 -0.4042 -0.2353  0.3471
 7581SOL    HW123577   1.194   3.392   1.566  0.1626  0.0383 -0.0714
 7581SOL    HW223578   1.201   3.376   1.716  0.6666 -1.6961 -0.2542
 7582SOL     OW23579   5.538   0.436   2.052  0.5356  0.0387 -0.5519
 7582SOL    HW123580   5.587   0.455   2.132 -0.6741 -0.8542  0.4406
 7582SOL    HW223581   5.534   0.519   2.005 -2.0489  1.6437  2.1930
 7583SOL     OW23582   3.650   6.919   4.726  0.2430 -0.2830  0.5658
 7583SOL    HW123583   3.681   6.922   4.816  2.0974  0.5389 -0.0442
 7583SOL    HW223584   3.648   6.825   4.704 -0.2485 -0.4870  1.4523
 7584SOL     OW23585   5.370   6.162   3.938  0.1696 -0.0022 -0.2548
 7584SOL    HW123586   5.353   6.110   3.860 -2.3420  1.0151 -0.4784
 7584SOL    HW223587   5.338   6.250   3.916  0.9850  0.7265  1.3286
 7585SOL     OW23588   4.584   1.847   2.621 -0.2007 -0.1068 -0.5685
 7585SOL    HW123589   4.539   1.764   2.636 -0.3773 -0.2277 -1.7139
 7585SOL    HW223590   4.577   1.862   2.527  1.7418  0.1015 -0.7229
 7586SOL     OW23591   1.612   3.629   4.960 -0.2367 -0.5089  0.7211
 7586SOL    HW123592   1.638   3.720   4.972  0.2887 -0.7982  1.8712
 7586SOL    HW223593   1.654   3.603   4.878 -2.3269  0.9571 -0.9026
 7587SOL     OW23594   7.382   0.383   4.770  0.3718  0.5094 -0.3841
 7587SOL    HW123595   7.351   0.434   4.845 -0.8891  0.1907 -0.6720
 7587SOL    HW223596   7.407   0.449   4.705  0.3213  0.7752 -0.1364
 7588SOL     OW23597   4.980   4.570   1.602 -0.1434  0.2053 -0.1483
 7588SOL    HW123598   4.971   4.647   1.546 -1.3366  0.2499  0.0694
 7588SOL    HW223599   5.060   4.585   1.652  1.8065 -0.5250 -2.8355
 7589SOL     OW23600   4.812   3.887   2.566 -0.4847 -1.1491  0.4206
 7589SOL    HW123601   4.752   3.884   2.641  1.2616  0.3233  1.9655
 7589SOL    HW223602   4.893   3.848   2.599  0.5698  0.2262 -0.4580
 7590SOL     OW23603   2.698   1.790   2.159 -0.2367 -0.1013  0.3736
 7590SOL    HW123604   2.680   1.884   2.150 -2.2748 -0.3712  1.1590
 7590SOL    HW223605   2.722   1.779   2.251  2.3287 -0.0677 -0.2105
 7591SOL     OW23606   0.782   5.935   5.304  0.2969  0.2544  0.3448
 7591SOL    HW123607   0.846   5.910   5.238 -1.0174  1.8708 -1.6644
 7591SOL    HW223608   0.752   5.851   5.341  2.1826 -0.6015  0.0694
 7592SOL     OW23609   3.619   6.317   4.299 -0.3740 -0.3444 -0.0730
 7592SOL    HW123610   3.699   6.272   4.329 -0.5148  0.1447  1.0923
 7592SOL    HW223611   3.552   6.291   4.362 -1.8298 -2.7085 -2.3849
 7593SOL     OW23612   7.490   2.259   4.432 -0.2262 -0.2782 -0.1142
 7593SOL    HW123613   7.434   2.279   4.507  0.0317  2.0293 -0.4548
 7593SOL    HW223614   7.580   2.271   4.465 -0.1195  2.7712 -1.1495
 7594SOL     OW23615   0.707   1.877   3.993 -1.3179 -0.6055 -0.0747
 7594SOL    HW123616   0.642   1.807   3.990 -1.2007 -0.7083 -2.1939
 7594SOL    HW223617   0.677   1.936   4.062 -1.6441 -2.5123  1.4723
 7595SOL     OW23618   4.925   0.883   5.109 -0.2313  0.0052 -0.0244
 7595SOL    HW123619   4.925   0.811   5.047 -0.6758 -0.5773  0.6272
 7595SOL    HW223620   4.910   0.961   5.056 -0.3676 -0.4519 -0.6675
 7596SOL     OW23621   3.703   5.985   6.971  0.2380  0.5890  0.0951
 7596SOL    HW123622   3.697   6.001   6.877  0.5753 -0.3059 -0.0855
 7596SOL    HW223623   3.646   5.909   6.986  1.2067 -0.0863  0.3948
 7597SOL     OW23624   6.464   3.432   7.491 -0.0811 -0.3060 -0.1846
 7597SOL    HW123625   6.545   3.446   7.442  0.5666  0.1471  0.9684
 7597SOL    HW223626   6.473   3.346   7.530 -0.9687 -1.0346 -1.4987
 7598SOL     OW23627   6.380   1.428   2.317  0.1821  0.0342 -0.9385
 7598SOL    HW123628   6.472   1.410   2.333 -0.3090 -2.6592 -0.5343
 7598SOL    HW223629   6.354   1.489   2.385  1.1762 -0.9158  0.3305
 7599SOL     OW23630   7.514   3.074   7.662 -0.4181 -0.0244 -0.9219
 7599SOL    HW123631   7.539   3.036   7.746  1.1187  0.7344 -0.9976
 7599SOL    HW223632   7.538   3.008   7.597 -0.0473  0.0737 -0.8835
 7600SOL     OW23633   6.900   6.995   3.789  0.3832  0.1885 -0.1653
 7600SOL    HW123634   6.975   7.009   3.848 -1.2236 -0.8469  2.3354
 7600SOL    HW223635   6.872   7.083   3.764  3.6209  0.6066 -2.9714
 7601SOL     OW23636   5.998   4.895   3.995  0.5021 -0.0660 -0.0519
 7601SOL    HW123637   6.013   4.846   3.914  0.8611  2.0570 -1.3227
 7601SOL    HW223638   5.962   4.830   4.055 -0.3452 -1.5814 -2.0799
 7602SOL     OW23639   5.964   5.473   1.129 -0.0958 -0.3077 -0.2777
 7602SOL    HW123640   6.005   5.401   1.080  1.2912  0.5054 -0.3705
 7602SOL    HW223641   5.996   5.463   1.218 -0.4547 -0.1965 -0.1344
 7603SOL     OW23642   1.505   5.003   3.077  0.0266  0.5992 -0.0453
 7603SOL    HW123643   1.439   5.044   3.021 -0.4136 -0.5868 -0.4072
 7603SOL    HW223644   1.459   4.933   3.123  0.8200  0.3388  0.3756
 7604SOL     OW23645   3.713   7.756   7.512 -0.3090 -0.5303  0.1582
 7604SOL    HW123646   3.690   7.759   7.419 -0.6541  2.0399  0.2483
 7604SOL    HW223647   3.805   7.781   7.515 -0.4417 -0.0647  0.5177
 7605SOL     OW23648   6.714   4.291   5.516 -0.7084  0.4371  0.7028
 7605SOL    HW123649   6.748   4.202   5.528 -1.8116 -0.7353 -3.2804
 7605SOL    HW223650   6.641   4.297   5.576 -1.3596 -1.8751  0.2584
 7606SOL     OW23651   3.475   7.694   5.695  0.2571  0.1542  0.0942
 7606SOL    HW123652   3.459   7.670   5.787 -0.6010  0.5952  0.0740
 7606SOL    HW223653   3.567   7.721   5.693 -0.3356  2.5616  1.3858
 7607SOL     OW23654   0.233   7.788   7.099 -0.1512 -0.1157  0.5920
 7607SOL    HW123655   0.274   7.867   7.134 -0.0310 -0.4121  1.1200
 7607SOL    HW223656   0.175   7.757   7.169 -0.2649 -0.4497  0.3556
 7608SOL     OW23657   7.271   2.472   7.915  0.8764 -0.1130  0.3035
 7608SOL    HW123658   7.311   2.554   7.888 -0.6727  0.9043  0.9510
 7608SOL    HW223659   7.344   2.417   7.942  1.9722  0.8715 -0.5848
 7609SOL     OW23660   5.353   6.996   6.861  0.2382 -0.8148  0.1375
 7609SOL    HW123661   5.433   6.976   6.811 -0.3079 -1.3750 -0.5369
 7609SOL    HW223662   5.376   6.974   6.952  0.3329 -2.6169 -0.2863
 7610SOL     OW23663   6.428   1.804   0.795  0.6050  0.2824  0.7404
 7610SOL    HW123664   6.454   1.875   0.737 -0.3098  0.4449  0.5014
 7610SOL    HW223665   6.507   1.782   0.844  1.1775  0.7074  0.0265
 7611SOL     OW23666   1.482   3.002   0.059  0.4000 -0.1211 -0.1644
 7611SOL    HW123667   1.522   2.956   0.133 -0.5480 -1.1726 -0.2918
 7611SOL    HW223668   1.416   3.059   0.099  1.7622  1.4186  0.0206
 7612SOL     OW23669   6.447   1.496   7.062  0.5070  0.0867 -0.0435
 7612SOL    HW123670   6.515   1.447   7.109  0.9152 -1.7454 -2.3699
 7612SOL    HW223671   6.494   1.555   7.004  0.1592 -0.8993 -1.3725
 7613SOL     OW23672   1.900   2.508   0.700  0.1534 -0.0177  0.6605
 7613SOL    HW123673   1.807   2.503   0.679  0.3821 -1.5275 -0.1140
 7613SOL    HW223674   1.903   2.540   0.790 -1.1125 -0.0171  0.7211
 7614SOL     OW23675   6.003   5.781   5.907 -0.1271  0.2369 -0.0774
 7614SOL    HW123676   6.005   5.833   5.826  1.9543  0.9152  0.3458
 7614SOL    HW223677   6.091   5.745   5.914 -1.3213 -2.9547 -0.0213
 7615SOL     OW23678   1.766   5.238   2.148  0.9381 -0.0651 -0.5214
 7615SOL    HW123679   1.687   5.286   2.173  1.0107 -0.7892  1.3065
 7615SOL    HW223680   1.794   5.278   2.066 -1.3988  0.1052 -1.3071
 7616SOL     OW23681   4.469   3.306   1.425 -0.1126  0.6724 -0.5173
 7616SOL    HW123682   4.497   3.215   1.415 -0.2540  0.8370 -3.0753
 7616SOL    HW223683   4.375   3.300   1.443  0.0392  0.3072  0.1756
 7617SOL     OW23684   4.365   2.516   1.482  0.0287  0.5081  0.4444
 7617SOL    HW123685   4.341   2.602   1.516 -0.0709  1.1104 -1.1152
 7617SOL    HW223686   4.344   2.519   1.389  0.1586 -1.1591  0.3247
 7618SOL     OW23687   0.311   5.572   1.522 -0.1707  0.3906 -0.1615
 7618SOL    HW123688   0.398   5.534   1.507 -0.3271  0.4643 -1.4095
 7618SOL    HW223689   0.311   5.597   1.614  0.1337 -2.1431  0.6278
 7619SOL     OW23690   7.937   7.550   2.294  0.5446  0.0637 -0.5405
 7619SOL    HW123691   7.891   7.622   2.250 -2.6370 -1.5658 -0.1885
 7619SOL    HW223692   7.968   7.588   2.376 -3.4721  0.5948  0.9557
 7620SOL     OW23693   1.207   4.934   6.180 -0.0714  0.0687  0.5874
 7620SOL    HW123694   1.165   4.954   6.096 -1.7008 -2.5122  0.6604
 7620SOL    HW223695   1.301   4.939   6.161 -0.3929 -0.7813 -1.5170
 7621SOL     OW23696   5.199   0.990   6.900  0.2389  0.4020 -0.1287
 7621SOL    HW123697   5.158   0.940   6.830 -1.1499 -0.1632  1.0369
 7621SOL    HW223698   5.292   0.991   6.878  0.0238 -0.9620 -1.2274
 7622SOL     OW23699   2.281   0.137   4.284 -0.1311 -0.0757  0.1094
 7622SOL    HW123700   2.205   0.108   4.334  0.7998 -1.5931  0.7155
 7622SOL    HW223701   2.348   0.157   4.350  0.3248  0.2836 -0.4448
 7623SOL     OW23702   4.789   2.584   0.859 -0.2846 -0.6765  0.4472
 7623SOL    HW123703   4.773   2.571   0.766  1.5433 -0.9214  0.1231
 7623SOL    HW223704   4.745   2.666   0.880  0.8466  0.3777 -1.1006
 7624SOL     OW23705   4.530   3.107   2.911  0.7490 -0.5199 -1.0403
 7624SOL    HW123706   4.534   3.152   2.826 -1.9774  1.6037 -0.1960
 7624SOL    HW223707   4.542   3.177   2.975  0.0498 -1.6166  0.3384
 7625SOL     OW23708   4.269   7.834   5.237 -0.6600  0.1770 -0.3263
 7625SOL    HW123709   4.314   7.769   5.183  1.1365  2.4434 -1.7359
 7625SOL    HW223710   4.176   7.824   5.214 -0.3592 -1.3621 -1.0348
 7626SOL     OW23711   2.979   0.854   6.145  0.0493 -0.8399  0.0264
 7626SOL    HW123712   2.957   0.801   6.222 -0.7439 -1.5359 -0.6640
 7626SOL    HW223713   2.898   0.856   6.093  0.6376 -0.5608 -0.8975
 7627SOL     OW23714   6.815   0.390   7.174 -0.3699  0.0179  0.4398
 7627SOL    HW123715   6.895   0.430   7.207  0.1486 -0.4219 -0.2241
 7627SOL    HW223716   6.842   0.302   7.147 -0.8787  0.1450 -0.5665
 7628SOL     OW23717   4.642   2.694   3.710  0.1192  0.4720 -0.1478
 7628SOL    HW123718   4.562   2.681   3.761 -0.1106 -1.1323 -0.8684
 7628SOL    HW223719   4.652   2.789   3.705 -1.9310  0.7168 -0.3515
 7629SOL     OW23720   0.588   1.446   6.257  0.0813  0.9515  0.3704
 7629SOL    HW123721   0.669   1.417   6.215 -0.3763  0.8662 -0.4868
 7629SOL    HW223722   0.609   1.452   6.350  0.3873 -1.5294  0.5127
 7630SOL     OW23723   4.659   1.843   2.120 -0.0427  0.0924  0.4590
 7630SOL    HW123724   4.662   1.753   2.154  1.0141 -0.4993 -1.1061
 7630SOL    HW223725   4.745   1.879   2.140  0.4732 -0.1489 -1.1844
 7631SOL     OW23726   0.327   1.472   2.420 -0.2409 -0.1888 -0.1071
 7631SOL    HW123727   0.250   1.476   2.364  0.0255 -0.1450 -0.4735
 7631SOL    HW223728   0.360   1.383   2.410  1.3842  0.5436 -2.1816
 7632SOL     OW23729   1.236   6.149   2.490  0.8818 -0.2755  0.4404
 7632SOL    HW123730   1.249   6.056   2.504  1.3288 -0.4774 -1.1327
 7632SOL    HW223731   1.147   6.167   2.521 -0.6865 -2.0153 -2.6385
 7633SOL     OW23732   3.569   7.173   3.171  0.0399 -0.2997  0.4695
 7633SOL    HW123733   3.551   7.135   3.086  0.7628  0.0606  0.1483
 7633SOL    HW223734   3.582   7.267   3.154  1.5599 -0.4311  0.7519
 7634SOL     OW23735   7.877   4.016   4.710 -0.0791  0.3789 -0.5138
 7634SOL    HW123736   7.797   3.965   4.724  0.8855 -1.3463 -0.9074
 7634SOL    HW223737   7.848   4.093   4.660 -1.6742  0.5193  0.5386
 7635SOL     OW23738   4.039   0.919   5.773 -0.3420 -0.2057  0.4219
 7635SOL    HW123739   4.019   0.830   5.744 -1.1154 -0.5942  2.0383
 7635SOL    HW223740   4.012   0.975   5.699 -1.2976 -1.2152 -0.0188
 7636SOL     OW23741   2.227   2.743   1.739 -0.4555  0.3979 -0.2094
 7636SOL    HW123742   2.313   2.762   1.776 -1.2787  0.5665  1.7519
 7636SOL    HW223743   2.189   2.829   1.722 -0.5493  0.3400 -0.2923
 7637SOL     OW23744   5.325   5.534   1.536 -0.0572 -0.0500 -0.2397
 7637SOL    HW123745   5.311   5.467   1.469  1.0659 -0.5255 -0.0331
 7637SOL    HW223746   5.284   5.499   1.615  0.0412 -0.2378 -0.2715
 7638SOL     OW23747   5.469   2.364   4.210 -0.0094  0.5534  0.3473
 7638SOL    HW123748   5.457   2.290   4.150  1.3394  0.4340  0.1821
 7638SOL    HW223749   5.405   2.429   4.182 -1.3077 -0.5845  0.5773
 7639SOL     OW23750   6.164   2.459   2.529  0.5077  0.3472 -0.0571
 7639SOL    HW123751   6.072   2.433   2.525  0.8569 -0.9575 -0.0996
 7639SOL    HW223752   6.211   2.377   2.543  1.4674  1.3051  3.1406
 7640SOL     OW23753   6.841   3.624   3.529  0.8939  0.2474  0.2829
 7640SOL    HW123754   6.814   3.713   3.506  1.2217 -0.0541 -1.4274
 7640SOL    HW223755   6.770   3.568   3.497  1.8777 -0.2743 -1.1011
 7641SOL     OW23756   1.216   1.622   3.229 -0.0133 -0.9082 -0.5365
 7641SOL    HW123757   1.266   1.601   3.307 -1.5636 -1.2357  0.4296
 7641SOL    HW223758   1.179   1.538   3.201  0.2927 -0.7477 -1.4527
 7642SOL     OW23759   7.661   3.016   5.793 -0.6146  0.5570 -0.0226
 7642SOL    HW123760   7.617   2.943   5.749 -1.3031  0.2856  1.0940
 7642SOL    HW223761   7.743   2.979   5.826 -0.6429  0.4675 -0.0527
 7643SOL     OW23762   1.052   1.090   4.132 -0.6549  0.2347  0.8948
 7643SOL    HW123763   1.117   1.060   4.069 -2.8740 -0.8962 -1.0471
 7643SOL    HW223764   1.091   1.168   4.173  2.6315 -1.4755  1.3179
 7644SOL     OW23765   5.977   4.839   6.986  0.2905  0.2349  0.2741
 7644SOL    HW123766   6.055   4.794   6.953  0.8871  0.5836  1.1605
 7644SOL    HW223767   5.904   4.784   6.958  0.8256  0.1174 -0.9280
 7645SOL     OW23768   3.785   6.467   0.894  0.2376 -0.5495 -0.0132
 7645SOL    HW123769   3.736   6.430   0.968 -1.7812  1.3749 -0.3160
 7645SOL    HW223770   3.719   6.499   0.834  1.8746 -0.2798 -1.7660
 7646SOL     OW23771   1.533   5.869   7.514  0.2492 -0.2526  0.8522
 7646SOL    HW123772   1.547   5.957   7.548  0.5603 -0.2696  0.7674
 7646SOL    HW223773   1.550   5.876   7.420 -1.5615  0.0151  0.5068
 7647SOL     OW23774   1.386   5.783   3.959  0.5948  0.2171 -0.4483
 7647SOL    HW123775   1.386   5.858   3.900 -0.5862 -2.7448 -4.7439
 7647SOL    HW223776   1.477   5.752   3.959  0.5887  0.1985 -0.7784
 7648SOL     OW23777   1.394   3.573   2.373 -0.0770  0.0160  0.2714
 7648SOL    HW123778   1.317   3.550   2.424 -0.0357  0.6755  0.6282
 7648SOL    HW223779   1.420   3.659   2.404  0.8427 -0.2175  0.2039
 7649SOL     OW23780   0.831   6.551   0.470 -0.3729 -0.0224  0.3026
 7649SOL    HW123781   0.786   6.631   0.495 -0.5606 -0.0325  0.0073
 7649SOL    HW223782   0.776   6.512   0.402 -0.6254 -0.7430  0.9038
 7650SOL     OW23783   7.365   1.870   4.214 -0.8867  0.2738 -0.3060
 7650SOL    HW123784   7.326   1.858   4.301 -2.5893 -0.8793 -1.1569
 7650SOL    HW223785   7.335   1.956   4.187 -0.9277  0.3489 -0.0290
 7651SOL     OW23786   5.146   6.412   6.689  0.3193  0.0210  0.5043
 7651SOL    HW123787   5.071   6.454   6.731  0.2239  1.6023 -1.1506
 7651SOL    HW223788   5.173   6.473   6.620  2.7535 -0.7934  0.6423
 7652SOL     OW23789   5.079   1.504   4.853  0.3610  0.5405 -0.9883
 7652SOL    HW123790   5.042   1.500   4.941 -0.7628  1.4391 -1.4107
 7652SOL    HW223791   5.087   1.412   4.827  1.7508  0.1904  0.4396
 7653SOL     OW23792   2.997   5.580   4.643 -0.0434  0.0584 -0.2014
 7653SOL    HW123793   3.029   5.637   4.573 -0.5413  1.4544  0.6656
 7653SOL    HW223794   3.017   5.627   4.724 -0.8927 -0.7836  0.5338
 7654SOL     OW23795   7.594   5.634   3.877  0.2031  0.2056  0.2153
 7654SOL    HW123796   7.631   5.722   3.868  0.3451  0.3488  1.9638
 7654SOL    HW223797   7.500   5.647   3.867  0.1833  0.6345  0.8983
 7655SOL     OW23798   5.178   6.881   1.200  0.0415 -0.4836 -0.3810
 7655SOL    HW123799   5.268   6.850   1.210  0.5964  1.0691 -0.2911
 7655SOL    HW223800   5.124   6.806   1.226  1.3235 -0.7745  1.6434
 7656SOL     OW23801   1.115   0.260   0.180 -0.1021 -0.4463 -0.0851
 7656SOL    HW123802   1.078   0.302   0.102 -1.1508 -0.7775  0.2146
 7656SOL    HW223803   1.186   0.206   0.146 -1.3901 -1.6392 -1.0294
 7657SOL     OW23804   2.643   2.038   5.307  0.4494 -0.3295 -0.4368
 7657SOL    HW123805   2.709   2.055   5.240  0.4276 -1.6719 -0.8193
 7657SOL    HW223806   2.622   1.945   5.298 -0.7707 -0.1541  0.3420
 7658SOL     OW23807   3.995   1.442   5.538 -0.3259  0.3992 -0.0648
 7658SOL    HW123808   3.990   1.471   5.629 -1.8551  0.3922 -0.1261
 7658SOL    HW223809   3.999   1.523   5.487  1.3547  0.4021  0.0135
 7659SOL     OW23810   3.111   7.372   3.143  0.6601 -0.2519 -0.4012
 7659SOL    HW123811   3.031   7.415   3.112 -0.4632 -1.4189  0.7853
 7659SOL    HW223812   3.147   7.329   3.065 -1.0399 -1.4867 -0.5423
 7660SOL     OW23813   4.866   0.304   4.284  0.3046  0.3370  0.2179
 7660SOL    HW123814   4.870   0.392   4.321  4.6306  0.7187 -0.5239
 7660SOL    HW223815   4.911   0.311   4.200  1.0954 -2.5884  0.2602
 7661SOL     OW23816   5.442   2.410   7.515 -0.2289  0.8200  0.4165
 7661SOL    HW123817   5.472   2.423   7.425 -0.0979  0.1815  0.3589
 7661SOL    HW223818   5.384   2.334   7.509  0.1094  0.5145  0.9389
 7662SOL     OW23819   2.908   7.062   0.729 -0.1148  0.2352 -0.3817
 7662SOL    HW123820   2.826   7.022   0.757  0.0071 -0.2022 -0.6407
 7662SOL    HW223821   2.886   7.154   0.713 -0.0576  0.6576  1.6944
 7663SOL     OW23822   4.404   5.263   2.487 -0.4771  0.2720 -0.1202
 7663SOL    HW123823   4.431   5.176   2.459  2.5112  0.6664  1.2301
 7663SOL    HW223824   4.408   5.317   2.407  2.2976  0.1433 -0.1391
 7664SOL     OW23825   5.319   2.979   6.041  0.1896  0.0165  0.1634
 7664SOL    HW123826   5.350   2.981   6.131 -0.3580  1.0923  0.3350
 7664SOL    HW223827   5.226   3.000   6.046  0.5754  2.2729 -0.7968
 7665SOL     OW23828   0.417   1.427   3.552 -0.0263 -0.3208 -0.0252
 7665SOL    HW123829   0.509   1.404   3.541  0.7371  2.4691 -0.3857
 7665SOL    HW223830   0.377   1.408   3.467  0.4229 -0.6704 -0.1635
 7666SOL     OW23831   3.938   1.945   5.583 -0.1233 -0.2359  0.5387
 7666SOL    HW123832   4.006   1.991   5.633 -0.3442  0.9383 -0.2070
 7666SOL    HW223833   3.856   1.990   5.607 -0.2890  0.0639 -0.5302
 7667SOL     OW23834   4.787   3.846   5.462 -0.1354 -0.1111  0.1407
 7667SOL    HW123835   4.758   3.755   5.461 -0.4723 -0.0092 -1.2710
 7667SOL    HW223836   4.881   3.841   5.481  0.0755 -0.8337 -1.0184
 7668SOL     OW23837   4.684   7.556   6.713 -0.0958 -0.7274  0.1852
 7668SOL    HW123838   4.719   7.645   6.725  0.1792 -0.9249  0.9248
 7668SOL    HW223839   4.669   7.524   6.802  0.2808 -1.6081 -0.0548
 7669SOL     OW23840   7.295   4.529   3.506  0.4296 -0.1062  0.2290
 7669SOL    HW123841   7.250   4.613   3.495  0.8482 -0.0534 -1.3808
 7669SOL    HW223842   7.387   4.551   3.516  0.4177 -0.3345  0.8848
 7670SOL     OW23843   3.204   3.202   5.718 -0.7561  0.0771 -0.1356
 7670SOL    HW123844   3.199   3.183   5.812 -0.4942  0.5009 -0.0299
 7670SOL    HW223845   3.297   3.223   5.703 -0.4104 -1.7568 -0.8444
 7671SOL     OW23846   3.027   3.455   0.011  0.5535 -0.0282  0.0154
 7671SOL    HW123847   3.063   3.466   0.098 -0.2765 -1.4734  0.5683
 7671SOL    HW223848   2.941   3.496   0.015  0.7435  0.4102 -0.3009
 7672SOL     OW23849   0.854   6.366   1.046 -0.6728 -0.4039 -0.5040
 7672SOL    HW123850   0.888   6.400   0.964  0.6686  0.7387  0.4779
 7672SOL    HW223851   0.885   6.275   1.049  0.2998 -0.0933 -0.7262
 7673SOL     OW23852   6.117   3.174   5.611 -0.2290  0.0844  0.1484
 7673SOL    HW123853   6.151   3.232   5.543 -0.4153  0.7201  0.5792
 7673SOL    HW223854   6.079   3.234   5.676 -1.2810 -0.5598  0.1502
 7674SOL     OW23855   4.238   0.191   5.832 -0.7507 -0.1982 -0.6357
 7674SOL    HW123856   4.254   0.283   5.808 -0.2894 -0.3692 -0.9935
 7674SOL    HW223857   4.196   0.153   5.755  1.4686 -0.9565 -1.5465
 7675SOL     OW23858   3.958   6.176   6.999  0.0914 -0.5008  0.1693
 7675SOL    HW123859   3.939   6.259   6.955  1.0513 -0.2313  0.2377
 7675SOL    HW223860   3.878   6.124   6.988 -0.2186  0.1176 -0.6000
 7676SOL     OW23861   0.917   1.708   4.298 -0.0698 -0.7563 -0.9311
 7676SOL    HW123862   0.934   1.623   4.340  0.0807 -0.3039 -0.0659
 7676SOL    HW223863   0.927   1.690   4.205  2.4495 -1.1400 -0.6429
 7677SOL     OW23864   3.706   7.350   1.770  0.2121 -0.2610 -0.4860
 7677SOL    HW123865   3.740   7.269   1.808  0.4637 -0.7765 -1.7441
 7677SOL    HW223866   3.611   7.344   1.779  0.2145 -0.8381 -0.8293
 7678SOL     OW23867   6.621   5.835   2.537 -0.6363  0.0682  0.5493
 7678SOL    HW123868   6.699   5.889   2.547 -0.6268  0.5097 -1.4949
 7678SOL    HW223869   6.654   5.745   2.539 -0.1206  0.2443  0.1717
 7679SOL     OW23870   6.049   1.543   2.141 -0.4758 -0.6188 -0.0764
 7679SOL    HW123871   6.025   1.619   2.088 -0.9844 -0.4489  0.3851
 7679SOL    HW223872   5.966   1.511   2.176  0.0073  0.6871  2.5096
 7680SOL     OW23873   0.753   2.828   2.274 -0.5063 -0.0652 -0.0772
 7680SOL    HW123874   0.729   2.739   2.303 -1.7598  0.6166  1.0905
 7680SOL    HW223875   0.716   2.836   2.186  1.2611 -1.3227 -1.0146
 7681SOL     OW23876   6.025   5.638   5.547  0.3975 -0.6359  0.4202
 7681SOL    HW123877   5.980   5.614   5.466 -0.9385  1.4527  0.4910
 7681SOL    HW223878   6.111   5.669   5.518 -1.0914  3.0454 -0.6912
 7682SOL     OW23879   7.361   0.786   4.710 -0.0304 -0.5240 -0.2277
 7682SOL    HW123880   7.324   0.738   4.784  1.1688 -0.6746  0.2896
 7682SOL    HW223881   7.411   0.721   4.661 -0.2221 -0.2681 -0.7656
 7683SOL     OW23882   2.318   0.575   4.367 -0.2457  0.8463 -0.2401
 7683SOL    HW123883   2.398   0.552   4.414 -0.0948  0.6717 -0.5726
 7683SOL    HW223884   2.335   0.545   4.277 -2.2503 -3.0717  0.4733
 7684SOL     OW23885   0.903   7.857   6.979 -0.3758 -0.2885 -0.0269
 7684SOL    HW123886   0.916   7.788   7.044 -0.4753 -0.3972 -0.1203
 7684SOL    HW223887   0.899   7.810   6.895 -1.5744 -0.2848  0.0114
 7685SOL     OW23888   2.331   2.740   3.913 -0.4170  0.2043  0.1289
 7685SOL    HW123889   2.376   2.823   3.929 -0.4325  0.0199  1.2179
 7685SOL    HW223890   2.320   2.701   4.000 -2.6989  0.2658 -0.0531
 7686SOL     OW23891   4.530   3.786   0.289 -0.5257  0.1804  0.1908
 7686SOL    HW123892   4.493   3.717   0.343 -0.7520 -0.1256 -0.3462
 7686SOL    HW223893   4.459   3.810   0.228 -0.3681  0.7056  0.2023
 7687SOL     OW23894   6.328   0.124   5.847  0.5514 -0.6048  0.3064
 7687SOL    HW123895   6.262   0.166   5.902 -0.2358  0.1019 -1.1059
 7687SOL    HW223896   6.351   0.044   5.893  0.0451  0.0274  1.7233
 7688SOL     OW23897   1.668   7.142   6.070  0.1888  0.0910 -0.0314
 7688SOL    HW123898   1.682   7.206   6.140 -0.6264 -1.0279  1.1927
 7688SOL    HW223899   1.648   7.195   5.993 -1.3328  1.3125  1.1419
 7689SOL     OW23900   7.387   0.457   7.754 -0.0675  0.2930  0.0107
 7689SOL    HW123901   7.397   0.519   7.826 -0.0281  1.6196 -1.1037
 7689SOL    HW223902   7.300   0.475   7.718 -0.3304 -0.7601  0.0685
 7690SOL     OW23903   1.867   2.533   4.346  0.1504 -0.3220 -0.1331
 7690SOL    HW123904   1.913   2.599   4.295  1.2041 -0.2326  0.8930
 7690SOL    HW223905   1.890   2.450   4.304  1.8756 -0.3446  0.7919
 7691SOL     OW23906   2.357   2.150   3.676  0.4124 -0.3445  0.5228
 7691SOL    HW123907   2.335   2.174   3.586 -2.6319  1.0171  1.4885
 7691SOL    HW223908   2.369   2.055   3.673  1.6385 -0.1754 -1.4943
 7692SOL     OW23909   5.148   6.093   0.666  0.1033 -0.1929 -0.4837
 7692SOL    HW123910   5.103   6.173   0.695 -0.3732 -0.9021  0.8278
 7692SOL    HW223911   5.099   6.064   0.589 -0.3082  0.2537 -0.3945
 7693SOL     OW23912   7.368   1.689   7.648  0.3265  0.2174  0.2234
 7693SOL    HW123913   7.443   1.729   7.603  0.4872 -0.3305  0.0003
 7693SOL    HW223914   7.408   1.625   7.708 -0.0249 -2.7960 -2.4787
 7694SOL     OW23915   3.177   0.853   2.172 -0.4571  0.4098  0.1607
 7694SOL    HW123916   3.188   0.934   2.122  0.4155  0.9906  1.2366
 7694SOL    HW223917   3.083   0.843   2.182 -0.6374  0.4450 -1.2972
 7695SOL     OW23918   2.252   0.292   5.136 -0.2967  0.2798  0.6417
 7695SOL    HW123919   2.195   0.366   5.160  1.2382  1.5294  0.6403
 7695SOL    HW223920   2.255   0.295   5.041 -2.0687 -1.2873  0.4837
 7696SOL     OW23921   2.220   7.185   5.763 -0.1400 -0.0364 -0.1672
 7696SOL    HW123922   2.216   7.090   5.752  1.0510 -0.1018 -0.1275
 7696SOL    HW223923   2.167   7.219   5.691 -1.1948 -0.7281  0.2438
 7697SOL     OW23924   2.590   4.346   6.147 -0.1040 -0.0274  0.2374
 7697SOL    HW123925   2.598   4.394   6.229 -1.1503  1.7069 -0.6187
 7697SOL    HW223926   2.674   4.359   6.103  0.1977 -0.3575  0.7032
 7698SOL     OW23927   4.595   3.751   0.727 -0.5293 -0.6450  0.3200
 7698SOL    HW123928   4.629   3.796   0.804  1.6123  0.6989 -1.2881
 7698SOL    HW223929   4.630   3.801   0.653 -2.8825 -1.5931 -1.5486
 7699SOL     OW23930   2.657   1.118   4.765  0.2182  0.1317 -0.5176
 7699SOL    HW123931   2.568   1.084   4.751  1.7283 -4.0751 -1.4867
 7699SOL    HW223932   2.675   1.173   4.689 -1.1340 -0.0075 -0.9587
 7700SOL     OW23933   1.411   5.706   6.679  0.0057  0.0672 -0.1675
 7700SOL    HW123934   1.467   5.782   6.697  1.2615 -1.4692  3.2594
 7700SOL    HW223935   1.323   5.741   6.677  0.6651  1.8257 -0.1813
 7701SOL     OW23936   1.650   1.059   2.088  0.0320 -0.1543 -0.0595
 7701SOL    HW123937   1.577   1.019   2.136  2.2879 -1.5611  2.4586
 7701SOL    HW223938   1.716   1.077   2.154  1.9492  1.2953 -2.1862
 7702SOL     OW23939   4.788   6.843   0.434 -0.8539 -0.2170  0.0683
 7702SOL    HW123940   4.790   6.931   0.396  0.0154 -0.0108  0.5835
 7702SOL    HW223941   4.752   6.788   0.364  1.5399 -0.0020 -1.4420
 7703SOL     OW23942   7.645   7.781   7.827 -0.1137 -0.8341 -0.2345
 7703SOL    HW123943   7.731   7.815   7.802 -1.2206  2.2970 -0.1632
 7703SOL    HW223944   7.639   7.798   7.921 -1.1570 -0.1439 -0.4140
 7704SOL     OW23945   1.391   2.552   4.814  0.3604 -0.3449  0.3783
 7704SOL    HW123946   1.352   2.521   4.896  0.7030 -0.9267  0.3232
 7704SOL    HW223947   1.442   2.478   4.782  0.6004  0.0358 -0.1292
 7705SOL     OW23948   3.853   0.235   6.998 -0.3448 -0.2231  0.3793
 7705SOL    HW123949   3.817   0.318   6.965 -1.0451 -0.6259  0.1050
 7705SOL    HW223950   3.858   0.247   7.093  1.8913  1.0265  0.1740
 7706SOL     OW23951   0.394   1.708   2.545  0.1842 -0.3047 -0.0974
 7706SOL    HW123952   0.471   1.744   2.501 -0.8541  0.6066 -1.2290
 7706SOL    HW223953   0.375   1.627   2.499 -0.5947  0.3893 -1.0339
 7707SOL     OW23954   5.339   3.369   4.646 -0.0532  0.3086  0.3744
 7707SOL    HW123955   5.255   3.326   4.662  0.4314 -0.5337  0.6870
 7707SOL    HW223956   5.320   3.462   4.658 -1.0867  0.1852 -0.1888
 7708SOL     OW23957   0.433   6.130   7.326 -0.2862  0.2898  0.2207
 7708SOL    HW123958   0.338   6.132   7.334 -0.2716 -2.3926  2.1125
 7708SOL    HW223959   0.455   6.039   7.309  1.8677  1.2333 -3.0343
 7709SOL     OW23960   6.312   1.833   6.905  0.6465  0.5139 -0.3510
 7709SOL    HW123961   6.362   1.850   6.825  1.3669  2.2332  0.4008
 7709SOL    HW223962   6.376   1.843   6.976 -0.1756 -0.0244  0.4918
 7710SOL     OW23963   2.703   5.191   0.918 -0.3537 -0.4133 -0.2819
 7710SOL    HW123964   2.788   5.233   0.932 -0.6066  0.6593 -1.6915
 7710SOL    HW223965   2.725   5.106   0.880  0.1175  0.3743 -1.8868
 7711SOL     OW23966   4.732   2.963   0.172  0.1425  0.0710 -0.3672
 7711SOL    HW123967   4.781   2.902   0.118  0.0988 -2.4498  2.2037
 7711SOL    HW223968   4.790   3.039   0.180  1.4047 -0.7218 -1.4930
 7712SOL     OW23969   7.608   1.293   5.165  0.1157  0.0770  0.1761
 7712SOL    HW123970   7.554   1.235   5.218 -0.1286  0.4101  0.3023
 7712SOL    HW223971   7.689   1.303   5.214 -0.1141  0.3922  0.4976
 7713SOL     OW23972   5.572   5.169   5.458 -0.4250 -0.2606  0.5175
 7713SOL    HW123973   5.506   5.237   5.463  0.5071  0.7485 -0.2448
 7713SOL    HW223974   5.536   5.105   5.396 -0.6985  0.2763  0.1131
 7714SOL     OW23975   2.524   5.081   5.183  0.3752 -0.2387 -0.2221
 7714SOL    HW123976   2.574   5.148   5.229 -1.0910  0.6158  0.1885
 7714SOL    HW223977   2.538   5.100   5.090 -1.0061  1.4699 -0.1389
 7715SOL     OW23978   3.182   2.790   6.328  0.5495 -0.0653 -0.1537
 7715SOL    HW123979   3.112   2.791   6.394 -0.8875  0.1266 -1.6192
 7715SOL    HW223980   3.137   2.777   6.245  2.4854 -2.6322 -0.9383
 7716SOL     OW23981   1.238   7.796   6.925  0.2970 -0.0890 -0.3484
 7716SOL    HW123982   1.214   7.764   6.839  0.1042  0.0144 -0.3355
 7716SOL    HW223983   1.154   7.809   6.970  0.1823  2.5837 -1.1306
 7717SOL     OW23984   5.436   3.265   4.390 -0.1271  0.2072 -0.4182
 7717SOL    HW123985   5.416   3.316   4.468 -0.6657 -1.4222  0.5364
 7717SOL    HW223986   5.523   3.229   4.406  0.3383  0.9542 -1.1792
 7718SOL     OW23987   1.588   2.536   7.551 -0.1063 -1.0974 -0.2279
 7718SOL    HW123988   1.665   2.588   7.575 -0.0857 -1.0746 -0.3432
 7718SOL    HW223989   1.528   2.600   7.511 -0.3578 -1.0339  0.2425
 7719SOL     OW23990   5.461   1.498   2.600 -0.6805  0.0076 -0.2637
 7719SOL    HW123991   5.390   1.466   2.545  0.2002 -0.8531 -0.9463
 7719SOL    HW223992   5.474   1.589   2.571 -1.6247  0.2459  0.0229
 7720SOL     OW23993   5.907   0.633   0.110 -0.1564 -0.5192 -0.6176
 7720SOL    HW123994   5.913   0.540   0.087 -1.2564 -0.7079 -0.2447
 7720SOL    HW223995   5.979   0.647   0.172  0.1344 -1.0768 -0.8190
 7721SOL     OW23996   2.901   0.988   7.126  0.3633  0.2945  0.0704
 7721SOL    HW123997   2.912   1.051   7.055  0.5978  0.2009  0.0206
 7721SOL    HW223998   2.813   0.953   7.114  0.5508 -0.0171 -0.4188
 7722SOL     OW23999   0.190   5.503   6.787 -0.0700 -0.3518  0.1027
 7722SOL    HW124000   0.272   5.472   6.748  0.1816 -1.2833  1.3302
 7722SOL    HW224001   0.130   5.512   6.712  1.5029  1.7051 -1.0189
 7723SOL     OW24002   3.805   5.192   2.232  0.3804  0.4675 -0.2892
 7723SOL    HW124003   3.787   5.143   2.312 -0.6575 -0.0372 -0.8057
 7723SOL    HW224004   3.752   5.272   2.242 -1.6024 -0.6300 -1.4375
 7724SOL     OW24005   2.697   1.301   4.537  0.5090 -0.3593  0.4203
 7724SOL    HW124006   2.723   1.299   4.445 -0.3446  0.3006  0.1506
 7724SOL    HW224007   2.651   1.384   4.547 -0.7240 -1.0880  1.0720
 7725SOL     OW24008   6.143   1.564   7.547  0.0490  0.6104  0.0826
 7725SOL    HW124009   6.237   1.568   7.528  0.1812  0.3186  0.6611
 7725SOL    HW224010   6.104   1.535   7.465  0.4356  0.9796 -0.2368
 7726SOL     OW24011   3.583   3.113   2.407  0.3058  0.6516  0.6726
 7726SOL    HW124012   3.524   3.136   2.479 -1.0588  0.9909 -0.4934
 7726SOL    HW224013   3.526   3.112   2.329  2.0362  2.1299 -0.7044
 7727SOL     OW24014   7.394   0.710   7.211 -0.2477 -0.4572 -0.2477
 7727SOL    HW124015   7.443   0.747   7.284 -0.6834 -0.5559  0.0997
 7727SOL    HW224016   7.459   0.696   7.142  0.1349 -0.2121  0.0635
 7728SOL     OW24017   2.558   0.769   0.388 -0.8576  0.2289 -0.3256
 7728SOL    HW124018   2.518   0.853   0.365 -0.2785  0.6780  0.2858
 7728SOL    HW224019   2.626   0.757   0.322  0.6000  1.3712  0.8989
 7729SOL     OW24020   2.846   2.872   4.447 -0.3045  0.4809 -0.1462
 7729SOL    HW124021   2.909   2.944   4.446  0.5503 -0.2434  0.1356
 7729SOL    HW224022   2.900   2.793   4.443 -1.2648 -0.1641 -2.7280
 7730SOL     OW24023   1.435   1.720   1.920  0.4028  0.1498 -0.6442
 7730SOL    HW124024   1.517   1.751   1.960  0.2066  0.5628 -0.5541
 7730SOL    HW224025   1.376   1.795   1.927 -0.8764 -0.9670  1.7704
 7731SOL     OW24026   7.163   1.308   1.925 -0.4461 -0.1808 -0.1751
 7731SOL    HW124027   7.194   1.293   2.014 -0.1349 -0.7836 -0.3802
 7731SOL    HW224028   7.070   1.286   1.927 -0.1577 -1.4515 -0.2976
 7732SOL     OW24029   2.780   1.236   4.983  0.2508  0.2543 -0.5753
 7732SOL    HW124030   2.732   1.317   4.994  2.6616  1.8223 -0.8150
 7732SOL    HW224031   2.743   1.196   4.904 -1.3404  0.8106 -0.1378
 7733SOL     OW24032   4.041   2.318   0.097 -0.0555  0.5942  0.4805
 7733SOL    HW124033   4.088   2.259   0.039 -1.9653 -0.8670  0.3050
 7733SOL    HW224034   3.948   2.297   0.083 -0.7444  2.5713  1.5697
 7734SOL     OW24035   4.944   1.677   7.145  0.0804 -0.0163  0.2205
 7734SOL    HW124036   4.993   1.699   7.066 -1.2242 -1.1420 -0.9480
 7734SOL    HW224037   5.011   1.649   7.208  1.0266 -0.4191 -0.9347
 7735SOL     OW24038   7.356   6.117   3.529  0.2025  0.2444 -0.0058
 7735SOL    HW124039   7.450   6.115   3.547  0.2458 -0.1065 -0.2626
 7735SOL    HW224040   7.327   6.202   3.564  0.4107 -0.0946  1.0140
 7736SOL     OW24041   0.761   1.265   4.832  0.0614 -0.2539  0.2743
 7736SOL    HW124042   0.668   1.245   4.823 -0.4489  2.0007  0.1174
 7736SOL    HW224043   0.779   1.259   4.926 -0.3446 -0.2176  0.3533
 7737SOL     OW24044   2.165   7.904   7.791  0.5415  1.0545 -0.7157
 7737SOL    HW124045   2.108   7.971   7.753 -0.5012  0.6425  0.0670
 7737SOL    HW224046   2.206   7.863   7.715 -0.0223  1.5251 -1.2958
 7738SOL     OW24047   4.571   6.880   1.887  0.2521  0.3497  0.9301
 7738SOL    HW124048   4.567   6.895   1.982 -1.2260 -2.1508  1.3548
 7738SOL    HW224049   4.587   6.786   1.879 -0.1401  0.4418 -1.3223
 7739SOL     OW24050   5.510   4.757   3.403  0.1251  0.4026 -0.9971
 7739SOL    HW124051   5.414   4.754   3.398  0.1690 -0.3861 -1.4597
 7739SOL    HW224052   5.528   4.773   3.496 -0.4546  0.5885 -0.9120
 7740SOL     OW24053   0.035   4.520   3.894  0.2024  0.1884 -0.2095
 7740SOL    HW124054  -0.036   4.556   3.840 -1.1256  0.3968  1.5748
 7740SOL    HW224055   0.070   4.596   3.941  0.9316 -0.0711 -0.3275
 7741SOL     OW24056   6.560   6.634   1.281  0.1578  0.4337 -0.0757
 7741SOL    HW124057   6.474   6.669   1.256  0.6584  1.3311 -0.5612
 7741SOL    HW224058   6.614   6.643   1.203  0.5417 -0.7020  0.0328
 7742SOL     OW24059   7.096   4.451   5.259 -0.1603  0.1527  0.8766
 7742SOL    HW124060   7.125   4.360   5.262 -2.7428 -0.7879  0.4087
 7742SOL    HW224061   7.142   4.493   5.331  4.0556 -0.4632 -1.1493
 7743SOL     OW24062   6.382   5.583   1.206 -0.1385  0.4153 -0.1073
 7743SOL    HW124063   6.439   5.572   1.282  1.3287  3.4537 -0.5958
 7743SOL    HW224064   6.425   5.535   1.135  2.0006  2.6703 -0.4711
 7744SOL     OW24065   6.207   2.289   0.950 -0.2216  0.6103 -0.1009
 7744SOL    HW124066   6.198   2.339   1.031  0.0774 -2.5434  2.0488
 7744SOL    HW224067   6.119   2.284   0.914 -0.6778  0.5688  1.0045
 7745SOL     OW24068   3.433   6.706   6.507 -0.2441  0.4187  0.2461
 7745SOL    HW124069   3.349   6.725   6.465 -0.8853 -0.7406  0.9682
 7745SOL    HW224070   3.437   6.611   6.510  0.9674  0.4655  0.4999
 7746SOL     OW24071   1.749   2.837   0.651  0.1455 -0.1344 -0.1483
 7746SOL    HW124072   1.795   2.832   0.568 -1.5614  1.1305 -1.2557
 7746SOL    HW224073   1.695   2.758   0.654  0.5114 -0.3811 -0.0378
 7747SOL     OW24074   3.343   0.561   4.706  0.3047  0.4576 -0.5202
 7747SOL    HW124075   3.284   0.520   4.644  0.1796  1.7433 -1.2774
 7747SOL    HW224076   3.355   0.650   4.673  0.6690  1.0023  0.9960
 7748SOL     OW24077   3.659   7.184   5.833 -0.0325 -0.0063 -0.0764
 7748SOL    HW124078   3.629   7.249   5.768  0.3625  1.0049  0.7233
 7748SOL    HW224079   3.627   7.100   5.799 -1.9481  0.7680 -0.3248
 7749SOL     OW24080   7.897   2.984   4.140  0.0247 -0.4014  0.2912
 7749SOL    HW124081   7.917   2.891   4.127 -1.0891 -0.7650  1.0179
 7749SOL    HW224082   7.855   3.011   4.059 -0.9648 -0.9359  0.6024
 7750SOL     OW24083   3.949   0.875   4.318 -0.3865 -0.0482 -0.1171
 7750SOL    HW124084   3.856   0.896   4.305 -0.1223  1.5161  0.2976
 7750SOL    HW224085   3.987   0.883   4.230 -0.4580  0.3019 -0.1158
 7751SOL     OW24086   1.483   0.501   2.252  0.0020  0.6759  0.0316
 7751SOL    HW124087   1.532   0.551   2.317  1.0994 -0.6374  0.2718
 7751SOL    HW224088   1.476   0.559   2.176  1.0243  1.2833  0.3850
 7752SOL     OW24089   6.304   3.132   6.788 -0.1119 -0.2074 -0.5736
 7752SOL    HW124090   6.355   3.210   6.769  0.2081 -0.3468 -0.2965
 7752SOL    HW224091   6.224   3.165   6.829  0.3293 -0.0577  0.1859
 7753SOL     OW24092   1.315   1.451   5.871  0.5127 -0.3131 -0.5558
 7753SOL    HW124093   1.387   1.505   5.904  0.0816  0.1883 -0.4215
 7753SOL    HW224094   1.261   1.512   5.821  0.0573 -0.6400 -0.4683
 7754SOL     OW24095   6.693   7.193   0.633 -0.4956  0.4449  0.5334
 7754SOL    HW124096   6.696   7.279   0.590  0.4057  0.4867  0.6518
 7754SOL    HW224097   6.776   7.188   0.681 -0.2952 -0.7286  0.0847
 7755SOL     OW24098   0.885   3.148   6.831  0.3791  0.5483 -0.3209
 7755SOL    HW124099   0.875   3.242   6.837  0.2056  0.5939 -1.1611
 7755SOL    HW224100   0.798   3.116   6.804  0.5784  0.2108 -0.5734
 7756SOL     OW24101   7.448   5.283   6.303  0.2484 -0.1547  0.1461
 7756SOL    HW124102   7.423   5.265   6.212 -0.8296 -0.8670  0.5656
 7756SOL    HW224103   7.431   5.201   6.349  0.0922  0.4283  1.1423
 7757SOL     OW24104   6.843   6.702   4.005 -0.0251 -0.3526 -0.0519
 7757SOL    HW124105   6.795   6.782   4.029 -0.2158 -0.7952  1.0854
 7757SOL    HW224106   6.780   6.631   4.020  0.5196 -0.8167  0.0543
 7758SOL     OW24107   6.436   2.532   3.720 -0.2165 -0.6246  0.6980
 7758SOL    HW124108   6.384   2.579   3.785 -0.3708  0.2699 -0.0553
 7758SOL    HW224109   6.398   2.444   3.718 -2.1105  0.1478 -0.2424
 7759SOL     OW24110   5.560   2.082   1.015  0.2428 -0.2160 -0.1566
 7759SOL    HW124111   5.538   2.027   1.090  1.0197 -0.2801  0.0241
 7759SOL    HW224112   5.629   2.140   1.046  0.8855 -0.5441 -0.9359
 7760SOL     OW24113   4.917   4.090   7.452  0.0778 -0.2339  0.4905
 7760SOL    HW124114   4.870   4.008   7.436  0.1523  0.1113 -1.9571
 7760SOL    HW224115   4.987   4.091   7.386 -0.6781  2.2994 -0.4157
 7761SOL     OW24116   7.245   2.337   2.686 -0.1553 -0.1511  0.0274
 7761SOL    HW124117   7.281   2.398   2.750  2.1505 -1.1530 -0.2407
 7761SOL    HW224118   7.247   2.252   2.730 -3.5950 -0.1345  0.5086
 7762SOL     OW24119   4.653   0.755   1.191  0.1928 -0.0538 -0.0027
 7762SOL    HW124120   4.682   0.845   1.201 -2.0437  0.8090 -0.7254
 7762SOL    HW224121   4.619   0.730   1.277 -0.9458  0.4955 -0.2752
 7763SOL     OW24122   3.363   3.349   2.332  0.3289 -0.1881  0.1876
 7763SOL    HW124123   3.415   3.370   2.255 -1.5958 -0.2611 -1.2063
 7763SOL    HW224124   3.369   3.427   2.388 -0.0741  0.8039 -1.1077
 7764SOL     OW24125   1.246   1.495   7.347 -0.6465 -0.3336  0.2424
 7764SOL    HW124126   1.261   1.556   7.419  2.3170  1.7636 -1.8903
 7764SOL    HW224127   1.184   1.539   7.289  0.5856  0.2464 -0.7085
 7765SOL     OW24128   7.338   1.717   0.713  0.4854 -0.4793 -0.3700
 7765SOL    HW124129   7.352   1.732   0.807  0.0738 -0.7134 -0.2686
 7765SOL    HW224130   7.397   1.644   0.692  0.2725 -0.7003 -0.2029
 7766SOL     OW24131   7.625   0.818   4.140  0.3469  0.6308  0.1519
 7766SOL    HW124132   7.593   0.905   4.117 -0.4668  0.5899  1.0784
 7766SOL    HW224133   7.704   0.834   4.191 -0.2636  0.8842  1.0573
 7767SOL     OW24134   1.408   4.196   0.485  0.3469  0.4368  0.6201
 7767SOL    HW124135   1.336   4.199   0.549  1.0494  1.0279  1.4029
 7767SOL    HW224136   1.438   4.106   0.487  0.2787  0.4229  1.0253
 7768SOL     OW24137   2.332   6.994   1.081 -0.5139 -0.0953 -0.4148
 7768SOL    HW124138   2.357   6.974   0.991 -1.0892  1.2217 -0.9060
 7768SOL    HW224139   2.369   6.924   1.133  1.5983  0.1952 -1.4268
 7769SOL     OW24140   0.539   6.849   4.514 -0.1578 -0.2930 -0.6593
 7769SOL    HW124141   0.600   6.923   4.514 -3.5671  2.8472 -0.4650
 7769SOL    HW224142   0.529   6.827   4.606 -0.1456 -0.0346 -0.5940
 7770SOL     OW24143   7.022   4.911   0.706 -0.0455 -0.2907  0.0118
 7770SOL    HW124144   7.043   4.848   0.637  0.3023 -1.5033  1.1803
 7770SOL    HW224145   7.000   4.991   0.659  2.6537 -0.2856 -1.4478
 7771SOL     OW24146   3.332   1.577   0.092  0.2328 -0.4660 -0.3830
 7771SOL    HW124147   3.375   1.662   0.084  1.7852 -1.0743  0.9801
 7771SOL    HW224148   3.238   1.598   0.094  0.5923  1.2585  0.3629
 7772SOL     OW24149   2.692   4.009   2.027 -0.4972 -0.4127  0.0777
 7772SOL    HW124150   2.672   3.943   2.093 -1.0754  1.0135  1.3709
 7772SOL    HW224151   2.617   4.008   1.968  0.4423 -2.3652 -1.2034
 7773SOL     OW24152   7.555   4.195   2.232 -0.1195  0.4604 -0.5305
 7773SOL    HW124153   7.526   4.201   2.323 -1.0618 -0.8073 -0.7186
 7773SOL    HW224154   7.508   4.119   2.197  1.3882 -0.0016 -1.6448
 7774SOL     OW24155   4.836   5.699   2.518 -0.2538 -0.3545 -0.3141
 7774SOL    HW124156   4.912   5.649   2.546 -0.0655  0.0443 -0.1228
 7774SOL    HW224157   4.783   5.635   2.469  0.8123 -0.3231 -1.5773
 7775SOL     OW24158   0.363   1.484   1.738  0.2737 -0.7220 -0.1488
 7775SOL    HW124159   0.274   1.451   1.724  0.1983 -0.8421  0.5934
 7775SOL    HW224160   0.415   1.407   1.761  0.7206 -0.7557 -1.2231
 7776SOL     OW24161   0.313   0.858   3.736 -0.1478  0.5496  0.3282
 7776SOL    HW124162   0.240   0.799   3.754  0.4312 -0.6061 -1.0097
 7776SOL    HW224163   0.332   0.846   3.643  1.4202  1.2266  0.5339
 7777SOL     OW24164   4.057   5.040   5.440  0.4558 -0.4116 -0.1005
 7777SOL    HW124165   4.108   5.091   5.377  0.0745  0.6493  0.4121
 7777SOL    HW224166   4.072   4.949   5.416  1.1968 -0.0597 -1.0278
 7778SOL     OW24167   5.422   7.070   3.112  0.8357  0.4567 -0.0950
 7778SOL    HW124168   5.464   7.133   3.172  0.7134  0.1723  0.2941
 7778SOL    HW224169   5.329   7.074   3.134  0.5952  1.3146 -1.1684
 7779SOL     OW24170   6.196   0.894   1.588  0.2021  0.1955  0.1387
 7779SOL    HW124171   6.197   0.835   1.664 -1.8651  0.7859  0.7045
 7779SOL    HW224172   6.167   0.978   1.624  1.0040  0.9967 -1.0228
 7780SOL     OW24173   4.971   7.773   6.356 -0.6830 -0.1104 -0.0084
 7780SOL    HW124174   4.887   7.743   6.321 -1.0698  0.0876  0.7180
 7780SOL    HW224175   4.963   7.869   6.358 -0.3870 -0.0840 -0.0667
 7781SOL     OW24176   5.327   5.059   5.901  0.0417  0.3805 -0.2671
 7781SOL    HW124177   5.403   5.039   5.846 -0.1450  0.5581 -0.5919
 7781SOL    HW224178   5.269   4.984   5.890  1.3951 -1.1693  2.2269
 7782SOL     OW24179   4.536   4.596   3.884 -0.4847  0.6352 -0.1509
 7782SOL    HW124180   4.573   4.508   3.877 -0.4818  0.6416 -0.2134
 7782SOL    HW224181   4.612   4.653   3.896 -0.3722  0.7955 -1.5527
 7783SOL     OW24182   5.255   3.608   0.870  1.0233  0.2251  0.5273
 7783SOL    HW124183   5.250   3.606   0.965  0.4455  0.1385  0.4975
 7783SOL    HW224184   5.176   3.655   0.843  1.9861  1.7167  0.1571
 7784SOL     OW24185   7.851   3.114   3.903 -0.4957 -0.1412  0.2997
 7784SOL    HW124186   7.885   3.184   3.958  0.7507  0.3154 -0.9639
 7784SOL    HW224187   7.801   3.159   3.835  2.2206 -0.1477 -1.8938
 7785SOL     OW24188   3.985   4.926   2.347 -0.3625 -0.5134  0.1982
 7785SOL    HW124189   3.987   4.831   2.355 -1.0756 -0.6081 -0.5382
 7785SOL    HW224190   3.987   4.959   2.437 -1.0033 -1.2572  0.4930
 7786SOL     OW24191   7.443   5.588   1.155  0.0916  0.5238  0.4829
 7786SOL    HW124192   7.471   5.653   1.091  3.0283 -0.9216  0.1204
 7786SOL    HW224193   7.510   5.592   1.224  0.2826 -1.9381  0.5169
 7787SOL     OW24194   6.516   4.767   7.411  0.4783 -0.8557  0.0488
 7787SOL    HW124195   6.605   4.738   7.391  1.0071  0.1268  0.8905
 7787SOL    HW224196   6.465   4.741   7.334  1.8213  0.0651 -1.2170
 7788SOL     OW24197   3.573   3.377   4.685 -0.2080  0.0081 -0.1430
 7788SOL    HW124198   3.638   3.331   4.632  0.8308 -0.4777  1.4825
 7788SOL    HW224199   3.566   3.325   4.766 -1.4584  0.9230  0.3764
 7789SOL     OW24200   3.113   0.834   7.052  0.2499  0.0945  0.5214
 7789SOL    HW124201   3.091   0.742   7.068  1.4380 -0.2251  0.3825
 7789SOL    HW224202   3.039   0.882   7.087  0.8615 -0.7677  3.2148
 7790SOL     OW24203   7.401   2.369   1.325 -0.2053 -0.3391  0.3146
 7790SOL    HW124204   7.373   2.350   1.415  1.0091 -2.9392  0.2372
 7790SOL    HW224205   7.382   2.289   1.276 -0.1976  0.7798 -1.6178
 7791SOL     OW24206   7.384   7.538   6.842  0.4281 -0.0424  0.3612
 7791SOL    HW124207   7.403   7.451   6.877  1.3551 -0.1291 -0.2955
 7791SOL    HW224208   7.468   7.583   6.845  0.2827  0.3177 -0.6873
 7792SOL     OW24209   6.455   0.224   3.981  0.1172 -0.0772 -0.1493
 7792SOL    HW124210   6.500   0.202   4.062  1.6925 -0.5342 -1.1031
 7792SOL    HW224211   6.371   0.262   4.009  0.5735 -0.3303  1.6606
 7793SOL     OW24212   5.964   6.223   3.041 -0.2758 -0.0893 -0.8007
 7793SOL    HW124213   5.933   6.278   3.113 -0.2816 -0.3445 -0.6087
 7793SOL    HW224214   6.052   6.255   3.023 -0.5835  0.5294 -1.2373
 7794SOL     OW24215   2.016   1.121   0.277  0.2906 -0.0862 -0.2478
 7794SOL    HW124216   2.041   1.131   0.186 -1.3700  0.1628 -0.7100
 7794SOL    HW224217   2.006   1.211   0.310  0.8713 -0.1723  0.1904
 7795SOL     OW24218   0.338   6.261   5.922  0.2982  0.1226  0.5799
 7795SOL    HW124219   0.274   6.222   5.864 -0.3535  1.4875  0.3344
 7795SOL    HW224220   0.422   6.246   5.878 -0.1104  0.4824 -0.3624
 7796SOL     OW24221   6.609   7.513   2.069 -0.0448 -0.3014 -0.0247
 7796SOL    HW124222   6.678   7.447   2.068 -0.7732 -1.1067  0.4992
 7796SOL    HW224223   6.603   7.540   2.160  0.8234  1.1415 -0.3774
 7797SOL     OW24224   3.109   4.688   3.850 -0.3045  0.0872 -0.5310
 7797SOL    HW124225   3.064   4.664   3.769 -0.3313 -0.9264 -0.2336
 7797SOL    HW224226   3.068   4.634   3.918  1.6015 -1.2179 -0.3169
 7798SOL     OW24227   4.627   5.316   5.503  0.4758  0.2972 -0.0619
 7798SOL    HW124228   4.568   5.387   5.529  0.2411  0.1196 -0.1046
 7798SOL    HW224229   4.583   5.274   5.430  0.5914  0.0774 -0.0066
 7799SOL     OW24230   4.166   1.532   1.584 -0.3200  0.5333  0.2347
 7799SOL    HW124231   4.101   1.484   1.532  0.4970  0.0815 -0.4230
 7799SOL    HW224232   4.232   1.465   1.605  1.3535  1.4977 -1.5453
 7800SOL     OW24233   5.709   7.789   4.513 -0.1416  0.2049  0.1647
 7800SOL    HW124234   5.628   7.755   4.552  0.1404 -0.4476  0.1907
 7800SOL    HW224235   5.778   7.757   4.571  0.1176  1.0079  0.3110
 7801SOL     OW24236   7.424   1.393   1.479 -0.6613 -0.4215 -0.2741
 7801SOL    HW124237   7.512   1.424   1.459 -0.4129 -0.8067  0.2041
 7801SOL    HW224238   7.379   1.392   1.395  0.2954 -1.8017 -0.8084
 7802SOL     OW24239   1.623   3.831   6.667  0.5178  0.6783 -0.4014
 7802SOL    HW124240   1.596   3.854   6.578  1.3968 -1.4342 -1.2907
 7802SOL    HW224241   1.690   3.763   6.655  1.0173  0.6757  1.8699
 7803SOL     OW24242   0.385   5.618   2.415  0.0603 -0.2319 -0.2836
 7803SOL    HW124243   0.369   5.597   2.507 -2.2714 -0.9404 -0.7869
 7803SOL    HW224244   0.383   5.533   2.371  0.1979  0.1864 -1.1129
 7804SOL     OW24245   6.646   6.031   7.507 -0.2927 -0.1113  0.5581
 7804SOL    HW124246   6.691   5.970   7.448 -1.0350  0.5744 -0.7539
 7804SOL    HW224247   6.667   6.117   7.473 -1.5201  0.2703  0.7223
 7805SOL     OW24248   6.300   2.027   1.915 -0.1154  0.4828  0.1077
 7805SOL    HW124249   6.283   2.027   1.821 -0.4071  0.2888  0.1622
 7805SOL    HW224250   6.214   2.016   1.955  0.2169 -1.4803  0.3639
 7806SOL     OW24251   6.353   7.803   3.462 -0.2942 -0.2004  0.1092
 7806SOL    HW124252   6.429   7.747   3.447 -0.5466 -0.1774 -1.4177
 7806SOL    HW224253   6.310   7.808   3.377 -1.7978  0.0995  0.8524
 7807SOL     OW24254   1.112   2.126   2.268 -0.2545  0.3736  0.5220
 7807SOL    HW124255   1.043   2.168   2.319 -1.0648  0.7574 -0.8444
 7807SOL    HW224256   1.066   2.078   2.200  0.7596 -1.0547  0.7952
 7808SOL     OW24257   3.218   5.859   3.050  0.0132  0.1275 -0.0043
 7808SOL    HW124258   3.132   5.820   3.063 -0.0450  0.1687 -0.2627
 7808SOL    HW224259   3.280   5.791   3.076 -0.0957  0.7432  2.0623
 7809SOL     OW24260   2.147   7.693   4.639 -0.5490 -0.0011 -0.2210
 7809SOL    HW124261   2.154   7.624   4.706 -3.0660 -0.7472 -0.6237
 7809SOL    HW224262   2.068   7.741   4.663  0.4629  1.9680 -0.7073
 7810SOL     OW24263   1.154   2.316   4.062 -0.4297 -0.3763  1.0829
 7810SOL    HW124264   1.062   2.318   4.035 -0.3002 -3.3410  0.0342
 7810SOL    HW224265   1.153   2.277   4.149 -0.2100  0.9433  1.7067
 7811SOL     OW24266   4.780   2.681   2.128  0.0697  0.0768 -0.0996
 7811SOL    HW124267   4.770   2.637   2.043 -0.7802  1.0017 -0.4916
 7811SOL    HW224268   4.871   2.711   2.128 -0.1068  0.6562 -0.9753
 7812SOL     OW24269   3.473   3.514   0.592 -0.8984 -0.3893 -0.3440
 7812SOL    HW124270   3.519   3.430   0.589 -2.0533 -1.0899  0.4789
 7812SOL    HW224271   3.520   3.564   0.659 -0.5977 -0.6425 -0.3643
 7813SOL     OW24272   6.645   3.992   1.587 -0.1816 -0.2825 -0.5359
 7813SOL    HW124273   6.723   4.046   1.572  0.0212 -0.3131  0.3365
 7813SOL    HW224274   6.641   3.981   1.682 -0.2784 -1.7261 -0.6817
 7814SOL     OW24275   4.251   0.326   4.814 -0.2727 -0.5427 -0.5521
 7814SOL    HW124276   4.342   0.332   4.783 -0.0289  1.3733  0.4016
 7814SOL    HW224277   4.259   0.310   4.908 -0.9359 -0.8109 -0.5372
 7815SOL     OW24278   5.008   5.882   2.048 -0.3196 -0.1326 -0.2294
 7815SOL    HW124279   4.916   5.859   2.035 -0.6688  1.4428 -0.6681
 7815SOL    HW224280   5.008   5.976   2.067  1.3572  0.4256 -2.4721
 7816SOL     OW24281   2.671   1.575   4.576  0.1679  0.0072 -0.6765
 7816SOL    HW124282   2.642   1.662   4.548  0.7172  0.6894  0.7551
 7816SOL    HW224283   2.742   1.593   4.638  0.6283 -1.4849 -0.7417
 7817SOL     OW24284   3.365   1.568   0.918 -0.4325  0.3937 -0.2628
 7817SOL    HW124285   3.382   1.645   0.971  1.1219  1.2167 -1.8667
 7817SOL    HW224286   3.270   1.567   0.906 -0.4048  2.5867 -0.9597
 7818SOL     OW24287   7.269   1.138   7.767 -0.1206 -0.0247  0.3334
 7818SOL    HW124288   7.181   1.124   7.732 -0.3282 -0.8362  1.1466
 7818SOL    HW224289   7.308   1.051   7.770  0.5695  0.2816  0.3598
 7819SOL     OW24290   3.251   2.960   1.643  0.2714  0.3306  0.4197
 7819SOL    HW124291   3.173   2.955   1.698  0.2719  0.5177  0.4371
 7819SOL    HW224292   3.220   2.938   1.555  0.3980 -0.6613  0.6094
 7820SOL     OW24293   2.037   2.468   5.991 -0.3974 -0.3447 -0.0932
 7820SOL    HW124294   2.004   2.504   5.910 -0.0209 -0.7097 -0.4164
 7820SOL    HW224295   2.107   2.408   5.964  0.9860  0.8985  0.6020
 7821SOL     OW24296   4.530   3.692   4.520  0.5882 -0.2285 -0.8859
 7821SOL    HW124297   4.449   3.742   4.515  1.8227  1.8243 -1.7747
 7821SOL    HW224298   4.540   3.654   4.433  0.3718 -0.8581 -0.6407
 7822SOL     OW24299   3.280   0.423   5.191 -0.3176 -0.2068  0.1198
 7822SOL    HW124300   3.339   0.350   5.174 -0.2377  0.2117 -1.6345
 7822SOL    HW224301   3.243   0.444   5.105 -0.8243  1.3957  0.6916
 7823SOL     OW24302   3.144   0.803   7.597  0.2665  0.0099 -0.4590
 7823SOL    HW124303   3.090   0.824   7.673  0.4251 -0.1165 -0.3077
 7823SOL    HW224304   3.121   0.868   7.532  0.1567  0.1443 -0.2870
 7824SOL     OW24305   4.797   3.650   7.381  0.5689  0.0196  0.4387
 7824SOL    HW124306   4.878   3.635   7.430  1.5845  0.8085 -0.8962
 7824SOL    HW224307   4.807   3.597   7.302 -0.1965  0.1577  0.2460
 7825SOL     OW24308   3.707   6.867   2.564  0.1165 -0.1165  1.1039
 7825SOL    HW124309   3.661   6.783   2.563  0.7341 -0.4627  1.4159
 7825SOL    HW224310   3.782   6.854   2.505  0.7317 -0.0840  1.8684
 7826SOL     OW24311   7.060   6.610   5.192  0.0312  0.1535 -0.1298
 7826SOL    HW124312   7.020   6.659   5.119 -0.3349  2.7977  1.6843
 7826SOL    HW224313   7.004   6.533   5.202  0.3955 -0.5628 -2.9043
 7827SOL     OW24314   3.448   1.947   5.642 -0.1227 -0.8723  0.0873
 7827SOL    HW124315   3.385   1.980   5.705  0.3778  0.0118  0.1397
 7827SOL    HW224316   3.403   1.951   5.558 -0.4406 -1.1086  0.2439
 7828SOL     OW24317   0.345   0.144   6.199  0.4074 -0.4406 -0.2245
 7828SOL    HW124318   0.364   0.073   6.260  2.0889  0.6183  0.5577
 7828SOL    HW224319   0.431   0.175   6.170 -0.1856  1.9910  0.3384
 7829SOL     OW24320   0.021   3.311   1.419  0.1678  0.1207  0.3003
 7829SOL    HW124321  -0.056   3.309   1.476 -0.6397 -1.2658 -0.7736
 7829SOL    HW224322   0.025   3.401   1.387 -1.7642 -0.0299 -0.5532
 7830SOL     OW24323   2.623   7.905   5.852  0.3953 -0.2706 -0.1954
 7830SOL    HW124324   2.681   7.973   5.887  1.3999 -0.9970 -0.3775
 7830SOL    HW224325   2.575   7.948   5.782 -2.0465  1.3646  2.2748
 7831SOL     OW24326   5.799   3.812   5.206 -0.2047  0.1328  0.2441
 7831SOL    HW124327   5.734   3.743   5.216 -2.1102  1.7456 -0.4021
 7831SOL    HW224328   5.752   3.892   5.227  1.1769  1.5063 -1.6331
 7832SOL     OW24329   5.947   4.251   5.671  0.3757 -0.0488  0.1187
 7832SOL    HW124330   5.926   4.182   5.733 -0.1954  0.2775  0.2897
 7832SOL    HW224331   5.874   4.249   5.608  1.5424 -1.2210 -1.2937
 7833SOL     OW24332   5.705   1.481   2.442 -0.3138  0.2709  0.1182
 7833SOL    HW124333   5.757   1.551   2.482  1.0379 -0.7627  0.2462
 7833SOL    HW224334   5.632   1.469   2.502 -0.0970  0.9757  0.5461
 7834SOL     OW24335   2.785   0.674   1.120  0.5197 -0.4343 -0.2377
 7834SOL    HW124336   2.758   0.727   1.194 -0.4744  0.7048 -1.3736
 7834SOL    HW224337   2.878   0.655   1.136  1.0864  2.1710 -0.0674
 7835SOL     OW24338   6.793   7.251   4.059 -0.0402  0.3750 -0.0263
 7835SOL    HW124339   6.883   7.254   4.026  0.0618  2.3944  0.2929
 7835SOL    HW224340   6.775   7.341   4.087 -2.2655  0.0874 -0.3548
 7836SOL     OW24341   4.181   5.920   7.186  0.6642 -0.0907  0.0426
 7836SOL    HW124342   4.090   5.889   7.186  1.1624 -1.7719  2.0659
 7836SOL    HW224343   4.184   5.986   7.254  0.9512  0.0007 -0.0577
 7837SOL     OW24344   1.663   1.658   7.776  0.2357 -0.1154 -0.4279
 7837SOL    HW124345   1.597   1.661   7.845  1.1222 -2.4371  0.6415
 7837SOL    HW224346   1.660   1.745   7.736 -1.0051  0.9973  1.8725
 7838SOL     OW24347   4.975   2.705   0.569 -0.1660  0.1284 -0.2692
 7838SOL    HW124348   4.903   2.649   0.598  0.5816 -0.7637 -0.0910
 7838SOL    HW224349   5.040   2.697   0.639 -0.2251  1.5959 -0.0084
 7839SOL     OW24350   1.280   7.205   6.856 -0.1312  0.0283  0.3338
 7839SOL    HW124351   1.260   7.170   6.943 -1.0815  2.1913  1.0597
 7839SOL    HW224352   1.357   7.260   6.869 -0.3195  0.4229 -0.1728
 7840SOL     OW24353   7.089   6.244   0.921  0.1746  0.3342  0.3391
 7840SOL    HW124354   7.108   6.295   1.000 -0.9500  0.4858  0.5249
 7840SOL    HW224355   7.039   6.304   0.865 -0.0764 -0.1559  0.0306
 7841SOL     OW24356   1.079   0.489   3.851  0.3008  0.0158  0.4259
 7841SOL    HW124357   1.124   0.571   3.872  2.3255 -1.2566  1.3661
 7841SOL    HW224358   1.004   0.487   3.910  1.0035  0.5692  1.3573
 7842SOL     OW24359   7.410   6.035   6.631  0.7526 -0.0904 -0.0236
 7842SOL    HW124360   7.330   5.984   6.638 -1.5137  3.2861  1.3420
 7842SOL    HW224361   7.392   6.099   6.562  2.1316  0.9924  0.5727
 7843SOL     OW24362   1.477   1.842   4.406  0.0421 -0.1842 -0.3115
 7843SOL    HW124363   1.438   1.775   4.350 -1.9899  0.5389  0.1457
 7843SOL    HW224364   1.423   1.843   4.485  2.0493 -0.2712  1.1471
 7844SOL     OW24365   5.315   0.680   7.109 -0.4419  0.4290 -0.2939
 7844SOL    HW124366   5.318   0.772   7.136  0.5859 -0.2187  2.0654
 7844SOL    HW224367   5.393   0.669   7.053  0.0958  0.7401  0.3775
 7845SOL     OW24368   7.581   5.292   1.595 -0.1383  0.0680  0.7031
 7845SOL    HW124369   7.543   5.233   1.660 -2.3991  0.8532  0.1650
 7845SOL    HW224370   7.599   5.372   1.644 -0.3820  0.1314  0.6891
 7846SOL     OW24371   1.882   5.266   4.669 -0.2588 -0.2728 -0.4600
 7846SOL    HW124372   1.801   5.250   4.620  0.9866 -2.7499 -1.9006
 7846SOL    HW224373   1.951   5.260   4.603  1.1854  1.2492  0.8160
 7847SOL     OW24374   6.011   6.043   7.591 -0.0939  0.4185 -0.2631
 7847SOL    HW124375   6.090   6.045   7.537 -0.7237  1.1442 -1.1956
 7847SOL    HW224376   6.024   6.113   7.655  0.0568  0.4821 -0.3617
 7848SOL     OW24377   0.119   1.117   7.870  0.2279 -0.1054 -0.4009
 7848SOL    HW124378   0.195   1.106   7.928  0.4235 -1.7633 -0.9238
 7848SOL    HW224379   0.153   1.167   7.796  1.4845 -2.5966 -1.6799
 7849SOL     OW24380   1.453   0.808   6.714 -0.1223 -0.6914  0.2176
 7849SOL    HW124381   1.371   0.794   6.759  0.6231 -1.2847  1.4374
 7849SOL    HW224382   1.462   0.903   6.709 -0.8987 -0.6238  0.0200
 7850SOL     OW24383   4.220   7.437   0.168  0.3750 -0.1137  0.2588
 7850SOL    HW124384   4.129   7.465   0.177 -0.1494 -1.7391  0.2307
 7850SOL    HW224385   4.270   7.519   0.166 -0.9270  0.7715  1.8993
 7851SOL     OW24386   5.860   7.195   3.579 -0.1495  0.0619  0.1733
 7851SOL    HW124387   5.844   7.287   3.600  0.2234  0.5004 -1.3732
 7851SOL    HW224388   5.939   7.196   3.526  0.1735 -1.2252  0.5904
 7852SOL     OW24389   6.783   0.228   0.885 -0.4834  0.0438  0.0027
 7852SOL    HW124390   6.773   0.323   0.892  2.2757  0.3986  0.2924
 7852SOL    HW224391   6.826   0.203   0.967 -2.6687 -1.7609  0.6834
 7853SOL     OW24392   0.609   6.439   5.391 -0.2240 -0.3404  0.3914
 7853SOL    HW124393   0.649   6.404   5.311  2.4330  1.4627  0.8068
 7853SOL    HW224394   0.670   6.415   5.461 -0.6034  1.2179  1.3041
 7854SOL     OW24395   6.228   2.880   6.677 -0.4708  0.3236 -0.0880
 7854SOL    HW124396   6.183   2.828   6.743  3.1042 -1.0805  1.5076
 7854SOL    HW224397   6.263   2.955   6.726 -0.8542  1.2679 -1.2158
 7855SOL     OW24398   3.142   1.830   6.417  0.5770 -0.1081 -0.6573
 7855SOL    HW124399   3.188   1.911   6.397  1.5420 -0.4611  0.0635
 7855SOL    HW224400   3.211   1.766   6.431 -0.0982 -0.5845  0.7191
 7856SOL     OW24401   1.911   0.787   1.168  0.0434  0.3762  0.5084
 7856SOL    HW124402   2.003   0.807   1.154  0.4652  0.2145  2.6575
 7856SOL    HW224403   1.906   0.692   1.165 -0.2855  0.4131 -0.6771
 7857SOL     OW24404   1.593   1.545   1.358  0.1782  0.9648 -0.0514
 7857SOL    HW124405   1.613   1.506   1.443 -1.0784  3.1176  1.3093
 7857SOL    HW224406   1.512   1.502   1.330  0.6168  0.2235 -0.2013
 7858SOL     OW24407   4.826   6.336   7.392  0.1932  0.0815 -0.0207
 7858SOL    HW124408   4.735   6.307   7.385 -0.1185  0.9208  0.3956
 7858SOL    HW224409   4.820   6.423   7.431  1.1792  0.1419  0.0126
 7859SOL     OW24410   0.553   4.382   7.535 -0.5899 -0.2082 -0.0386
 7859SOL    HW124411   0.593   4.325   7.470  0.5869  1.5319 -0.9196
 7859SOL    HW224412   0.502   4.445   7.483  0.1593  1.0578  0.7098
 7860SOL     OW24413   0.350   1.164   6.600  0.0003  0.1517 -0.0927
 7860SOL    HW124414   0.299   1.096   6.643  1.5067 -1.2899 -0.4979
 7860SOL    HW224415   0.333   1.243   6.651 -1.4513 -0.6062  0.6446
 7861SOL     OW24416   3.412   6.446   0.355 -0.3889 -0.0482  0.0562
 7861SOL    HW124417   3.474   6.510   0.321 -0.8077  1.1140  1.4245
 7861SOL    HW224418   3.326   6.487   0.343 -0.7554 -0.8216 -0.0468
 7862SOL     OW24419   1.960   5.957   5.634 -0.5680  0.6630 -0.5669
 7862SOL    HW124420   1.892   6.021   5.658 -0.4354  0.4618  0.3716
 7862SOL    HW224421   1.918   5.872   5.648 -1.3673  0.4732 -3.5431
 7863SOL     OW24422   5.321   4.365   1.397 -0.2297 -0.3692 -0.6524
 7863SOL    HW124423   5.256   4.355   1.327  0.0231 -0.0822 -0.9308
 7863SOL    HW224424   5.271   4.399   1.471 -0.6353 -1.3239 -0.4617
 7864SOL     OW24425   0.597   2.563   3.279  0.1517  0.4396 -0.8963
 7864SOL    HW124426   0.578   2.506   3.353  1.9644 -0.1157 -0.8162
 7864SOL    HW224427   0.692   2.558   3.268  0.2736  2.7416 -1.4667
 7865SOL     OW24428   4.058   5.307   5.982  0.6049  0.1551  0.3495
 7865SOL    HW124429   3.991   5.361   6.025 -0.5900  0.3979 -1.7039
 7865SOL    HW224430   4.026   5.296   5.893  1.8752 -2.2096  0.1157
 7866SOL     OW24431   6.541   0.583   4.551 -0.4646  0.0441  1.0822
 7866SOL    HW124432   6.561   0.501   4.506 -1.0886  0.2601  0.4049
 7866SOL    HW224433   6.459   0.566   4.597 -0.6967  0.3470  0.7827
 7867SOL     OW24434   5.508   5.082   7.225 -0.9545 -0.2203  0.2499
 7867SOL    HW124435   5.472   5.147   7.286  0.4920  0.2221  0.6533
 7867SOL    HW224436   5.447   5.008   7.232 -2.5057  0.9620 -0.0380
 7868SOL     OW24437   6.933   1.081   1.228 -0.0752 -0.4126 -0.2434
 7868SOL    HW124438   6.918   1.136   1.305 -0.5712  0.0973 -0.6885
 7868SOL    HW224439   7.000   1.019   1.255  1.9273  1.5789 -0.2916
 7869SOL     OW24440   0.799   5.078   7.336  0.2133  0.2188  0.3983
 7869SOL    HW124441   0.835   5.152   7.386  0.8065 -1.1611  2.1315
 7869SOL    HW224442   0.875   5.034   7.299  0.0550 -0.6851  1.1103
 7870SOL     OW24443   0.025   5.574   3.521  0.2795  0.3066  0.1187
 7870SOL    HW124444  -0.010   5.556   3.434 -0.4356 -1.0998  0.6567
 7870SOL    HW224445  -0.027   5.518   3.579  1.6932  0.1295  1.2638
 7871SOL     OW24446   3.083   7.849   1.105  0.3774  0.0529  0.1343
 7871SOL    HW124447   3.121   7.935   1.091 -0.6150  0.3040 -1.2234
 7871SOL    HW224448   3.004   7.865   1.157  0.6246 -0.1376  0.5742
 7872SOL     OW24449   5.434   4.683   0.165 -0.0404 -0.2391 -0.7580
 7872SOL    HW124450   5.505   4.625   0.195  1.0438  0.1672 -2.4079
 7872SOL    HW224451   5.451   4.766   0.210 -0.1529 -0.4748 -0.2729
 7873SOL     OW24452   5.848   7.767   6.175  0.0983  0.3813 -0.4793
 7873SOL    HW124453   5.833   7.676   6.201  2.4675  0.4823  1.5723
 7873SOL    HW224454   5.861   7.814   6.257  0.1318  2.3648 -1.5515
 7874SOL     OW24455   5.060   2.378   1.852  0.6416  0.0059  0.0139
 7874SOL    HW124456   5.123   2.305   1.853 -0.1209 -0.8904 -3.1513
 7874SOL    HW224457   5.113   2.454   1.828  0.8116 -0.4130 -0.9959
 7875SOL     OW24458   5.946   2.637   6.629 -0.2385 -0.4254  0.1520
 7875SOL    HW124459   5.915   2.647   6.539  1.5690 -1.0553 -0.5765
 7875SOL    HW224460   5.976   2.546   6.635 -0.5668 -0.4780  1.4821
 7876SOL     OW24461   7.720   0.150   5.549 -0.3731  0.7546 -0.1258
 7876SOL    HW124462   7.635   0.119   5.521 -0.3524  0.7185 -0.1490
 7876SOL    HW224463   7.754   0.080   5.605 -0.2544  0.6611 -0.3131
 7877SOL     OW24464   1.286   5.168   7.820  0.0808 -0.0893  0.0430
 7877SOL    HW124465   1.260   5.214   7.740  0.0674  0.9846  0.6510
 7877SOL    HW224466   1.302   5.237   7.883  2.7784 -0.7523  0.1984
 7878SOL     OW24467   7.018   5.647   7.817  0.2579  0.1009 -0.6171
 7878SOL    HW124468   7.008   5.554   7.799 -0.4618  0.0900 -0.1768
 7878SOL    HW224469   6.976   5.690   7.742 -0.2686  0.0652 -0.3456
 7879SOL     OW24470   0.953   7.874   4.684  0.0996 -0.7915  0.0376
 7879SOL    HW124471   1.003   7.954   4.692 -1.4730  0.5069 -1.9475
 7879SOL    HW224472   0.932   7.848   4.774  3.2993 -0.8318  0.8772
 7880SOL     OW24473   5.909   0.327   0.037 -0.4119  0.5416  0.2125
 7880SOL    HW124474   5.899   0.265  -0.036  0.6306  0.6917 -0.0780
 7880SOL    HW224475   5.845   0.298   0.102  0.1578 -0.9380  0.1525
 7881SOL     OW24476   1.643   7.897   3.558 -0.6603 -0.0447  0.2778
 7881SOL    HW124477   1.574   7.832   3.572 -1.0976  0.3403 -0.0743
 7881SOL    HW224478   1.659   7.934   3.645 -1.0303  0.0025  0.3250
 7882SOL     OW24479   0.318   1.729   3.455 -0.1549 -0.3559 -0.4502
 7882SOL    HW124480   0.319   1.725   3.551  0.0331 -1.2810 -0.4802
 7882SOL    HW224481   0.240   1.781   3.434  0.2788  0.5878  0.2105
 7883SOL     OW24482   4.663   5.326   4.920  0.1205 -0.2643 -0.5494
 7883SOL    HW124483   4.701   5.238   4.920 -0.4580 -0.5144 -0.6548
 7883SOL    HW224484   4.665   5.353   5.012  0.4716 -0.3048 -0.5414
 7884SOL     OW24485   7.856   6.198   0.337  0.3206 -0.2059 -0.0182
 7884SOL    HW124486   7.890   6.245   0.261  2.0304 -0.6978  0.4076
 7884SOL    HW224487   7.766   6.230   0.346 -0.5256 -1.3332 -3.2171
 7885SOL     OW24488   3.900   4.064   0.488  1.0342 -0.5647 -0.1150
 7885SOL    HW124489   3.964   4.135   0.481  0.5556 -0.0037  0.9831
 7885SOL    HW224490   3.933   4.008   0.557  0.3474 -0.2583  0.4760
 7886SOL     OW24491   1.128   3.406   6.236 -0.0330  0.0363 -0.1122
 7886SOL    HW124492   1.187   3.455   6.179 -1.2489  0.6003 -0.9478
 7886SOL    HW224493   1.106   3.328   6.185 -0.6786  0.2658 -0.1984
 7887SOL     OW24494   3.060   4.232   2.480 -0.1372 -0.1578 -0.3689
 7887SOL    HW124495   3.130   4.280   2.435 -0.8102 -0.2513 -1.5293
 7887SOL    HW224496   3.102   4.202   2.561  0.2118  2.6696  0.6173
 7888SOL     OW24497   5.706   7.906   0.197  0.0986  0.2529 -0.3543
 7888SOL    HW124498   5.616   7.878   0.178 -1.4169  2.0450  3.2949
 7888SOL    HW224499   5.753   7.825   0.215 -0.7137 -0.7093 -2.2088
 7889SOL     OW24500   0.193   4.145   5.839 -0.8296 -0.1553 -0.1283
 7889SOL    HW124501   0.099   4.165   5.834 -1.0450 -0.7565  1.1812
 7889SOL    HW224502   0.218   4.125   5.748 -1.7437  0.9109 -0.6481
 7890SOL     OW24503   7.842   6.268   2.906  0.2548 -0.2329 -0.3697
 7890SOL    HW124504   7.900   6.310   2.843 -3.2023  0.4844 -3.3898
 7890SOL    HW224505   7.798   6.341   2.950  1.2360 -0.7669  1.6252
 7891SOL     OW24506   3.501   0.200   4.591  0.2486 -0.9910  0.1937
 7891SOL    HW124507   3.569   0.210   4.525  0.4916 -3.0242  0.0608
 7891SOL    HW224508   3.428   0.254   4.559  0.6344 -1.3424 -1.3430
 7892SOL     OW24509   1.086   2.975   3.849  0.1317 -0.2178 -0.0323
 7892SOL    HW124510   1.167   2.941   3.812 -0.2345  0.6246 -1.7193
 7892SOL    HW224511   1.017   2.937   3.794 -0.4590  0.7894 -0.0126
 7893SOL     OW24512   2.883   1.391   0.737 -0.1697  0.2787  0.0621
 7893SOL    HW124513   2.822   1.414   0.807 -3.0003 -0.6741 -1.8993
 7893SOL    HW224514   2.936   1.320   0.772  0.1128  1.3497  1.9419
 7894SOL     OW24515   4.942   5.897   4.015  0.0626 -0.6227 -0.2647
 7894SOL    HW124516   4.850   5.884   3.990 -0.3915  1.3223  0.2170
 7894SOL    HW224517   4.944   5.880   4.109 -0.0833  0.5040 -0.0443
 7895SOL     OW24518   6.968   1.226   3.073  0.3609 -0.2106 -0.0429
 7895SOL    HW124519   7.000   1.291   3.010 -0.4659  1.7105  1.4261
 7895SOL    HW224520   6.877   1.251   3.089  0.3623 -1.0405  1.4315
 7896SOL     OW24521   2.371   3.021   1.068 -0.1928 -0.1517 -0.1257
 7896SOL    HW124522   2.336   3.109   1.059 -0.3490 -0.3075 -1.2161
 7896SOL    HW224523   2.293   2.965   1.074 -0.1341 -0.0666  2.8284
 7897SOL     OW24524   7.587   0.012   0.495  0.3095 -0.3561  0.2533
 7897SOL    HW124525   7.525  -0.031   0.435  0.6231  0.6425 -0.8397
 7897SOL    HW224526   7.578   0.105   0.475 -2.6868  0.5940  4.7530
 7898SOL     OW24527   7.249   3.420   0.143 -0.6199 -0.2249  0.0719
 7898SOL    HW124528   7.162   3.457   0.128 -0.8768 -1.4239 -1.7315
 7898SOL    HW224529   7.239   3.327   0.123  0.9114 -0.5240  0.5872
 7899SOL     OW24530   4.823   1.872   4.985  0.4934  0.1544  0.4027
 7899SOL    HW124531   4.871   1.828   4.914 -1.9016 -1.5108 -0.3050
 7899SOL    HW224532   4.890   1.889   5.051  2.3278 -0.6691 -1.1362
 7900SOL     OW24533   7.071   5.446   0.800 -0.2569  0.0794  0.5214
 7900SOL    HW124534   7.086   5.448   0.706 -1.1942  1.0185  0.3741
 7900SOL    HW224535   6.977   5.434   0.809 -0.1828  0.0356  1.3389
 7901SOL     OW24536   2.837   4.251   5.904  0.1115  0.4192  1.0049
 7901SOL    HW124537   2.890   4.188   5.952 -0.1950  1.4689  2.8031
 7901SOL    HW224538   2.765   4.199   5.867  0.0029 -0.3333  2.2231
 7902SOL     OW24539   2.100   2.873   1.159 -0.6339 -0.2943 -0.1141
 7902SOL    HW124540   2.068   2.790   1.123 -1.1747 -0.0160 -0.2839
 7902SOL    HW224541   2.111   2.856   1.253 -1.0663 -0.4639 -0.0902
 7903SOL     OW24542   3.474   6.039   7.761  0.3459 -0.0567 -0.3640
 7903SOL    HW124543   3.425   5.960   7.785 -0.0672 -0.1628 -1.4564
 7903SOL    HW224544   3.538   6.051   7.831 -1.4813  0.3036  1.3388
 7904SOL     OW24545   3.930   2.700   7.538 -0.1309 -0.4277  0.5345
 7904SOL    HW124546   3.975   2.697   7.454 -0.7166 -1.2018  0.2374
 7904SOL    HW224547   4.000   2.692   7.603  0.1719 -1.6268  0.0832
 7905SOL     OW24548   2.984   5.564   7.026 -0.1255 -0.2335 -0.3086
 7905SOL    HW124549   3.060   5.616   7.001 -0.0287 -0.5499 -0.6834
 7905SOL    HW224550   2.976   5.498   6.957 -0.7243 -0.2191 -0.2621
 7906SOL     OW24551   5.071   6.473   4.312 -0.2699 -0.1646 -0.2219
 7906SOL    HW124552   5.016   6.440   4.241  0.2179 -0.3826 -0.4948
 7906SOL    HW224553   5.105   6.395   4.355  0.2882 -0.0230 -0.4083
 7907SOL     OW24554   4.017   6.603   5.069 -0.4572  0.2592  0.7342
 7907SOL    HW124555   4.018   6.522   5.017  0.7730  1.3340 -1.0136
 7907SOL    HW224556   3.939   6.650   5.037 -0.1666  0.5480  0.4410
 7908SOL     OW24557   3.994   0.332   5.371  0.0027 -0.2605  0.0518
 7908SOL    HW124558   3.965   0.241   5.366  0.7122 -0.4319 -1.3541
 7908SOL    HW224559   4.088   0.328   5.356  0.6354  0.4344  3.1630
 7909SOL     OW24560   1.623   7.862   6.376  0.1837  0.6390  0.2019
 7909SOL    HW124561   1.601   7.916   6.300  0.8137  2.3032  1.1395
 7909SOL    HW224562   1.666   7.922   6.436  0.6923 -0.8807  1.4324
 7910SOL     OW24563   7.204   2.809   7.581  0.0114 -0.0998  0.0933
 7910SOL    HW124564   7.185   2.903   7.582 -0.6051 -0.0509 -3.4914
 7910SOL    HW224565   7.123   2.768   7.610  0.0237  0.4083  0.8974
 7911SOL     OW24566   7.710   0.712   5.671 -0.2808  0.4058 -0.0704
 7911SOL    HW124567   7.721   0.617   5.665 -2.3066 -0.0281  1.5397
 7911SOL    HW224568   7.767   0.748   5.604  1.6334 -1.8735  0.2254
 7912SOL     OW24569   0.886   3.925   1.589  0.2569  0.3609  0.2886
 7912SOL    HW124570   0.835   3.855   1.630 -1.0935  1.1566  0.0518
 7912SOL    HW224571   0.820   3.986   1.556  1.3817  1.4050 -0.1121
 7913SOL     OW24572   0.298   6.799   7.891  0.7283 -0.2760 -0.0168
 7913SOL    HW124573   0.288   6.704   7.899  0.3903 -0.1871  0.7238
 7913SOL    HW224574   0.340   6.812   7.806 -0.0474 -1.0402 -0.5377
 7914SOL     OW24575   6.329   7.406   5.181 -0.4693  0.4089  0.0552
 7914SOL    HW124576   6.285   7.330   5.218 -0.3374  0.0127 -0.5916
 7914SOL    HW224577   6.375   7.373   5.104 -0.4955  1.1629 -0.3012
 7915SOL     OW24578   5.463   2.752   2.548  0.5535  0.2751 -0.0565
 7915SOL    HW124579   5.529   2.682   2.546  1.1284  0.7493  1.1631
 7915SOL    HW224580   5.504   2.822   2.599 -0.1218  1.4028 -1.0050
 7916SOL     OW24581   7.733   2.508   5.819 -0.5001  0.4590 -0.3210
 7916SOL    HW124582   7.731   2.511   5.915 -2.4725 -0.3137 -0.2810
 7916SOL    HW224583   7.700   2.421   5.798  0.6294  0.3405 -1.7221
 7917SOL     OW24584   4.646   4.833   2.713 -0.0737 -0.3111 -0.0991
 7917SOL    HW124585   4.634   4.923   2.742 -1.7138 -0.4756 -0.2082
 7917SOL    HW224586   4.715   4.799   2.771 -0.7487  0.4582  1.2160
 7918SOL     OW24587   5.083   4.766   4.608  0.3570  0.6208 -0.0979
 7918SOL    HW124588   5.134   4.782   4.687 -1.0930 -0.2830  1.0845
 7918SOL    HW224589   5.093   4.672   4.591  2.3427  1.1453 -2.2705
 7919SOL     OW24590   1.074   5.190   2.723 -0.2202  0.2163  0.6301
 7919SOL    HW124591   1.039   5.237   2.799  1.1038  0.5039  1.0921
 7919SOL    HW224592   1.089   5.258   2.658  0.1081  0.1954  0.6827
 7920SOL     OW24593   6.108   2.218   7.180 -0.7680 -0.5015  0.0316
 7920SOL    HW124594   6.046   2.169   7.126 -0.2258 -0.9678 -0.1765
 7920SOL    HW224595   6.177   2.155   7.200 -0.5744 -0.1058  0.6187
 7921SOL     OW24596   3.103   7.925   7.745 -0.6292 -0.7775 -0.2006
 7921SOL    HW124597   3.089   7.963   7.832  1.5019 -2.8244  1.1383
 7921SOL    HW224598   3.018   7.935   7.701 -1.5741  0.9270  1.8283
 7922SOL     OW24599   7.065   2.457   0.502 -0.2576  0.1795  0.0219
 7922SOL    HW124600   6.973   2.457   0.475  0.1480 -0.2317 -1.4532
 7922SOL    HW224601   7.089   2.364   0.503  0.3529  0.3306 -0.3535
 7923SOL     OW24602   5.081   5.343   5.188  0.4758  0.3392  0.1181
 7923SOL    HW124603   5.046   5.406   5.250 -0.6222 -1.1636  1.1026
 7923SOL    HW224604   5.061   5.379   5.102  0.3757  1.5750  0.6508
 7924SOL     OW24605   5.173   4.111   0.636 -0.3650 -0.4759  0.2553
 7924SOL    HW124606   5.095   4.055   0.639  0.5877 -2.1048 -2.1482
 7924SOL    HW224607   5.217   4.095   0.720 -0.8708 -2.2502  0.2222
 7925SOL     OW24608   7.659   3.818   5.561  0.4679 -0.1200 -0.2381
 7925SOL    HW124609   7.615   3.740   5.597 -0.1522  0.7210  0.8839
 7925SOL    HW224610   7.649   3.809   5.466  0.3588 -1.3732 -0.1359
 7926SOL     OW24611   3.982   0.566   7.192 -0.6835 -0.0453 -0.2217
 7926SOL    HW124612   4.017   0.654   7.183 -1.3231  0.1400 -0.9577
 7926SOL    HW224613   3.891   0.578   7.218 -1.0964 -0.4442 -1.3872
 7927SOL     OW24614   3.670   5.318   7.196  0.0295 -0.3701  0.1681
 7927SOL    HW124615   3.697   5.386   7.258 -0.2671 -0.2343  0.1494
 7927SOL    HW224616   3.709   5.343   7.113 -0.1855 -0.1511  0.1317
 7928SOL     OW24617   3.106   5.576   2.794  0.1474 -0.1721 -0.6610
 7928SOL    HW124618   3.090   5.652   2.849 -0.5175 -0.6613 -0.1613
 7928SOL    HW224619   3.194   5.590   2.759 -0.2665  1.2198 -1.2284
 7929SOL     OW24620   7.590   6.485   2.364 -0.3808  0.2396  0.0821
 7929SOL    HW124621   7.503   6.460   2.333 -0.1452 -0.7431  0.2009
 7929SOL    HW224622   7.574   6.525   2.450 -0.5684 -1.5102  0.8968
 7930SOL     OW24623   5.656   7.231   0.553 -0.1260  0.3111  0.5089
 7930SOL    HW124624   5.732   7.223   0.495  0.0170 -0.0022  0.7424
 7930SOL    HW224625   5.588   7.178   0.511 -0.1200  0.3365  0.4669
 7931SOL     OW24626   6.904   1.071   6.142  0.3165  0.3499 -0.0620
 7931SOL    HW124627   6.864   1.010   6.205  0.6839  0.2810  0.1061
 7931SOL    HW224628   6.847   1.148   6.144 -0.1823 -0.0091 -0.3164
 7932SOL     OW24629   4.407   5.146   7.431  0.3964  0.1561 -0.2203
 7932SOL    HW124630   4.376   5.217   7.375 -1.4591  0.3606  0.9753
 7932SOL    HW224631   4.463   5.188   7.496  0.3263  0.3351 -0.2762
 7933SOL     OW24632   0.435   4.902   6.084  0.6286 -0.5447 -0.7940
 7933SOL    HW124633   0.417   4.861   5.999  1.0046 -0.2000 -1.0449
 7933SOL    HW224634   0.425   4.831   6.147 -1.4234 -0.4271 -0.9149
 7934SOL     OW24635   7.540   7.747   7.043 -0.3187  1.0097 -0.0560
 7934SOL    HW124636   7.581   7.764   7.128  0.4796  1.2480 -0.4826
 7934SOL    HW224637   7.475   7.679   7.062  0.4932  0.3788  0.5772
 7935SOL     OW24638   1.824   3.450   0.055  0.0236  0.3099 -0.6334
 7935SOL    HW124639   1.792   3.497   0.132  0.7829  1.0385 -0.7524
 7935SOL    HW224640   1.910   3.487   0.037  2.1372 -3.2034  1.1078
 7936SOL     OW24641   4.082   5.052   3.529 -0.0181  0.1242 -0.0273
 7936SOL    HW124642   4.045   5.017   3.610  2.0287 -0.9575  0.5365
 7936SOL    HW224643   4.150   5.113   3.559  0.9085 -0.4572 -0.9018
 7937SOL     OW24644   5.841   6.937   5.271  0.2336 -0.4843  0.0044
 7937SOL    HW124645   5.798   6.977   5.347  0.7639  1.5128 -0.6798
 7937SOL    HW224646   5.919   6.895   5.307 -0.3278 -0.8979  0.7590
 7938SOL     OW24647   3.679   4.620   4.300  0.0596  0.0911 -0.4184
 7938SOL    HW124648   3.662   4.603   4.393  0.2551 -1.2947 -0.6220
 7938SOL    HW224649   3.747   4.558   4.276 -0.0622  0.3648 -1.5212
 7939SOL     OW24650   1.382   7.869   7.247  0.3019  0.3087 -0.1424
 7939SOL    HW124651   1.309   7.918   7.285  2.1508  1.2847  2.4799
 7939SOL    HW224652   1.426   7.931   7.189  1.0131  0.9111  1.0017
 7940SOL     OW24653   0.617   6.887   0.206  0.5374  0.0506  0.0339
 7940SOL    HW124654   0.608   6.957   0.141  0.4640  0.1848  0.1893
 7940SOL    HW224655   0.535   6.889   0.256  0.0388 -0.9004 -0.7063
 7941SOL     OW24656   4.483   2.095   5.339 -0.1356 -0.2658  0.3396
 7941SOL    HW124657   4.419   2.123   5.404 -1.1132 -1.3809 -0.1184
 7941SOL    HW224658   4.439   2.105   5.255  0.8665  0.4792 -0.1158
 7942SOL     OW24659   4.048   3.633   2.165 -0.4302  0.2292 -0.2038
 7942SOL    HW124660   3.965   3.665   2.201 -0.6669  1.4045 -1.6835
 7942SOL    HW224661   4.109   3.705   2.177  0.9797 -1.2499  2.5258
 7943SOL     OW24662   0.950   6.482   0.785  0.6508 -0.2899  0.1569
 7943SOL    HW124663   0.876   6.533   0.754  1.5997  3.5384  3.4054
 7943SOL    HW224664   1.001   6.463   0.706 -0.3819  2.8918 -1.4420
 7944SOL     OW24665   6.769   1.879   7.142 -0.1730 -0.3786  0.1302
 7944SOL    HW124666   6.718   1.935   7.201  0.9020 -1.0773  1.8205
 7944SOL    HW224667   6.780   1.797   7.190  0.8905 -0.9263 -0.9843
 7945SOL     OW24668   1.788   3.038   4.789  0.0105  0.2311 -0.2793
 7945SOL    HW124669   1.831   2.953   4.800 -1.0470 -0.4177 -0.9947
 7945SOL    HW224670   1.821   3.091   4.861  1.6278 -0.3854 -0.5146
 7946SOL     OW24671   0.406   2.726   7.781 -0.3120  0.6220 -0.3356
 7946SOL    HW124672   0.320   2.714   7.820 -0.3760 -0.1504 -0.6985
 7946SOL    HW224673   0.388   2.759   7.693 -0.1756  2.0823  0.1472
 7947SOL     OW24674   3.562   7.256   6.560 -0.0203  0.2405  0.6805
 7947SOL    HW124675   3.632   7.267   6.496 -0.6990  0.9284  0.0307
 7947SOL    HW224676   3.493   7.210   6.512 -0.3805  0.4019  1.0357
 7948SOL     OW24677   4.805   2.938   2.257  0.2034  0.8765 -0.1458
 7948SOL    HW124678   4.901   2.939   2.265  0.1357  0.2137  0.9096
 7948SOL    HW224679   4.787   2.870   2.192  0.4086  0.1341  0.5564
 7949SOL     OW24680   1.852   6.642   0.259 -0.1404  0.0565 -0.4484
 7949SOL    HW124681   1.862   6.561   0.209 -0.0280 -0.2561  0.0765
 7949SOL    HW224682   1.933   6.649   0.309  0.8357  1.6573 -2.1290
 7950SOL     OW24683   5.452   5.028   7.490  0.4653 -0.1076  0.2552
 7950SOL    HW124684   5.434   5.120   7.471 -3.0048 -0.0296  2.9449
 7950SOL    HW224685   5.375   4.981   7.456  0.8437 -1.6164  1.3994
 7951SOL     OW24686   5.781   2.032   7.250 -0.0298  0.2737  0.3291
 7951SOL    HW124687   5.774   1.952   7.197  2.0799 -0.8038  1.5567
 7951SOL    HW224688   5.691   2.050   7.277 -0.3128 -4.2935  3.5962
 7952SOL     OW24689   7.744   6.409   5.498  0.2863 -0.1126 -0.1360
 7952SOL    HW124690   7.732   6.403   5.403  0.0847  0.3812 -0.1440
 7952SOL    HW224691   7.672   6.464   5.528 -0.2903 -1.1633  0.4504
 7953SOL     OW24692   1.422   2.551   2.725 -0.3273 -0.0605  0.1453
 7953SOL    HW124693   1.416   2.574   2.818 -0.2818  1.7749 -0.2692
 7953SOL    HW224694   1.343   2.499   2.709 -0.0119 -0.9632  1.3430
 7954SOL     OW24695   7.369   6.071   1.011  0.3564 -0.2534 -0.0559
 7954SOL    HW124696   7.463   6.059   1.018  0.4329  0.2990 -0.0554
 7954SOL    HW224697   7.356   6.116   0.927  0.2894  1.4293  0.7966
 7955SOL     OW24698   0.760   7.899   6.645 -0.7567 -0.3542  0.0838
 7955SOL    HW124699   0.852   7.918   6.627 -0.9559 -0.9880 -1.8614
 7955SOL    HW224700   0.724   7.980   6.680  0.1217  0.4894 -0.9282
 7956SOL     OW24701   7.490   6.801   0.983  0.0043 -0.3517 -0.2355
 7956SOL    HW124702   7.525   6.872   1.036  0.2511  0.6430 -1.6874
 7956SOL    HW224703   7.448   6.743   1.046 -1.0415  1.5491  0.9085
 7957SOL     OW24704   6.655   0.179   4.192 -0.2673  0.1060  0.0994
 7957SOL    HW124705   6.707   0.099   4.196  1.6426  1.0485 -2.6299
 7957SOL    HW224706   6.683   0.229   4.269  2.2426  0.1486 -0.7462
 7958SOL     OW24707   2.263   4.034   1.631  0.4351 -0.3478 -0.8220
 7958SOL    HW124708   2.348   4.022   1.673  0.0735 -0.2516 -0.0404
 7958SOL    HW224709   2.252   3.956   1.577  1.2536 -0.1057 -1.3492
 7959SOL     OW24710   3.403   7.517   2.809  0.1933 -0.0316  0.2580
 7959SOL    HW124711   3.406   7.600   2.762  0.8114  0.0665  0.4753
 7959SOL    HW224712   3.467   7.462   2.765  0.2773 -0.1701  0.5508
 7960SOL     OW24713   7.091   2.127   0.885 -0.8002 -0.2513 -0.5220
 7960SOL    HW124714   7.063   2.071   0.958  1.5784  0.4645  1.0568
 7960SOL    HW224715   7.181   2.101   0.869 -0.0615  2.1819 -0.6435
 7961SOL     OW24716   2.654   7.408   4.746  0.0623 -0.4801  0.2701
 7961SOL    HW124717   2.588   7.370   4.688  0.7257 -1.0449 -0.1240
 7961SOL    HW224718   2.615   7.403   4.833 -0.6965 -0.1784 -0.0489
 7962SOL     OW24719   2.233   4.758   5.294 -0.0421 -1.4124  0.0102
 7962SOL    HW124720   2.248   4.789   5.384 -2.3942 -0.0319 -0.0081
 7962SOL    HW224721   2.170   4.820   5.257  0.2770 -2.3951 -2.3689
 7963SOL     OW24722   0.186   5.881   5.721 -0.5141  0.1046  0.4024
 7963SOL    HW124723   0.274   5.878   5.684 -0.1473 -0.1363  1.2639
 7963SOL    HW224724   0.150   5.964   5.692 -1.1841 -1.1108 -2.5396
 7964SOL     OW24725   5.841   7.364   7.236  0.0318 -0.5442  0.1077
 7964SOL    HW124726   5.833   7.270   7.253 -0.1257 -0.6321 -0.4465
 7964SOL    HW224727   5.885   7.370   7.152  2.3227 -0.0884  1.2421
 7965SOL     OW24728   7.158   7.808   4.066  0.3095  0.4906 -0.2906
 7965SOL    HW124729   7.207   7.731   4.096  1.7168  1.7588  0.8623
 7965SOL    HW224730   7.209   7.842   3.993  0.3734  1.0351  0.0066
 7966SOL     OW24731   3.375   0.625   7.034 -0.0554 -0.0506  0.0657
 7966SOL    HW124732   3.455   0.634   7.085 -0.0216  0.8127 -0.1203
 7966SOL    HW224733   3.305   0.623   7.100  0.0295  0.4629  0.1728
 7967SOL     OW24734   5.641   3.304   2.905 -0.4403 -0.3668 -0.3057
 7967SOL    HW124735   5.635   3.222   2.954 -1.0609 -0.2883 -0.2433
 7967SOL    HW224736   5.628   3.278   2.814  1.3663 -0.6079 -0.5504
 7968SOL     OW24737   1.036   5.613   3.413 -0.5873  0.1781 -0.8632
 7968SOL    HW124738   0.956   5.636   3.460 -0.5711  0.0174 -0.7574
 7968SOL    HW224739   1.018   5.637   3.322 -0.7499  0.1570 -0.8371
 7969SOL     OW24740   3.962   0.661   5.637  0.9006 -0.1818  0.0526
 7969SOL    HW124741   3.924   0.710   5.564  0.2847  1.0587  1.1642
 7969SOL    HW224742   3.898   0.593   5.657  0.7816 -0.1311 -0.1537
 7970SOL     OW24743   1.310   6.688   1.580 -0.5797 -0.1967 -0.2684
 7970SOL    HW124744   1.388   6.667   1.528  0.2083  0.9297  0.4256
 7970SOL    HW224745   1.341   6.690   1.671 -1.3265  0.6064 -0.0165
 7971SOL     OW24746   2.760   7.416   1.872  0.3503 -0.5624  0.0453
 7971SOL    HW124747   2.670   7.386   1.881  0.7139 -1.3892  1.1275
 7971SOL    HW224748   2.796   7.364   1.800 -0.4910  0.9596 -1.5400
 7972SOL     OW24749   7.092   5.273   6.506 -0.4081 -0.2552  0.1599
 7972SOL    HW124750   7.117   5.249   6.416 -0.1674 -1.9108  0.6363
 7972SOL    HW224751   7.167   5.248   6.559  0.3662  2.7380  0.6293
 7973SOL     OW24752   6.141   1.769   4.474  0.8084  0.0678  0.2103
 7973SOL    HW124753   6.230   1.736   4.486  0.7454 -0.5166 -0.8333
 7973SOL    HW224754   6.122   1.755   4.382 -0.2480  0.4988  0.3447
 7974SOL     OW24755   0.668   5.492   4.321 -0.6164  0.3348 -0.1987
 7974SOL    HW124756   0.603   5.455   4.260  1.0465 -1.7028 -0.8673
 7974SOL    HW224757   0.630   5.480   4.407 -0.8582 -1.5323 -0.5258
 7975SOL     OW24758   4.439   0.989   4.073  1.2794  0.0774  0.0591
 7975SOL    HW124759   4.383   0.941   4.133  1.5948 -1.2363 -0.6535
 7975SOL    HW224760   4.414   1.081   4.085 -1.7058 -0.5042 -0.9090
 7976SOL     OW24761   4.493   2.539   5.107 -0.1461 -0.3612 -0.2559
 7976SOL    HW124762   4.550   2.609   5.073 -1.1751 -0.0008 -1.3246
 7976SOL    HW224763   4.407   2.579   5.112 -0.4748 -1.1435  0.5361
 7977SOL     OW24764   4.425   5.718   2.978  0.0273  0.2690 -0.1228
 7977SOL    HW124765   4.371   5.688   3.051 -0.1244  0.0425 -0.3264
 7977SOL    HW224766   4.427   5.813   2.987 -0.5446  0.2913 -0.2145
 7978SOL     OW24767   7.332   1.534   3.161  0.0152  0.3643 -0.0693
 7978SOL    HW124768   7.327   1.474   3.086 -0.0873  1.8480 -1.3075
 7978SOL    HW224769   7.405   1.500   3.213 -0.7312 -1.4598 -0.1226
 7979SOL     OW24770   1.514   2.701   1.876 -0.3147 -0.2193  0.2691
 7979SOL    HW124771   1.430   2.656   1.879  0.8054 -2.4158  1.6278
 7979SOL    HW224772   1.578   2.632   1.856  1.0532  1.6490 -2.5367
 7980SOL     OW24773   5.241   7.792   0.554  0.1307  0.2925 -0.2436
 7980SOL    HW124774   5.300   7.867   0.559  0.6481 -0.0878 -0.4878
 7980SOL    HW224775   5.203   7.784   0.641  3.2596 -1.7007  1.0966
 7981SOL     OW24776   1.833   1.908   2.555 -0.2592  0.1797 -0.3550
 7981SOL    HW124777   1.828   1.861   2.638  1.6894  0.2641 -0.1385
 7981SOL    HW224778   1.841   1.839   2.489 -0.2215  0.1399 -0.3090
 7982SOL     OW24779   4.018   7.390   4.173 -0.0639 -0.2961  0.1739
 7982SOL    HW124780   4.003   7.463   4.233 -2.7428 -0.0635 -0.6561
 7982SOL    HW224781   4.060   7.323   4.226  3.2974  2.0347  0.7751
 7983SOL     OW24782   3.188   1.928   6.812  0.2720 -0.1249  0.1002
 7983SOL    HW124783   3.271   1.880   6.803  0.5327 -0.2765  2.5708
 7983SOL    HW224784   3.213   2.010   6.854 -0.6020  0.7850 -1.1103
 7984SOL     OW24785   7.507   1.969   1.350  0.0128  0.2263  0.1099
 7984SOL    HW124786   7.565   1.977   1.426  0.6799 -0.5632 -0.2936
 7984SOL    HW224787   7.565   1.975   1.274 -0.6438  0.9816 -0.3491
 7985SOL     OW24788   3.150   2.059   3.772  0.0535  0.0425 -0.4595
 7985SOL    HW124789   3.231   2.062   3.722 -0.1750  1.9482 -0.7952
 7985SOL    HW224790   3.146   1.970   3.806  2.6334  0.0842  0.1517
 7986SOL     OW24791   7.846   6.961   7.181  0.1925 -0.5402 -0.0584
 7986SOL    HW124792   7.901   6.890   7.148 -2.8284 -2.4367 -1.3868
 7986SOL    HW224793   7.778   6.918   7.231 -1.4312  1.4637 -0.4111
 7987SOL     OW24794   1.307   4.289   4.698  0.3796 -0.3780 -0.1811
 7987SOL    HW124795   1.311   4.269   4.604  0.9068 -0.5883 -0.1192
 7987SOL    HW224796   1.267   4.375   4.702  0.4642 -0.3140 -0.6104
 7988SOL     OW24797   3.562   3.843   1.747  0.1816 -0.0869 -0.5366
 7988SOL    HW124798   3.483   3.889   1.719  0.9414  1.2644 -0.5511
 7988SOL    HW224799   3.560   3.760   1.699 -0.3786  0.6405 -1.8226
 7989SOL     OW24800   2.486   5.888   7.623 -0.1063 -0.1953  0.2492
 7989SOL    HW124801   2.535   5.807   7.608  0.8716  0.3968  0.1805
 7989SOL    HW224802   2.479   5.929   7.537 -3.8609 -1.9277 -0.5009
 7990SOL     OW24803   7.812   3.849   2.899 -0.0985  0.5614 -0.2302
 7990SOL    HW124804   7.743   3.784   2.888 -0.4118  0.6177  1.1972
 7990SOL    HW224805   7.802   3.908   2.824 -0.4314 -0.4553 -1.0179
 7991SOL     OW24806   7.397   4.589   3.153  0.1663  0.4835 -0.2325
 7991SOL    HW124807   7.415   4.677   3.186  0.3475  0.1480  0.5770
 7991SOL    HW224808   7.447   4.531   3.211 -0.6034 -0.2080 -0.2541
 7992SOL     OW24809   6.112   5.824   2.621  0.2784 -0.2999 -0.2695
 7992SOL    HW124810   6.141   5.902   2.669 -0.2042 -0.7442  0.7702
 7992SOL    HW224811   6.176   5.815   2.550  1.3618  0.0366  0.6414
 7993SOL     OW24812   1.205   4.349   5.322  0.4630  0.1810  0.2286
 7993SOL    HW124813   1.251   4.318   5.400  2.8010 -0.0500 -1.1389
 7993SOL    HW224814   1.119   4.308   5.326  0.3486  0.5594  2.8890
 7994SOL     OW24815   4.881   4.915   0.967 -0.1756  0.1134 -0.1973
 7994SOL    HW124816   4.950   4.981   0.958 -0.5565  0.5166 -0.1720
 7994SOL    HW224817   4.929   4.832   0.970  0.3023  0.3749 -0.3351
 7995SOL     OW24818   1.730   6.310   5.908 -0.3236 -0.3224  0.1576
 7995SOL    HW124819   1.733   6.405   5.916  1.3507 -0.1002 -2.0822
 7995SOL    HW224820   1.783   6.278   5.980 -0.2803  0.4824  0.4982
 7996SOL     OW24821   4.664   4.130   3.567  0.2121 -0.1689  0.2664
 7996SOL    HW124822   4.715   4.102   3.491  0.2667 -1.2109  0.6741
 7996SOL    HW224823   4.729   4.154   3.633  0.1654  1.0390 -0.1119
 7997SOL     OW24824   0.145   3.303   4.710 -0.0966  0.5164  0.3854
 7997SOL    HW124825   0.125   3.264   4.795  1.0991  1.3115  1.0642
 7997SOL    HW224826   0.059   3.319   4.670 -0.6563 -0.4170  1.1732
 7998SOL     OW24827   4.215   1.673   5.111  0.4448  0.6033  0.3414
 7998SOL    HW124828   4.164   1.742   5.069 -0.4361 -0.1666  0.1092
 7998SOL    HW224829   4.204   1.689   5.205  0.6064  1.0246  0.2924
 7999SOL     OW24830   4.237   1.302   1.333 -0.1266  0.6446 -0.0257
 7999SOL    HW124831   4.241   1.261   1.246  1.1087 -2.4055  1.3287
 7999SOL    HW224832   4.316   1.355   1.338  1.1739 -1.2285  0.1004
 8000SOL     OW24833   1.429   5.647   0.272  0.1636 -0.1631 -0.0293
 8000SOL    HW124834   1.387   5.731   0.254  0.5449 -0.2230 -1.2660
 8000SOL    HW224835   1.501   5.642   0.209  0.9653 -0.8357  0.8985
 8001SOL     OW24836   6.417   1.852   1.410  0.2569 -0.2269 -0.1368
 8001SOL    HW124837   6.378   1.877   1.326  1.6002  1.5364 -0.2895
 8001SOL    HW224838   6.505   1.823   1.388  0.4143 -0.3400  0.6119
 8002SOL     OW24839   3.825   2.427   0.680  0.0647 -0.1565  0.0945
 8002SOL    HW124840   3.891   2.422   0.611 -0.8539  0.5128 -0.8749
 8002SOL    HW224841   3.745   2.394   0.639 -0.3570 -0.3492  1.0393
 8003SOL     OW24842   1.256   6.755   7.514 -0.3526 -0.0065 -0.1327
 8003SOL    HW124843   1.242   6.660   7.508 -0.2399 -0.0758  0.5376
 8003SOL    HW224844   1.236   6.775   7.606 -0.0534  0.5627 -0.1909
 8004SOL     OW24845   7.089   7.030   7.513  0.6683 -0.0320 -0.5723
 8004SOL    HW124846   7.106   6.951   7.563  0.7845  1.4216  1.8404
 8004SOL    HW224847   7.063   7.095   7.578  2.1343  2.3899 -2.2206
 8005SOL     OW24848   5.647   2.336   2.912 -0.3885 -0.0445 -0.0181
 8005SOL    HW124849   5.664   2.332   3.007  0.2309  0.0333 -0.1188
 8005SOL    HW224850   5.701   2.409   2.882  0.0270 -0.5662 -0.5516
 8006SOL     OW24851   2.053   0.815   1.708  0.5629 -0.0134  0.0412
 8006SOL    HW124852   2.087   0.728   1.727 -1.2498 -0.8062 -0.1449
 8006SOL    HW224853   2.076   0.831   1.617  2.2104  0.3624  0.5014
 8007SOL     OW24854   3.731   7.875   4.209 -0.1671 -0.4601  0.1962
 8007SOL    HW124855   3.659   7.865   4.270 -1.6102 -0.7306 -1.4648
 8007SOL    HW224856   3.730   7.794   4.157  0.2921  0.2211 -0.9088
 8008SOL     OW24857   6.589   1.624   7.679 -0.1426 -0.4068 -0.4335
 8008SOL    HW124858   6.634   1.633   7.763  0.8446 -1.4408 -0.8274
 8008SOL    HW224859   6.633   1.688   7.622 -1.7875  1.3514  0.1890
 8009SOL     OW24860   4.770   6.304   1.223 -0.1215  0.0771  1.0939
 8009SOL    HW124861   4.685   6.262   1.235 -0.7691  1.7012  2.6269
 8009SOL    HW224862   4.827   6.234   1.193 -1.7746 -1.2600  0.9048
 8010SOL     OW24863   0.816   1.264   6.775  0.0356  0.6175 -0.0277
 8010SOL    HW124864   0.768   1.201   6.721 -0.1056 -0.5731  1.4007
 8010SOL    HW224865   0.766   1.267   6.857  1.7904  0.1657  1.1006
 8011SOL     OW24866   2.248   6.157   6.338  0.4325  0.4229  0.6155
 8011SOL    HW124867   2.260   6.138   6.431 -1.1073 -1.0813  0.5620
 8011SOL    HW224868   2.196   6.238   6.336 -1.6453 -0.8167  1.1956
 8012SOL     OW24869   4.209   5.842   4.294  0.4572 -0.2322  0.4434
 8012SOL    HW124870   4.251   5.928   4.295 -0.5064  0.2718 -0.2716
 8012SOL    HW224871   4.188   5.827   4.202 -0.2050 -0.8246  0.6853
 8013SOL     OW24872   0.534   1.291   1.206 -0.0804 -0.1936  0.1051
 8013SOL    HW124873   0.584   1.318   1.283 -2.7503 -0.7524  2.1733
 8013SOL    HW224874   0.501   1.372   1.169 -0.4648 -0.0183  0.8077
 8014SOL     OW24875   6.467   6.337   4.830  0.0801 -0.0029 -0.0434
 8014SOL    HW124876   6.389   6.292   4.798  0.7794 -0.9132 -0.5030
 8014SOL    HW224877   6.511   6.367   4.751  1.1715 -1.1631  0.0961
 8015SOL     OW24878   3.484   7.176   7.604  0.2579 -0.3197 -0.0042
 8015SOL    HW124879   3.565   7.152   7.648 -0.2403 -0.7463  0.7144
 8015SOL    HW224880   3.452   7.094   7.567  0.7320  0.0560 -1.2929
 8016SOL     OW24881   2.338   5.552   7.086  0.5917 -0.4762  0.7014
 8016SOL    HW124882   2.371   5.633   7.124 -0.5206  0.1965  0.2835
 8016SOL    HW224883   2.376   5.482   7.140  1.0066  0.3438  1.4872
 8017SOL     OW24884   6.000   7.185   7.432  0.4513  0.7236  0.5140
 8017SOL    HW124885   5.954   7.108   7.398 -0.2303  1.2240  0.2769
 8017SOL    HW224886   6.033   7.229   7.354  0.1928  1.0692  0.6003
 8018SOL     OW24887   2.063   3.471   3.383  0.2430 -0.2262  0.8950
 8018SOL    HW124888   2.092   3.382   3.366 -1.9964 -0.7416 -0.5236
 8018SOL    HW224889   1.974   3.462   3.417  0.3056  1.4466  1.6147
 8019SOL     OW24890   5.907   5.315   4.421  0.0510 -0.8649  0.4540
 8019SOL    HW124891   5.995   5.342   4.447 -0.5158  1.0762  0.4487
 8019SOL    HW224892   5.849   5.381   4.458 -1.0616  0.2131 -2.8708
 8020SOL     OW24893   2.811   0.635   1.965 -0.0843 -0.5960  0.1974
 8020SOL    HW124894   2.741   0.595   2.017  1.8907 -1.0160  2.7094
 8020SOL    HW224895   2.833   0.715   2.012  1.8323 -1.0318  0.1101
 8021SOL     OW24896   5.762   3.400   7.682 -0.5142 -0.3562  0.5853
 8021SOL    HW124897   5.766   3.382   7.588 -1.7844 -1.2342  0.6815
 8021SOL    HW224898   5.840   3.453   7.699 -0.5252  0.2574 -1.0510
 8022SOL     OW24899   2.707   6.041   2.422  0.7896  0.1968 -0.7972
 8022SOL    HW124900   2.797   6.071   2.413  0.7526  2.8423  4.2757
 8022SOL    HW224901   2.653   6.119   2.407 -0.5747 -0.8494 -1.6332
 8023SOL     OW24902   4.125   2.100   2.058 -0.6594 -0.1719  0.0221
 8023SOL    HW124903   4.173   2.178   2.032  0.0225 -0.8312 -0.7732
 8023SOL    HW224904   4.133   2.041   1.983 -1.7631 -0.7359  0.3299
 8024SOL     OW24905   6.605   0.222   5.901  0.2662 -0.3834  0.6677
 8024SOL    HW124906   6.612   0.214   5.806  0.5728  0.8966  0.5659
 8024SOL    HW224907   6.514   0.198   5.920  0.5137 -1.7831  0.2049
 8025SOL     OW24908   1.253   3.779   7.682 -0.0063  0.1682  0.1356
 8025SOL    HW124909   1.193   3.771   7.755 -2.2320 -0.5145 -1.6542
 8025SOL    HW224910   1.197   3.801   7.607  2.2849  2.0818 -1.1658
 8026SOL     OW24911   4.914   0.613   4.959 -0.4047  0.1272 -0.1264
 8026SOL    HW124912   4.915   0.681   4.891 -0.9913  0.3253  0.0616
 8026SOL    HW224913   4.822   0.587   4.966 -0.2342 -0.4332  0.0557
 8027SOL     OW24914   3.874   6.639   2.736  0.3785  0.6461 -0.2938
 8027SOL    HW124915   3.876   6.604   2.825 -0.6663  2.8891  0.6965
 8027SOL    HW224916   3.824   6.721   2.743 -1.3586  0.0021 -3.3015
 8028SOL     OW24917   4.392   2.644   1.889 -0.0103 -0.3156  0.1068
 8028SOL    HW124918   4.315   2.690   1.921  0.6199  0.5387  0.4462
 8028SOL    HW224919   4.428   2.702   1.822  1.9622  0.7556  1.9583
 8029SOL     OW24920   6.618   1.612   6.839  0.1223 -1.1049 -0.7916
 8029SOL    HW124921   6.599   1.556   6.764 -0.0367 -1.5568 -0.4196
 8029SOL    HW224922   6.582   1.697   6.815  1.0004 -0.9671 -1.6628
 8030SOL     OW24923   1.351   6.163   6.143  0.4787 -0.2667  0.0362
 8030SOL    HW124924   1.349   6.177   6.049  0.6734  1.1093  0.2227
 8030SOL    HW224925   1.266   6.195   6.174  0.3124 -0.9457  0.3085
 8031SOL     OW24926   5.833   2.283   1.774  0.5329 -0.0302  0.7004
 8031SOL    HW124927   5.762   2.347   1.769  0.8908  0.3491  0.4469
 8031SOL    HW224928   5.800   2.207   1.726  0.7516  0.5809 -0.4658
 8032SOL     OW24929   2.966   4.623   4.302 -0.7287  0.7527 -0.6441
 8032SOL    HW124930   2.998   4.691   4.361  1.3945 -0.9274  0.2858
 8032SOL    HW224931   2.886   4.591   4.345  1.2211 -1.0447  2.0227
 8033SOL     OW24932   3.048   7.935   6.567 -0.4571  0.7005 -0.1576
 8033SOL    HW124933   3.089   7.850   6.582  1.4114  1.5823  0.0107
 8033SOL    HW224934   2.958   7.924   6.597 -0.2354 -1.1912 -0.0933
 8034SOL     OW24935   3.800   6.912   1.724  0.3104 -0.2777 -0.4120
 8034SOL    HW124936   3.709   6.921   1.696  0.2707 -0.7603 -0.4414
 8034SOL    HW224937   3.803   6.954   1.810  0.1161 -0.0496 -0.5157
 8035SOL     OW24938   6.397   6.307   2.178  0.5350  0.2291 -0.2211
 8035SOL    HW124939   6.302   6.319   2.185  0.4893 -0.7836  1.3441
 8035SOL    HW224940   6.423   6.365   2.107 -1.0661  1.5289  0.1906
 8036SOL     OW24941   7.408   4.391   7.647  0.1387  0.4948 -0.0029
 8036SOL    HW124942   7.359   4.414   7.725  2.6907 -0.2849  1.9550
 8036SOL    HW224943   7.448   4.474   7.619  1.1692  0.3540  1.0016
 8037SOL     OW24944   5.548   2.258   4.943  0.3928 -0.4879  0.0068
 8037SOL    HW124945   5.457   2.231   4.949  0.4865 -1.2076 -1.3986
 8037SOL    HW224946   5.575   2.233   4.855  1.9937 -0.4206  0.4400
 8038SOL     OW24947   7.737   5.421   0.374 -0.0791  0.1937  0.1269
 8038SOL    HW124948   7.830   5.407   0.359 -0.1926  0.2122 -0.6868
 8038SOL    HW224949   7.712   5.488   0.310 -0.5188  0.6682  0.7787
 8039SOL     OW24950   7.024   5.838   0.930 -0.6554  0.3571  0.0189
 8039SOL    HW124951   7.101   5.788   0.902 -0.8279  0.6610 -1.0176
 8039SOL    HW224952   7.057   5.892   1.002 -0.3704 -0.9157  0.8847
 8040SOL     OW24953   0.754   5.078   6.931 -0.0031  0.1399 -0.3240
 8040SOL    HW124954   0.849   5.081   6.941  0.0429 -1.5499 -0.0627
 8040SOL    HW224955   0.725   5.166   6.955  1.4815  0.6855 -0.4177
 8041SOL     OW24956   5.505   7.825   6.132  0.0275 -0.7727  0.5194
 8041SOL    HW124957   5.486   7.857   6.043 -0.2144  0.5906  1.0450
 8041SOL    HW224958   5.531   7.734   6.119 -1.9784 -1.2284 -0.7631
 8042SOL     OW24959   5.326   6.627   4.888  0.0510  0.1489 -0.0232
 8042SOL    HW124960   5.255   6.660   4.942  0.2733  0.3289  0.1633
 8042SOL    HW224961   5.369   6.707   4.854  0.8565  0.0650  0.7725
 8043SOL     OW24962   0.598   4.921   3.682 -0.0971  0.1080 -0.1730
 8043SOL    HW124963   0.685   4.918   3.721 -0.1088  0.7381 -0.0851
 8043SOL    HW224964   0.608   4.875   3.598 -0.1856 -1.6667  0.7427
 8044SOL     OW24965   1.348   2.892   4.099 -0.2678 -0.7304 -0.0757
 8044SOL    HW124966   1.308   2.978   4.118  0.7856  0.3084 -2.2588
 8044SOL    HW224967   1.274   2.832   4.098 -1.1742  0.3251  0.4895
 8045SOL     OW24968   0.301   4.563   2.884  0.4988  0.2058  0.1686
 8045SOL    HW124969   0.331   4.492   2.941  1.2921 -0.0982 -0.6023
 8045SOL    HW224970   0.302   4.641   2.939  0.6931 -0.1885  0.7292
 8046SOL     OW24971   2.286   2.458   4.397  0.1165 -0.5303 -0.3756
 8046SOL    HW124972   2.308   2.530   4.339  0.0926 -0.5579 -0.4190
 8046SOL    HW224973   2.241   2.394   4.341 -0.9724 -0.0331 -0.0875
 8047SOL     OW24974   2.607   2.476   4.155 -0.0152 -0.0481  0.3677
 8047SOL    HW124975   2.516   2.482   4.126  0.6962  1.5139 -1.7366
 8047SOL    HW224976   2.650   2.424   4.087  1.1446  1.3216  0.0318
 8048SOL     OW24977   1.320   5.802   0.846 -0.6625  0.8945 -0.2494
 8048SOL    HW124978   1.380   5.871   0.874  2.4324 -2.0299  0.8806
 8048SOL    HW224979   1.293   5.759   0.927 -1.5426 -0.0129 -0.9972
 8049SOL     OW24980   6.687   4.864   3.487  0.1968  0.1250 -0.6569
 8049SOL    HW124981   6.771   4.861   3.441  0.5245 -0.1261 -0.0539
 8049SOL    HW224982   6.623   4.837   3.421  0.3627  1.8881 -1.5960
 8050SOL     OW24983   0.007   5.918   1.519  0.1515  0.3760 -0.1027
 8050SOL    HW124984  -0.082   5.888   1.501  0.1289 -1.2028  2.2231
 8050SOL    HW224985   0.063   5.861   1.466 -0.0975 -0.9945  1.0716
 8051SOL     OW24986   4.810   6.378   4.671  0.8555  0.9278 -0.0597
 8051SOL    HW124987   4.782   6.399   4.760  1.4738  0.4927  0.2504
 8051SOL    HW224988   4.776   6.449   4.617  0.3417  1.1137  0.5010
 8052SOL     OW24989   6.030   7.063   0.235 -0.4397 -0.8453  0.7685
 8052SOL    HW124990   6.056   7.038   0.146  0.9222 -1.9405  1.4319
 8052SOL    HW224991   5.935   7.051   0.235 -0.7261  0.8897 -1.0269
 8053SOL     OW24992   4.607   7.147   5.593 -0.0730  0.1090 -0.0888
 8053SOL    HW124993   4.562   7.107   5.667 -1.7516  1.9353 -0.0325
 8053SOL    HW224994   4.624   7.237   5.622  0.3095  0.5068 -1.4980
 8054SOL     OW24995   4.893   6.908   6.093  1.0380 -0.2726  0.2133
 8054SOL    HW124996   4.825   6.844   6.071  0.1285  0.9485 -0.7154
 8054SOL    HW224997   4.878   6.929   6.185 -0.3391  0.5179 -0.1677
 8055SOL     OW24998   7.118   7.907   3.097  0.1614 -0.2363 -0.1484
 8055SOL    HW124999   7.150   7.828   3.142 -0.7493 -0.0221  0.9117
 8055SOL    HW225000   7.175   7.915   3.020  1.6071 -0.7630  0.8121
 8056SOL     OW25001   4.635   5.406   2.774 -0.6626  0.1804 -0.5055
 8056SOL    HW125002   4.630   5.501   2.790 -0.1789  0.3657 -1.3812
 8056SOL    HW225003   4.576   5.391   2.701  0.5647  0.1057 -1.5275
 8057SOL     OW25004   6.483   4.245   0.461  0.2441  0.1404  0.0741
 8057SOL    HW125005   6.506   4.182   0.529  2.3185  1.2115  0.4424
 8057SOL    HW225006   6.472   4.328   0.508 -0.7802  0.4190 -0.6182
 8058SOL     OW25007   6.330   2.485   2.836 -0.0368  0.4684 -0.6570
 8058SOL    HW125008   6.338   2.493   2.931 -1.2672  1.5528 -0.6229
 8058SOL    HW225009   6.420   2.488   2.803  0.5076 -1.2754  0.5469
 8059SOL     OW25010   6.038   0.328   6.637  0.7864  0.1257 -0.4332
 8059SOL    HW125011   6.100   0.332   6.710 -1.4521  0.1190  1.5899
 8059SOL    HW225012   5.999   0.416   6.635  0.5222 -0.0022 -1.4019
 8060SOL     OW25013   2.693   5.076   2.294 -0.0019 -0.1017  0.1501
 8060SOL    HW125014   2.706   5.099   2.386  2.1846 -0.4857 -0.0198
 8060SOL    HW225015   2.757   5.007   2.276 -0.7283 -0.4032 -1.5455
 8061SOL     OW25016   1.726   7.633   7.342  0.0033  0.8251 -0.0189
 8061SOL    HW125017   1.816   7.606   7.363  0.2927  0.9878 -0.9985
 8061SOL    HW225018   1.700   7.689   7.416  0.4731  0.2754  0.5746
 8062SOL     OW25019   7.511   7.255   5.762 -0.0217 -0.6707  0.6706
 8062SOL    HW125020   7.552   7.169   5.752  0.1301 -0.5046 -0.2307
 8062SOL    HW225021   7.420   7.243   5.735  1.0449  0.4132 -4.5114
 8063SOL     OW25022   5.470   6.905   3.661 -0.5732  0.1396  0.4078
 8063SOL    HW125023   5.507   6.848   3.729 -0.3938  0.0563  0.2413
 8063SOL    HW225024   5.412   6.848   3.610 -0.9759  0.2812  0.6987
 8064SOL     OW25025   0.171   0.173   7.236  0.2992  0.4880 -0.1497
 8064SOL    HW125026   0.104   0.105   7.238 -0.0473  0.7796 -1.1690
 8064SOL    HW225027   0.152   0.228   7.313 -0.2898  0.2445 -0.1155
 8065SOL     OW25028   0.758   7.035   4.549 -0.3667 -0.1598  0.5841
 8065SOL    HW125029   0.837   7.031   4.602 -0.2707  1.3013  0.5944
 8065SOL    HW225030   0.720   7.120   4.569 -2.1628 -0.9748  0.8781
 8066SOL     OW25031   0.510   1.619   1.515  0.3633 -0.5631 -0.3658
 8066SOL    HW125032   0.451   1.580   1.579  0.4692 -1.1965 -0.6443
 8066SOL    HW225033   0.598   1.594   1.545  0.5580  0.9306  0.4211
 8067SOL     OW25034   5.512   0.489   2.925  0.2965  0.0455 -0.1345
 8067SOL    HW125035   5.575   0.545   2.879 -1.0076  1.0538 -0.7731
 8067SOL    HW225036   5.462   0.549   2.980  0.0271 -0.7591  0.5144
 8068SOL     OW25037   6.866   1.217   4.584 -0.0054  0.2771 -0.0261
 8068SOL    HW125038   6.890   1.309   4.574 -1.9527  0.8001 -0.2415
 8068SOL    HW225039   6.772   1.218   4.601  0.0436 -1.6468  0.6261
 8069SOL     OW25040   5.790   7.270   5.245  0.2245 -0.3006  0.5699
 8069SOL    HW125041   5.882   7.297   5.249  0.9322 -1.3289 -3.6369
 8069SOL    HW225042   5.741   7.352   5.249  1.3878  0.3992  1.2767
 8070SOL     OW25043   6.626   6.334   6.449  0.4803  0.0827  0.2161
 8070SOL    HW125044   6.682   6.307   6.377 -1.0709  0.9763 -1.3984
 8070SOL    HW225045   6.552   6.273   6.446 -0.5969  1.3600 -0.3043
 8071SOL     OW25046   6.393   0.865   4.433  0.3394  0.5265  0.4574
 8071SOL    HW125047   6.366   0.773   4.443 -1.2448  1.0450  1.1098
 8071SOL    HW225048   6.337   0.899   4.364  1.3389  0.8828 -0.2097
 8072SOL     OW25049   2.944   2.085   2.152 -0.5639  0.5593  1.0820
 8072SOL    HW125050   2.973   1.995   2.137 -0.2071  0.5275  1.8994
 8072SOL    HW225051   3.025   2.133   2.170 -0.5861  1.3643 -0.7651
 8073SOL     OW25052   2.600   0.836   2.164  0.1601 -0.4368 -0.7556
 8073SOL    HW125053   2.565   0.758   2.121 -1.4668  0.5207 -1.2664
 8073SOL    HW225054   2.579   0.824   2.256  0.5396 -0.9023 -0.7247
 8074SOL     OW25055   2.424   1.713   1.148  0.1323  0.0008  0.2604
 8074SOL    HW125056   2.425   1.619   1.129 -1.2491  0.0065  0.0654
 8074SOL    HW225057   2.463   1.753   1.069  1.1658 -0.4104  0.5377
 8075SOL     OW25058   1.159   7.829   2.195  0.5109  0.2120 -0.2853
 8075SOL    HW125059   1.188   7.916   2.166 -0.7807  1.5820  2.1832
 8075SOL    HW225060   1.238   7.788   2.229  1.1363  0.3798 -1.4729
 8076SOL     OW25061   2.855   5.908   1.043 -0.0447  0.3681 -0.0391
 8076SOL    HW125062   2.850   5.873   0.954 -0.4127 -1.0088  0.4942
 8076SOL    HW225063   2.869   5.831   1.098  2.3802  1.3971  0.9179
 8077SOL     OW25064   6.246   1.209   1.924  0.0483 -0.7641 -0.2927
 8077SOL    HW125065   6.263   1.208   1.830 -0.4145 -0.9642 -0.3775
 8077SOL    HW225066   6.273   1.297   1.953  0.4500 -0.7997 -0.5594
 8078SOL     OW25067   0.732   5.255   6.612 -0.1275  0.2770  0.2862
 8078SOL    HW125068   0.637   5.260   6.624  0.0129 -0.5326  1.9803
 8078SOL    HW225069   0.745   5.274   6.519 -1.9987 -0.2522 -0.1293
 8079SOL     OW25070   4.121   6.027   5.611  0.1435 -0.1059  0.3012
 8079SOL    HW125071   4.096   5.950   5.559  0.9628  0.7868 -1.4975
 8079SOL    HW225072   4.040   6.052   5.656 -0.6370 -0.8499 -0.6320
 8080SOL     OW25073   6.545   5.501   6.717 -0.0819  0.2822 -0.7203
 8080SOL    HW125074   6.589   5.562   6.658 -0.8015 -0.2707 -1.8460
 8080SOL    HW225075   6.463   5.479   6.673  0.0792 -1.3701 -0.2482
 8081SOL     OW25076   1.022   3.812   7.017  0.2304 -0.3595  0.1634
 8081SOL    HW125077   0.995   3.901   6.994 -0.5178 -0.8481 -0.9124
 8081SOL    HW225078   1.054   3.774   6.934 -2.5092 -2.1625 -0.1825
 8082SOL     OW25079   5.425   5.494   3.077 -0.1932  0.0375 -0.0801
 8082SOL    HW125080   5.396   5.539   3.157 -0.9981 -1.7470  0.6829
 8082SOL    HW225081   5.510   5.534   3.058  1.3980 -1.2919  3.2991
 8083SOL     OW25082   1.978   0.879   1.966 -0.1366  0.7973 -0.2962
 8083SOL    HW125083   2.045   0.927   2.015 -0.7598  1.7838 -0.3864
 8083SOL    HW225084   2.020   0.857   1.883  1.1055 -1.3249  0.8157
 8084SOL     OW25085   6.046   5.643   2.819 -0.1559 -0.7113 -0.1221
 8084SOL    HW125086   6.074   5.690   2.741  0.7843  0.9969  1.1689
 8084SOL    HW225087   6.060   5.705   2.891 -0.7351 -2.2999  1.4395
 8085SOL     OW25088   3.823   5.710   5.996  0.2147 -0.5306 -0.2796
 8085SOL    HW125089   3.809   5.703   5.901 -0.1531 -0.8522 -0.2037
 8085SOL    HW225090   3.891   5.777   6.005  0.6721 -0.9121 -0.8042
 8086SOL     OW25091   6.843   7.868   3.051 -0.2310  0.2427 -0.1857
 8086SOL    HW125092   6.922   7.868   3.106 -0.4402 -0.1525  0.1169
 8086SOL    HW225093   6.861   7.934   2.984  1.5955 -1.8216 -1.8914
 8087SOL     OW25094   6.119   1.633   6.882  0.4906 -0.2596  0.1472
 8087SOL    HW125095   6.164   1.717   6.891  0.2522 -0.2622  1.7081
 8087SOL    HW225096   6.147   1.599   6.798  1.5774  0.8045  0.0569
 8088SOL     OW25097   5.615   4.711   2.889  0.2547 -0.4339 -0.0037
 8088SOL    HW125098   5.706   4.742   2.884 -0.0019  0.3749  0.2145
 8088SOL    HW225099   5.562   4.789   2.873 -0.4280 -0.5749  1.4280
 8089SOL     OW25100   5.287   6.298   5.804 -0.1844  0.4528  0.0571
 8089SOL    HW125101   5.293   6.221   5.860 -1.1857  0.8381  0.7157
 8089SOL    HW225102   5.376   6.311   5.771  0.4633  0.2893  1.6555
 8090SOL     OW25103   0.124   3.039   2.212  0.6587 -0.6892  0.0208
 8090SOL    HW125104   0.162   3.039   2.124  0.5763 -1.4962 -0.0240
 8090SOL    HW225105   0.186   2.987   2.264  0.7021 -0.2211  0.4385
 8091SOL     OW25106   1.002   3.031   5.776  0.0780  0.0313 -0.0904
 8091SOL    HW125107   0.941   2.957   5.781  1.7746 -1.3799  0.7286
 8091SOL    HW225108   1.030   3.044   5.867  1.3787  0.2860 -0.5074
 8092SOL     OW25109   4.190   3.729   6.493 -0.0661  0.3485 -0.6554
 8092SOL    HW125110   4.178   3.817   6.457  1.3292  1.8316  2.1540
 8092SOL    HW225111   4.139   3.730   6.574  1.6290 -0.6931  0.4760
 8093SOL     OW25112   6.623   6.992   2.245  0.0810  0.6694 -0.4221
 8093SOL    HW125113   6.580   6.906   2.251  0.2890  0.6541  1.6966
 8093SOL    HW225114   6.579   7.036   2.172 -0.7943 -0.8170 -0.8283
 8094SOL     OW25115   6.862   2.625   4.141  0.4362 -0.4987 -0.0075
 8094SOL    HW125116   6.782   2.578   4.118 -0.3949  0.8292  0.0971
 8094SOL    HW225117   6.870   2.616   4.236  0.8451 -1.2780 -0.1066
 8095SOL     OW25118   1.519   0.325   5.705 -0.0299 -0.1852 -0.4291
 8095SOL    HW125119   1.596   0.269   5.698 -0.1624 -0.8391  2.3291
 8095SOL    HW225120   1.445   0.268   5.683  0.0073 -0.5109  0.2787
 8096SOL     OW25121   6.554   5.324   4.078  0.2966  0.0357 -0.7189
 8096SOL    HW125122   6.574   5.396   4.138 -0.6547 -1.2774  1.3290
 8096SOL    HW225123   6.542   5.366   3.993 -2.1432  2.6393  0.7151
 8097SOL     OW25124   2.345   0.433   0.262 -0.3452 -0.1003 -0.6258
 8097SOL    HW125125   2.360   0.474   0.177  0.7163 -0.7477 -0.7641
 8097SOL    HW225126   2.319   0.343   0.241  0.9571 -0.5765 -0.2546
 8098SOL     OW25127   3.074   3.495   4.526 -0.2613  0.7436 -0.5330
 8098SOL    HW125128   3.038   3.415   4.562  1.8634  0.2489  0.6786
 8098SOL    HW225129   3.110   3.469   4.441 -1.8742  1.0461 -1.3420
 8099SOL     OW25130   2.467   7.591   0.258 -0.2248 -0.5581  0.2722
 8099SOL    HW125131   2.469   7.671   0.311 -0.0001 -1.2254  1.2944
 8099SOL    HW225132   2.374   7.579   0.237 -0.2049  0.2362 -0.3249
 8100SOL     OW25133   1.674   6.873   4.492 -0.2171  0.0726  0.3397
 8100SOL    HW125134   1.626   6.792   4.475  0.0521  0.1289 -0.7249
 8100SOL    HW225135   1.642   6.901   4.578 -0.2342 -1.2072  0.7802
 8101SOL     OW25136   4.136   5.137   7.419 -0.8289 -0.0013  0.2393
 8101SOL    HW125137   4.087   5.055   7.422 -1.6398  0.4809  2.3014
 8101SOL    HW225138   4.223   5.114   7.450 -1.3446  0.0532  1.8082
 8102SOL     OW25139   3.969   2.084   2.268  0.0422  0.4214 -0.8803
 8102SOL    HW125140   3.897   2.097   2.207 -0.5158 -1.0579 -0.5850
 8102SOL    HW225141   4.048   2.081   2.213 -0.4488 -0.8568 -1.5546
 8103SOL     OW25142   3.099   0.740   6.483  0.7403 -0.3302  0.0502
 8103SOL    HW125143   3.118   0.833   6.500  0.2897 -0.4386  1.2782
 8103SOL    HW225144   3.024   0.742   6.423  0.0331  0.1348  0.9078
 8104SOL     OW25145   6.117   7.025   4.610  0.0228  0.3258 -0.5733
 8104SOL    HW125146   6.023   7.013   4.598  0.2381 -0.3850 -1.6292
 8104SOL    HW225147   6.156   6.998   4.527  1.1102  1.3641 -0.4382
 8105SOL     OW25148   2.696   6.305   6.420  0.1962  0.8316 -0.1538
 8105SOL    HW125149   2.622   6.270   6.370  0.4037 -0.3478  0.3253
 8105SOL    HW225150   2.723   6.383   6.372 -0.5106  0.5209 -1.0813
 8106SOL     OW25151   1.544   6.123   2.792 -0.5277 -0.2457  0.1752
 8106SOL    HW125152   1.522   6.203   2.745 -2.3755 -1.2656 -0.7660
 8106SOL    HW225153   1.498   6.130   2.876 -1.6540 -0.8104 -0.3777
 8107SOL     OW25154   4.085   0.791   6.892 -0.1682  0.1709  0.8418
 8107SOL    HW125155   4.134   0.712   6.916  0.4802  0.2986 -0.0162
 8107SOL    HW225156   4.153   0.855   6.867 -0.7683 -0.1971 -2.0567
 8108SOL     OW25157   1.510   3.223   2.265 -0.0802  0.1335 -0.3561
 8108SOL    HW125158   1.435   3.164   2.271 -1.6107  2.0034  0.1704
 8108SOL    HW225159   1.474   3.303   2.226  1.8297  0.8439 -0.7813
 8109SOL     OW25160   7.531   5.943   2.282 -0.4593  0.3216 -0.2715
 8109SOL    HW125161   7.621   5.937   2.314 -0.9012  0.4405  1.0537
 8109SOL    HW225162   7.499   6.026   2.317 -1.5053 -0.3485  0.4353
 8110SOL     OW25163   2.364   3.633   4.499 -0.1857 -0.2743  0.1234
 8110SOL    HW125164   2.392   3.696   4.566 -0.5237 -2.2021  2.1895
 8110SOL    HW225165   2.443   3.616   4.448  0.5562 -0.0875  1.1692
 8111SOL     OW25166   1.313   3.743   3.192 -0.2418 -0.1592 -0.1318
 8111SOL    HW125167   1.292   3.703   3.276 -0.1422 -1.0106 -0.5108
 8111SOL    HW225168   1.385   3.803   3.212  1.8530 -2.5201 -0.0841
 8112SOL     OW25169   7.386   3.916   4.286 -0.0254 -0.1640 -0.5638
 8112SOL    HW125170   7.313   3.878   4.238 -0.6324  0.6423 -0.3075
 8112SOL    HW225171   7.464   3.879   4.245 -0.5400  0.0231 -1.7536
 8113SOL     OW25172   4.583   7.085   2.662  0.6752 -0.3009 -0.3180
 8113SOL    HW125173   4.578   7.029   2.585 -0.6960  0.6441 -0.9437
 8113SOL    HW225174   4.633   7.162   2.633  1.0690 -0.4083  0.0549
 8114SOL     OW25175   4.350   6.550   5.531 -0.1654 -0.2225  0.0557
 8114SOL    HW125176   4.333   6.632   5.484 -1.6222 -0.5187  0.0168
 8114SOL    HW225177   4.408   6.501   5.473  0.3124  0.5648 -0.1534
 8115SOL     OW25178   7.846   4.904   4.361  0.1482 -0.7105 -0.3325
 8115SOL    HW125179   7.788   4.973   4.395  2.1466  0.1490  1.5749
 8115SOL    HW225180   7.830   4.829   4.418  0.7640 -0.5281  0.0867
 8116SOL     OW25181   5.525   6.341   4.117 -0.0885 -0.2910 -0.1582
 8116SOL    HW125182   5.611   6.316   4.153  0.5392  0.4626 -1.0846
 8116SOL    HW225183   5.491   6.260   4.078 -0.6050 -1.0308  1.7150
 8117SOL     OW25184   3.645   2.370   3.707  0.1153  0.4332 -0.3645
 8117SOL    HW125185   3.688   2.451   3.682  0.3191  0.7498  0.9393
 8117SOL    HW225186   3.716   2.310   3.728 -0.0334 -0.0878 -1.3225
 8118SOL     OW25187   7.529   4.092   4.491 -0.3782 -0.2571  0.5745
 8118SOL    HW125188   7.566   4.040   4.420 -1.5527  0.9161 -0.9693
 8118SOL    HW225189   7.461   4.145   4.449 -0.1876  1.4803  2.3218
 8119SOL     OW25190   1.546   7.201   7.025  0.0151  0.5203  0.5238
 8119SOL    HW125191   1.570   7.166   7.111  0.8964  1.2469  0.5980
 8119SOL    HW225192   1.513   7.288   7.044 -0.4834  0.4037  0.1870
 8120SOL     OW25193   3.461   0.228   5.092  0.3553  0.5235  0.0076
 8120SOL    HW125194   3.409   0.155   5.125 -0.7875  1.4515  0.3487
 8120SOL    HW225195   3.451   0.224   4.997 -0.2291  0.5929  0.0613
 8121SOL     OW25196   2.205   3.445   0.820 -0.5801  0.3078 -0.2524
 8121SOL    HW125197   2.173   3.364   0.860  0.1325  0.0533 -0.1841
 8121SOL    HW225198   2.172   3.442   0.730  0.7693 -0.8517 -0.7471
 8122SOL     OW25199   3.403   0.192   4.844  0.0832 -0.1099 -0.1403
 8122SOL    HW125200   3.309   0.173   4.848  0.1136 -0.1590  0.4864
 8122SOL    HW225201   3.423   0.193   4.751 -0.7900  1.1391 -0.3485
 8123SOL     OW25202   5.875   6.347   0.926  0.0128 -0.4578  0.0702
 8123SOL    HW125203   5.945   6.286   0.905  0.1570 -0.1176 -0.4594
 8123SOL    HW225204   5.872   6.407   0.851  1.7026  1.9020  1.7316
 8124SOL     OW25205   2.682   5.583   2.349 -0.2672 -0.5472 -0.5966
 8124SOL    HW125206   2.604   5.530   2.366 -2.1914  2.0184 -0.7838
 8124SOL    HW225207   2.741   5.525   2.302 -2.0740 -2.6040 -0.4902
 8125SOL     OW25208   2.453   6.959   5.327 -0.2520  0.3938  0.1902
 8125SOL    HW125209   2.444   7.053   5.344  0.8177  0.6110 -0.3576
 8125SOL    HW225210   2.476   6.922   5.413  2.4912  1.1166 -0.1136
 8126SOL     OW25211   5.529   6.875   6.037 -0.0166  0.6064 -0.0579
 8126SOL    HW125212   5.504   6.835   5.953 -1.5959 -0.0596  0.6829
 8126SOL    HW225213   5.450   6.868   6.091  1.3252 -0.1166  1.9188
 8127SOL     OW25214   6.879   2.155   3.983 -0.1838  1.0475 -0.1203
 8127SOL    HW125215   6.968   2.132   3.956 -1.1394 -0.7677 -1.9827
 8127SOL    HW225216   6.872   2.121   4.072  0.2030 -1.2203 -0.8882
 8128SOL     OW25217   6.869   2.280   2.880 -0.4257  0.2083 -0.1279
 8128SOL    HW125218   6.906   2.246   2.799 -1.2962  0.8778 -0.8253
 8128SOL    HW225219   6.941   2.276   2.943  0.6401  0.8555 -1.2599
 8129SOL     OW25220   3.991   6.237   6.252  0.4740 -0.2062  0.3287
 8129SOL    HW125221   3.962   6.156   6.209 -0.8883 -0.2371  1.2308
 8129SOL    HW225222   3.914   6.295   6.248  1.2084  0.7933  0.3124
 8130SOL     OW25223   5.942   1.892   0.916 -0.2366 -0.1638  0.3127
 8130SOL    HW125224   5.957   1.798   0.906 -0.7324 -0.2271  0.1352
 8130SOL    HW225225   6.027   1.932   0.897 -0.1174 -0.5561  0.0155
 8131SOL     OW25226   7.873   1.814   6.203  0.4104 -0.0562  0.2866
 8131SOL    HW125227   7.858   1.855   6.118 -1.6484  0.5605  0.8693
 8131SOL    HW225228   7.918   1.733   6.183  1.6975  0.9639 -1.1991
 8132SOL     OW25229   0.919   5.969   5.760  0.3679 -0.3462  0.1973
 8132SOL    HW125230   0.845   5.924   5.719 -1.5279  1.3689  1.5124
 8132SOL    HW225231   0.979   5.898   5.786 -0.5955 -1.7611 -1.2542
 8133SOL     OW25232   3.875   1.636   4.308  0.4990 -0.5787 -0.4054
 8133SOL    HW125233   3.920   1.647   4.224  0.5546  0.4489 -0.2533
 8133SOL    HW225234   3.937   1.667   4.373 -0.6186  1.5028 -0.2493
 8134SOL     OW25235   3.564   1.404   1.776  0.1050 -0.6544 -0.0309
 8134SOL    HW125236   3.574   1.499   1.783 -0.5439 -0.4670 -1.3639
 8134SOL    HW225237   3.643   1.368   1.817  0.0758  0.4349  1.0251
 8135SOL     OW25238   3.994   4.969   3.783  0.2577 -0.6559  0.2187
 8135SOL    HW125239   3.953   5.004   3.862 -0.4652 -1.7658  0.3655
 8135SOL    HW225240   4.027   4.883   3.809  2.4651  0.0590  0.0084
 8136SOL     OW25241   2.347   2.206   3.387 -0.1484  0.2488 -0.0928
 8136SOL    HW125242   2.371   2.130   3.334  2.0166 -0.0393  1.1990
 8136SOL    HW225243   2.398   2.278   3.350 -0.4941  0.5965  0.0931
 8137SOL     OW25244   0.030   0.802   1.241 -0.3140  0.0957  0.0911
 8137SOL    HW125245  -0.057   0.805   1.200 -0.6814  0.8309  0.8993
 8137SOL    HW225246   0.073   0.883   1.214  1.9234 -2.1045 -3.9976
 8138SOL     OW25247   3.613   3.264   3.102 -0.2033 -0.2038 -0.6394
 8138SOL    HW125248   3.630   3.339   3.044 -0.1340  0.1407 -0.1779
 8138SOL    HW225249   3.699   3.223   3.113 -0.1538 -0.0590 -0.4900
 8139SOL     OW25250   4.680   6.440   1.537 -0.1945 -0.1804  0.0431
 8139SOL    HW125251   4.708   6.516   1.588  2.2802 -0.5075 -0.6796
 8139SOL    HW225252   4.669   6.472   1.448 -0.1690 -0.4605 -0.0635
 8140SOL     OW25253   6.400   1.167   1.399 -0.2327  0.3439  0.5290
 8140SOL    HW125254   6.452   1.148   1.321 -1.1077 -0.7805  0.1860
 8140SOL    HW225255   6.310   1.168   1.367 -0.5187  0.9818  1.3372
 8141SOL     OW25256   6.112   5.266   6.320 -0.5554  0.0443  0.1234
 8141SOL    HW125257   6.089   5.202   6.388  1.1023  0.8196  1.4739
 8141SOL    HW225258   6.044   5.333   6.326 -0.0085  0.5103  1.6121
 8142SOL     OW25259   7.293   7.236   0.541  0.3628  0.0242  0.2999
 8142SOL    HW125260   7.206   7.205   0.517  0.2595 -0.2218  0.9666
 8142SOL    HW225261   7.281   7.329   0.561 -0.3775 -0.6113  3.2720
 8143SOL     OW25262   3.239   5.795   5.868  0.0056 -0.8959 -0.1154
 8143SOL    HW125263   3.268   5.882   5.838 -0.3573 -0.8396 -0.3051
 8143SOL    HW225264   3.247   5.799   5.964 -1.6285 -0.0557  0.0163
 8144SOL     OW25265   3.816   6.649   3.487  0.0041 -0.4329 -0.0575
 8144SOL    HW125266   3.838   6.623   3.397 -1.0634  1.0523 -0.7921
 8144SOL    HW225267   3.750   6.718   3.476  0.9773  0.8753  1.8191
 8145SOL     OW25268   3.844   3.080   2.767  0.0981  0.2566 -0.0057
 8145SOL    HW125269   3.905   3.032   2.822 -1.1092  1.0049  2.0863
 8145SOL    HW225270   3.791   3.013   2.723 -1.1429 -0.4168  2.3758
 8146SOL     OW25271   2.640   0.916   7.095 -0.2110  0.3025 -0.1154
 8146SOL    HW125272   2.596   0.934   7.012 -0.4184  0.5697  0.0503
 8146SOL    HW225273   2.679   0.830   7.083 -1.3038 -0.2172 -0.0428
 8147SOL     OW25274   0.964   2.021   4.122  0.1954 -0.0928 -0.4373
 8147SOL    HW125275   0.891   1.984   4.172 -0.7754  1.4147 -0.6753
 8147SOL    HW225276   0.924   2.053   4.041  1.0298  1.1507 -0.3849
 8148SOL     OW25277   4.702   6.679   4.793 -0.2169  0.0261  0.2484
 8148SOL    HW125278   4.771   6.704   4.731 -0.0154 -3.1476 -0.9843
 8148SOL    HW225279   4.624   6.726   4.763  0.5345  0.7366 -0.6433
 8149SOL     OW25280   0.490   2.486   0.031 -0.0339 -0.0281  0.0109
 8149SOL    HW125281   0.483   2.407  -0.023  0.1875  0.1817 -0.3278
 8149SOL    HW225282   0.402   2.498   0.068  0.0785 -0.7645  0.5438
 8150SOL     OW25283   0.096   4.706   1.180 -0.0774 -0.0824 -0.3310
 8150SOL    HW125284   0.085   4.677   1.271 -0.7720 -0.2178 -0.4461
 8150SOL    HW225285   0.078   4.800   1.182 -0.4788 -0.1532 -0.3813
 8151SOL     OW25286   5.461   4.605   7.866  0.0428 -0.9032  0.4603
 8151SOL    HW125287   5.482   4.690   7.828 -0.0632 -0.8781  0.4580
 8151SOL    HW225288   5.429   4.625   7.954  0.3784 -0.9682  0.5973
 8152SOL     OW25289   5.864   5.599   3.466  0.0249  0.4437 -0.1035
 8152SOL    HW125290   5.877   5.665   3.397 -2.6361  2.3091  1.0303
 8152SOL    HW225291   5.771   5.580   3.464  0.5601 -2.8264  0.1809
 8153SOL     OW25292   4.720   5.124   4.594  0.0320 -0.0102 -0.2839
 8153SOL    HW125293   4.649   5.061   4.597 -0.5218  0.5582 -1.0525
 8153SOL    HW225294   4.684   5.199   4.545  0.0872  1.6246  2.0094
 8154SOL     OW25295   4.594   2.572   2.652 -0.3511 -0.1536  0.3510
 8154SOL    HW125296   4.659   2.615   2.707  3.5923 -1.4542 -2.7920
 8154SOL    HW225297   4.548   2.645   2.609  1.6813  0.9559 -0.0754
 8155SOL     OW25298   0.835   1.542   1.935  0.2629  0.0966  0.4188
 8155SOL    HW125299   0.801   1.563   2.021 -1.2338 -0.1459 -0.0879
 8155SOL    HW225300   0.836   1.446   1.931  1.1957  0.0953  0.4891
 8156SOL     OW25301   6.114   0.706   7.279  0.0505  0.5461 -0.3480
 8156SOL    HW125302   6.187   0.656   7.244 -0.5902 -0.1155 -0.7716
 8156SOL    HW225303   6.074   0.748   7.203 -1.8484 -1.5577 -0.6186
 8157SOL     OW25304   2.036   2.304   1.498  0.1108  0.5592  0.0870
 8157SOL    HW125305   2.054   2.225   1.446  2.0795  0.7710  0.3766
 8157SOL    HW225306   2.009   2.270   1.584 -0.1217  0.2099 -0.1190
 8158SOL     OW25307   5.208   4.522   7.792  0.4362  0.3946  0.1319
 8158SOL    HW125308   5.159   4.516   7.874 -0.4819  2.3788 -0.2216
 8158SOL    HW225309   5.296   4.549   7.818  0.7696 -1.0320  0.5880
 8159SOL     OW25310   7.917   1.148   6.855 -0.3486  0.9920 -0.5266
 8159SOL    HW125311   7.979   1.221   6.860  1.2465 -0.3084 -0.1595
 8159SOL    HW225312   7.973   1.070   6.859 -1.9153 -0.2585 -1.7693
 8160SOL     OW25313   3.949   7.459   0.450  0.1094  0.0338 -0.0272
 8160SOL    HW125314   4.023   7.518   0.437  0.0971  0.1281  0.3061
 8160SOL    HW225315   3.872   7.510   0.426  0.2627 -0.6488 -2.1944
 8161SOL     OW25316   1.661   5.442   0.172  0.4198 -0.1396  0.1588
 8161SOL    HW125317   1.693   5.366   0.123  1.7316  0.5828 -0.1550
 8161SOL    HW225318   1.649   5.510   0.106 -0.8953 -0.0942  0.4190
 8162SOL     OW25319   7.904   2.954   5.143  0.3286  0.2712 -0.6207
 8162SOL    HW125320   7.809   2.948   5.150  0.4419 -0.8276  0.2535
 8162SOL    HW225321   7.932   2.866   5.117  1.1161  0.5426 -0.7296
 8163SOL     OW25322   5.126   4.637   2.060  0.1397  0.1193 -0.1121
 8163SOL    HW125323   5.158   4.612   1.973 -0.2042  1.3059 -0.5995
 8163SOL    HW225324   5.185   4.593   2.121  2.0465  1.3358 -0.9672
 8164SOL     OW25325   3.133   1.098   3.775 -0.0792 -0.2900  0.3079
 8164SOL    HW125326   3.088   1.170   3.732  0.7189 -0.3172 -0.6072
 8164SOL    HW225327   3.210   1.081   3.720  0.0254 -1.4876  0.7877
 8165SOL     OW25328   6.411   4.855   3.606 -0.8407 -0.2751 -0.3036
 8165SOL    HW125329   6.388   4.947   3.605 -0.5811 -0.2032 -0.0639
 8165SOL    HW225330   6.503   4.853   3.579 -1.2755 -0.6084 -1.8236
 8166SOL     OW25331   5.978   5.808   6.639  0.4707 -0.8257 -0.4419
 8166SOL    HW125332   6.041   5.777   6.704  0.6636 -1.2044 -0.8025
 8166SOL    HW225333   6.032   5.849   6.572  0.2004  0.5018  0.1374
 8167SOL     OW25334   5.521   6.590   7.070  0.4316 -0.0652 -0.0208
 8167SOL    HW125335   5.493   6.512   7.119  1.4807 -1.3885 -1.3918
 8167SOL    HW225336   5.478   6.581   6.985  1.1450  0.4309 -0.4494
 8168SOL     OW25337   4.840   5.763   1.688 -0.2545 -0.3333  0.3680
 8168SOL    HW125338   4.907   5.832   1.683 -0.8716  0.1917 -0.8676
 8168SOL    HW225339   4.874   5.703   1.755  0.3710  1.0759  1.3908
 8169SOL     OW25340   6.577   3.135   4.442 -0.0534 -0.3361 -0.1983
 8169SOL    HW125341   6.544   3.209   4.392  1.0034  0.4415  0.2262
 8169SOL    HW225342   6.568   3.160   4.533  0.6067 -0.5804 -0.0541
 8170SOL     OW25343   0.627   6.077   2.429  0.3020  0.6210  0.3738
 8170SOL    HW125344   0.615   6.144   2.497  1.4211  2.2011 -0.8960
 8170SOL    HW225345   0.541   6.071   2.387  0.5938  2.6387 -0.6339
 8171SOL     OW25346   5.331   4.189   4.735 -0.3834  0.2231  0.8668
 8171SOL    HW125347   5.349   4.246   4.810  1.1890  1.3564 -0.3157
 8171SOL    HW225348   5.239   4.206   4.714 -0.8325 -0.0611  2.4663
 8172SOL     OW25349   0.548   3.122   5.298  0.4466  0.1670 -0.6265
 8172SOL    HW125350   0.603   3.046   5.280 -0.8773 -0.8589 -0.5006
 8172SOL    HW225351   0.527   3.157   5.212 -0.6822 -0.9271 -0.8318
 8173SOL     OW25352   5.417   3.927   2.497  0.6868  0.6059  0.1320
 8173SOL    HW125353   5.463   3.847   2.520  0.7156  0.4098 -0.6103
 8173SOL    HW225354   5.325   3.901   2.494  0.7901  0.3469 -1.1561
 8174SOL     OW25355   5.624   4.000   7.909  0.1172 -0.4696  0.3990
 8174SOL    HW125356   5.694   3.947   7.871  0.2787 -0.3032  0.4616
 8174SOL    HW225357   5.601   4.063   7.841  0.1547 -0.4052  0.4459
 8175SOL     OW25358   2.978   7.474   5.931 -0.3998 -0.2553 -0.2211
 8175SOL    HW125359   2.939   7.558   5.958  0.1935 -0.7696  2.5578
 8175SOL    HW225360   2.905   7.423   5.897 -0.5702  1.7656 -3.3465
 8176SOL     OW25361   4.611   2.101   1.979  0.0187 -0.7550 -0.6841
 8176SOL    HW125362   4.669   2.147   1.918 -0.2900  3.1614  1.6342
 8176SOL    HW225363   4.669   2.041   2.027  1.5309  0.6600 -0.6613
 8177SOL     OW25364   1.111   4.083   1.974  0.1557  0.2109  0.0845
 8177SOL    HW125365   1.152   4.054   1.892  0.5016  2.7671 -0.7445
 8177SOL    HW225366   1.180   4.132   2.019 -0.5938  0.4374  1.0112
 8178SOL     OW25367   7.466   0.928   1.806 -0.5378  0.3412  0.1481
 8178SOL    HW125368   7.515   1.007   1.827  0.9902 -0.0792 -1.6435
 8178SOL    HW225369   7.449   0.934   1.712 -0.3562 -1.4611 -0.0364
 8179SOL     OW25370   7.807   2.010   6.963  0.8753  0.8030  0.3084
 8179SOL    HW125371   7.751   2.019   6.886 -0.1490 -2.7162  0.4842
 8179SOL    HW225372   7.773   2.075   7.025 -0.2178  1.6465 -1.1296
 8180SOL     OW25373   0.331   7.802   2.262 -0.0148  0.1700 -0.1638
 8180SOL    HW125374   0.415   7.828   2.223  0.4411 -2.4256 -1.0915
 8180SOL    HW225375   0.354   7.739   2.329 -1.1144  1.5379  1.5893
 8181SOL     OW25376   3.534   4.134   7.109  0.7055  0.1990  0.6420
 8181SOL    HW125377   3.533   4.079   7.031  0.3373 -0.4779  1.1164
 8181SOL    HW225378   3.626   4.154   7.124  0.7762  0.3423  0.0303
 8182SOL     OW25379   5.926   4.285   1.020  0.5699 -0.1457  0.1039
 8182SOL    HW125380   5.850   4.289   1.079  0.4543 -0.8237  0.0073
 8182SOL    HW225381   5.999   4.317   1.073  0.6415 -1.5669  0.9190
 8183SOL     OW25382   7.141   0.439   2.147  0.2868  0.0873 -0.9642
 8183SOL    HW125383   7.065   0.385   2.123  1.4291 -1.2019 -1.8172
 8183SOL    HW225384   7.178   0.466   2.063  0.2402  1.5288 -0.5462
 8184SOL     OW25385   2.787   2.614   1.876  0.2151  0.1429  0.0235
 8184SOL    HW125386   2.732   2.627   1.954  0.5314  0.9134  0.1174
 8184SOL    HW225387   2.818   2.523   1.885  0.8391  0.4470  1.1871
 8185SOL     OW25388   6.487   4.372   5.276 -0.6996  0.0304  0.2957
 8185SOL    HW125389   6.528   4.442   5.225  1.9946  0.2775  2.5328
 8185SOL    HW225390   6.558   4.309   5.291 -2.4104 -1.9564  0.4863
 8186SOL     OW25391   4.728   7.142   3.773 -0.2875  1.1001 -0.4727
 8186SOL    HW125392   4.718   7.237   3.784  1.2560  1.5911 -2.7051
 8186SOL    HW225393   4.743   7.131   3.679  0.5651 -1.2730 -0.1019
 8187SOL     OW25394   2.925   2.070   7.408  0.4128  0.4182  0.4497
 8187SOL    HW125395   2.833   2.057   7.432  0.3950  0.8303  0.6250
 8187SOL    HW225396   2.969   1.992   7.440 -0.1333 -0.5965 -1.1547
 8188SOL     OW25397   3.768   4.179   7.201 -0.5771  0.2888  0.3318
 8188SOL    HW125398   3.848   4.215   7.163 -1.3755  0.2075 -1.5053
 8188SOL    HW225399   3.797   4.135   7.281  1.3397 -0.4601 -0.7187
 8189SOL     OW25400   7.704   5.256   0.986  0.2437 -0.0038 -0.4052
 8189SOL    HW125401   7.644   5.231   1.057 -0.3376  0.0187 -0.8876
 8189SOL    HW225402   7.662   5.330   0.944  0.5598 -0.0604 -0.8230
 8190SOL     OW25403   7.818   2.976   6.181 -0.6031  0.2507  0.5189
 8190SOL    HW125404   7.832   2.929   6.099 -0.9282  2.2299 -0.7158
 8190SOL    HW225405   7.906   2.998   6.211 -0.5096  0.1156  0.3440
 8191SOL     OW25406   4.558   6.300   2.896  0.7261  0.4271  0.3890
 8191SOL    HW125407   4.615   6.263   2.964 -0.5623 -0.5895  0.9715
 8191SOL    HW225408   4.615   6.307   2.819  2.0195  0.8869  1.3485
 8192SOL     OW25409   0.943   6.178   7.885  0.4177  0.9051  0.1803
 8192SOL    HW125410   0.858   6.141   7.862 -0.5471  2.4634  1.0747
 8192SOL    HW225411   0.994   6.171   7.805 -0.0439 -1.3331  0.0096
 8193SOL     OW25412   1.538   0.552   7.700  0.0601 -0.1256 -0.0665
 8193SOL    HW125413   1.469   0.486   7.701  0.2010 -0.3134 -1.1792
 8193SOL    HW225414   1.496   0.631   7.667  0.5581 -0.5077 -1.7404
 8194SOL     OW25415   3.107   1.553   4.459 -0.1469 -0.3494  0.0615
 8194SOL    HW125416   3.115   1.475   4.404 -0.0666 -0.5314  0.3244
 8194SOL    HW225417   3.030   1.598   4.426  1.8098  1.4102 -2.4869
 8195SOL     OW25418   2.209   0.320   2.562  0.1284  0.0760 -0.4762
 8195SOL    HW125419   2.238   0.339   2.651  0.3469  0.1575 -0.5643
 8195SOL    HW225420   2.226   0.227   2.549  0.3002  0.1111 -0.5076
 8196SOL     OW25421   7.549   2.832   2.214  0.7935 -0.5899 -0.1607
 8196SOL    HW125422   7.468   2.840   2.164  0.6191 -2.2904 -0.2016
 8196SOL    HW225423   7.591   2.918   2.205 -0.7121  0.1410 -0.6089
 8197SOL     OW25424   5.460   5.537   0.084  0.1901  0.5478 -0.4057
 8197SOL    HW125425   5.511   5.511   0.161  1.0070  0.6331 -0.9083
 8197SOL    HW225426   5.514   5.604   0.041  1.3395 -1.7773 -2.8409
 8198SOL     OW25427   3.498   4.285   2.211  0.1271  0.3237  0.5556
 8198SOL    HW125428   3.482   4.289   2.116 -0.7717  2.9358  0.7438
 8198SOL    HW225429   3.469   4.197   2.236  0.7947 -0.5820 -1.6299
 8199SOL     OW25430   0.804   3.249   4.169 -0.2544 -0.0693  0.0689
 8199SOL    HW125431   0.859   3.312   4.215 -0.5684  0.9822 -0.9251
 8199SOL    HW225432   0.755   3.302   4.106 -0.8963 -1.2505 -0.4659
 8200SOL     OW25433   5.526   5.307   7.874  0.0630 -0.7359  0.1827
 8200SOL    HW125434   5.504   5.397   7.896  0.2175 -0.3727 -1.0933
 8200SOL    HW225435   5.603   5.313   7.818  2.0361 -1.8651  2.5540
 8201SOL     OW25436   3.298   2.720   6.839  0.6810  0.0539  0.0207
 8201SOL    HW125437   3.346   2.783   6.784  2.3527 -1.7927 -0.7881
 8201SOL    HW225438   3.366   2.679   6.892  0.3322 -3.4164 -1.8912
 8202SOL     OW25439   1.945   5.586   2.164 -0.1473  0.1245  0.0486
 8202SOL    HW125440   2.005   5.575   2.238 -0.3180 -1.2242  0.0084
 8202SOL    HW225441   1.996   5.556   2.088 -0.1299  1.0690 -0.3286
 8203SOL     OW25442   1.300   7.204   4.008 -0.1438 -0.3152 -0.0354
 8203SOL    HW125443   1.256   7.139   3.952 -2.1475 -0.4112  1.5523
 8203SOL    HW225444   1.310   7.160   4.092 -2.8647  1.8034  1.5267
 8204SOL     OW25445   0.065   2.613   5.823 -0.0809 -0.8087 -0.1010
 8204SOL    HW125446   0.132   2.568   5.770  0.6773  0.1933 -0.0273
 8204SOL    HW225447  -0.015   2.563   5.808  0.3768 -1.2230 -1.2938
 8205SOL     OW25448   6.642   0.854   4.894 -0.1687  0.1433  0.1366
 8205SOL    HW125449   6.565   0.870   4.839  1.1250 -0.8496 -2.1163
 8205SOL    HW225450   6.606   0.833   4.980 -2.5075 -1.5191 -1.1285
 8206SOL     OW25451   3.024   3.310   6.142 -0.0662 -0.4874 -0.2447
 8206SOL    HW125452   3.036   3.294   6.236  0.2961 -0.9348 -0.3595
 8206SOL    HW225453   2.976   3.233   6.112 -1.3608  0.2717 -0.1942
 8207SOL     OW25454   0.800   3.185   4.874  0.0547  0.0379 -0.3119
 8207SOL    HW125455   0.808   3.187   4.969 -1.7277 -0.5464 -0.1202
 8207SOL    HW225456   0.790   3.277   4.848 -1.2320  0.0713  0.2598
 8208SOL     OW25457   2.337   6.851   4.122  0.4298  0.4042 -0.4632
 8208SOL    HW125458   2.370   6.848   4.212  0.1270  0.5112 -0.3467
 8208SOL    HW225459   2.416   6.859   4.068  0.7918 -1.9684 -0.3726
 8209SOL     OW25460   0.781   6.754   5.714  0.3944  0.4931  0.4798
 8209SOL    HW125461   0.851   6.702   5.753  0.8320  1.5305  1.1311
 8209SOL    HW225462   0.795   6.746   5.620  0.2055 -0.8595  0.5444
 8210SOL     OW25463   5.225   2.027   2.234  0.4060  0.5225  0.2287
 8210SOL    HW125464   5.169   1.951   2.250  0.5369 -0.4921 -3.3438
 8210SOL    HW225465   5.309   1.990   2.207  0.3425  1.8513 -2.0405
 8211SOL     OW25466   0.058   2.184   1.731  0.1511  0.3869 -0.2090
 8211SOL    HW125467   0.130   2.155   1.787  1.2325  1.1792 -1.1670
 8211SOL    HW225468   0.050   2.116   1.665  0.8884  0.9080 -0.8532
 8212SOL     OW25469   2.682   1.261   6.159  0.4037  0.0941 -0.8157
 8212SOL    HW125470   2.709   1.353   6.156 -0.2864  0.3053 -0.8030
 8212SOL    HW225471   2.744   1.216   6.102  0.6712  0.5917 -0.9257
 8213SOL     OW25472   7.076   3.086   6.012 -0.4482  0.3596  0.7117
 8213SOL    HW125473   7.004   3.031   5.981  0.7565 -1.0525  0.3051
 8213SOL    HW225474   7.155   3.040   5.984  0.6615  2.9600 -0.7995
 8214SOL     OW25475   4.621   4.266   0.240 -0.0403  0.1227 -0.2337
 8214SOL    HW125476   4.553   4.318   0.283 -0.1517  0.9377 -1.3344
 8214SOL    HW225477   4.574   4.216   0.173  0.0722 -1.4112  0.7748
 8215SOL     OW25478   1.653   3.842   4.069 -0.1637 -0.3781  0.1194
 8215SOL    HW125479   1.715   3.834   3.997 -1.4089  1.1198 -1.2211
 8215SOL    HW225480   1.567   3.847   4.026 -0.9991 -0.0114  1.7466
 8216SOL     OW25481   7.505   5.558   7.230 -0.5929 -0.2393 -0.2068
 8216SOL    HW125482   7.576   5.621   7.217 -0.7966  0.0339 -0.0310
 8216SOL    HW225483   7.520   5.490   7.166 -0.0982 -0.2463 -0.0855
 8217SOL     OW25484   7.379   6.314   6.195 -0.0358  0.0031 -0.0676
 8217SOL    HW125485   7.377   6.409   6.181 -2.4373 -0.0859 -0.7624
 8217SOL    HW225486   7.388   6.277   6.107  1.4461 -0.4409  0.2482
 8218SOL     OW25487   5.762   2.394   6.620 -0.4143  0.0429 -0.3099
 8218SOL    HW125488   5.853   2.366   6.627 -0.3340  0.3586 -0.1225
 8218SOL    HW225489   5.716   2.341   6.685 -0.1327  0.9040  0.6215
 8219SOL     OW25490   1.669   1.656   6.867 -0.6938 -0.2423  0.2346
 8219SOL    HW125491   1.732   1.669   6.937 -1.4651  2.7686  0.5244
 8219SOL    HW225492   1.722   1.643   6.788  0.3027  1.1934  0.6416
 8220SOL     OW25493   0.139   2.873   0.144 -0.0126  0.5152 -0.0845
 8220SOL    HW125494   0.060   2.925   0.162 -0.3608  1.2129 -3.0155
 8220SOL    HW225495   0.206   2.909   0.202 -1.7013  0.1465  2.2359
 8221SOL     OW25496   0.701   1.012   5.403 -0.0178 -0.2457  0.0396
 8221SOL    HW125497   0.665   0.977   5.321 -1.9297 -1.2820  1.2275
 8221SOL    HW225498   0.631   1.068   5.438  0.4779 -0.3541  1.2657
 8222SOL     OW25499   0.484   3.892   6.011 -0.0567  0.2023 -0.5389
 8222SOL    HW125500   0.428   3.908   5.935 -1.5975 -3.0745 -0.2714
 8222SOL    HW225501   0.488   3.796   6.019  0.5502  0.3600  3.1081
 8223SOL     OW25502   6.314   2.026   3.882  0.5300  0.1729 -0.4464
 8223SOL    HW125503   6.265   1.955   3.924  0.0564  1.0787  0.5589
 8223SOL    HW225504   6.404   1.994   3.881  0.3306 -0.4354  0.0448
 8224SOL     OW25505   5.679   2.354   2.596 -0.2447  0.4243 -0.3225
 8224SOL    HW125506   5.606   2.328   2.540  0.8686  0.6926 -1.9687
 8224SOL    HW225507   5.684   2.449   2.588 -2.0562  0.9156  2.8499
 8225SOL     OW25508   6.506   0.274   1.471  0.3511  0.2886  0.0228
 8225SOL    HW125509   6.519   0.264   1.565  3.1299 -0.7455 -0.3876
 8225SOL    HW225510   6.505   0.184   1.437  0.9808  0.6854 -1.0970
 8226SOL     OW25511   3.030   1.450   3.885  0.1892  0.1237 -0.4255
 8226SOL    HW125512   3.005   1.520   3.946 -0.8768 -0.9155  0.3754
 8226SOL    HW225513   3.054   1.496   3.805  1.9078  1.5532  0.8305
 8227SOL     OW25514   7.753   0.113   6.497  0.0427  0.4466 -0.0281
 8227SOL    HW125515   7.837   0.157   6.506 -1.5082  3.4826  1.0101
 8227SOL    HW225516   7.712   0.154   6.420 -0.4416 -1.1374 -0.6576
 8228SOL     OW25517   6.956   3.775   0.410 -0.2189 -0.2246  0.3412
 8228SOL    HW125518   6.872   3.807   0.378 -0.1928 -0.7400 -0.2701
 8228SOL    HW225519   6.956   3.796   0.503 -0.4002  1.1018  0.0543
 8229SOL     OW25520   4.321   2.538   0.333 -0.6355 -0.5490 -0.7099
 8229SOL    HW125521   4.361   2.570   0.252 -0.7666  4.1200  0.7449
 8229SOL    HW225522   4.383   2.475   0.368  1.1816  0.0318 -2.6685
 8230SOL     OW25523   5.289   1.840   1.996 -0.4590 -0.1802 -0.0644
 8230SOL    HW125524   5.233   1.771   1.960  2.1728 -1.5368 -1.7976
 8230SOL    HW225525   5.346   1.866   1.924  1.8406  0.4108  1.8496
 8231SOL     OW25526   4.488   5.914   2.270 -0.0593  0.1728 -0.5240
 8231SOL    HW125527   4.419   5.847   2.269  0.0378  0.0734 -0.4684
 8231SOL    HW225528   4.538   5.897   2.349  2.0091 -1.7573 -2.1328
 8232SOL     OW25529   7.326   4.799   6.072  0.5344  0.3596  0.6020
 8232SOL    HW125530   7.329   4.838   6.159 -1.6497  0.3655  0.7303
 8232SOL    HW225531   7.234   4.780   6.057  1.1103 -1.8071 -0.7826
 8233SOL     OW25532   1.693   1.670   3.930  0.6746  0.6771  0.5196
 8233SOL    HW125533   1.780   1.643   3.960  1.1102  1.0240 -0.3940
 8233SOL    HW225534   1.709   1.746   3.874 -0.3108  1.3357  1.0969
 8234SOL     OW25535   1.055   5.158   3.670 -0.1342 -0.4711 -0.6718
 8234SOL    HW125536   0.970   5.173   3.629 -0.4275 -1.2182 -0.3739
 8234SOL    HW225537   1.068   5.063   3.664  0.5499 -0.4011 -0.4580
 8235SOL     OW25538   2.725   5.511   6.890 -0.5716 -0.4797 -0.4687
 8235SOL    HW125539   2.669   5.569   6.838 -0.3191  0.2831  0.0941
 8235SOL    HW225540   2.788   5.569   6.931  1.5183 -1.4436 -2.1313
 8236SOL     OW25541   1.622   2.518   4.501 -0.5209 -0.3669 -0.0809
 8236SOL    HW125542   1.699   2.533   4.446  0.0154 -0.9086  0.5156
 8236SOL    HW225543   1.630   2.428   4.532 -1.6073 -0.5728 -0.3266
 8237SOL     OW25544   1.597   3.988   5.336 -0.4961 -0.2611 -0.3974
 8237SOL    HW125545   1.513   4.023   5.365 -0.6171 -0.1118 -0.9203
 8237SOL    HW225546   1.603   4.013   5.244  0.5666  0.6075 -0.1128
 8238SOL     OW25547   0.537   0.297   2.485  0.4666 -0.5868  0.3177
 8238SOL    HW125548   0.616   0.350   2.490  0.6071 -0.4967 -1.9897
 8238SOL    HW225549   0.560   0.224   2.428 -1.0866 -0.5857 -0.3690
 8239SOL     OW25550   6.385   5.673   2.633 -0.5346  0.0911 -0.5022
 8239SOL    HW125551   6.454   5.735   2.608 -1.4120  2.0694  1.5654
 8239SOL    HW225552   6.394   5.664   2.728 -2.2949 -0.6276 -0.3534
 8240SOL     OW25553   7.554   2.473   1.005 -0.2670 -0.1191 -0.1811
 8240SOL    HW125554   7.483   2.498   0.946  1.1061  1.8351 -1.1488
 8240SOL    HW225555   7.534   2.518   1.087 -1.2544 -1.4056  0.3270
 8241SOL     OW25556   2.717   6.400   4.235 -0.4160 -0.3422 -0.5830
 8241SOL    HW125557   2.648   6.370   4.177 -0.5342 -0.8307 -0.1919
 8241SOL    HW225558   2.773   6.455   4.179 -0.1173 -1.3905 -1.3452
 8242SOL     OW25559   7.361   1.570   6.975  0.0554 -0.7106 -0.0666
 8242SOL    HW125560   7.431   1.513   6.944  1.2656  1.6482 -2.0526
 8242SOL    HW225561   7.389   1.598   7.061  4.0130  3.4508 -2.3095
 8243SOL     OW25562   6.433   2.760   2.060 -0.3575  0.0433  0.0446
 8243SOL    HW125563   6.455   2.671   2.089 -0.8766 -0.3385 -0.6887
 8243SOL    HW225564   6.474   2.767   1.973 -1.2156  0.1288 -0.3598
 8244SOL     OW25565   3.693   4.838   2.029 -0.3063 -0.0832 -0.0206
 8244SOL    HW125566   3.687   4.816   1.936 -2.1323  1.6238 -0.3670
 8244SOL    HW225567   3.782   4.872   2.040 -0.6771  1.5088 -1.5937
 8245SOL     OW25568   7.004   1.703   3.698 -0.2674 -0.4825 -0.3248
 8245SOL    HW125569   7.047   1.773   3.649 -0.7519 -1.0875 -1.6814
 8245SOL    HW225570   6.912   1.730   3.700 -0.5052 -1.1758 -1.0965
 8246SOL     OW25571   3.660   6.121   0.572  0.7028  0.2838  0.4667
 8246SOL    HW125572   3.592   6.174   0.613  0.3334  0.3046 -0.1688
 8246SOL    HW225573   3.738   6.178   0.573  0.3739  0.7483  0.0186
 8247SOL     OW25574   7.457   3.164   1.694  0.8804 -0.0483 -0.1994
 8247SOL    HW125575   7.427   3.177   1.784 -2.7827  0.0534 -1.2755
 8247SOL    HW225576   7.439   3.072   1.676 -0.0888  0.3339 -1.3132
 8248SOL     OW25577   0.241   1.000   2.755  0.1550 -0.3962  0.1629
 8248SOL    HW125578   0.290   1.008   2.837 -0.1416  1.5472  0.2044
 8248SOL    HW225579   0.276   0.921   2.714  3.1887  0.7047  0.3278
 8249SOL     OW25580   0.190   7.596   2.959 -0.0398 -0.0028 -0.0321
 8249SOL    HW125581   0.163   7.521   2.905  1.7976 -0.2984 -0.6241
 8249SOL    HW225582   0.112   7.618   3.010 -0.9542 -1.6230 -0.6336
 8250SOL     OW25583   4.665   3.876   6.180  0.1853 -0.0009  0.1382
 8250SOL    HW125584   4.644   3.823   6.257  0.7870  0.0601  0.3479
 8250SOL    HW225585   4.580   3.892   6.138 -0.1774  0.2286  0.9528
 8251SOL     OW25586   5.742   6.918   0.807 -0.0424  0.3215 -0.1119
 8251SOL    HW125587   5.704   6.932   0.894  1.9020 -0.2158  0.8730
 8251SOL    HW225588   5.833   6.948   0.815  0.0503  0.7419 -2.1182
 8252SOL     OW25589   0.352   2.980   6.820  0.6504 -0.0122 -0.1770
 8252SOL    HW125590   0.324   3.059   6.865 -0.0565 -0.2198 -0.2252
 8252SOL    HW225591   0.357   3.005   6.728  0.0432 -0.1193 -0.2422
 8253SOL     OW25592   6.515   5.639   0.337  0.6650 -0.3985 -0.3557
 8253SOL    HW125593   6.425   5.632   0.303  0.7488 -0.5669 -0.5495
 8253SOL    HW225594   6.518   5.724   0.379  0.0551 -0.8751  0.7001
 8254SOL     OW25595   5.625   3.808   5.885  0.1214 -0.5897 -0.0742
 8254SOL    HW125596   5.660   3.745   5.948  0.3487 -0.7970 -0.4066
 8254SOL    HW225597   5.675   3.792   5.805  2.4371  2.1232  0.6955
 8255SOL     OW25598   4.268   1.803   4.823  0.4861  0.1509  0.0410
 8255SOL    HW125599   4.201   1.741   4.853  0.6668 -0.5102 -0.8481
 8255SOL    HW225600   4.350   1.754   4.830  0.3888 -0.6769 -2.9621
 8256SOL     OW25601   2.354   0.530   0.005  0.4890 -0.4665  0.5673
 8256SOL    HW125602   2.334   0.466  -0.064  2.1703 -1.5029  0.9678
 8256SOL    HW225603   2.435   0.572  -0.025  0.2139  0.4156  1.0356
 8257SOL     OW25604   6.137   4.847   5.850  0.5392  0.3233  0.0705
 8257SOL    HW125605   6.125   4.859   5.756  1.2095 -0.7384 -0.1629
 8257SOL    HW225606   6.127   4.753   5.864  0.0099  0.5235  1.1322
 8258SOL     OW25607   5.149   6.421   5.439  0.6236  0.0360 -0.0944
 8258SOL    HW125608   5.118   6.417   5.530 -0.0845  0.7468 -0.2963
 8258SOL    HW225609   5.089   6.363   5.391  0.4244  0.3863 -0.2662
 8259SOL     OW25610   6.655   1.808   5.134  0.2857  0.2422 -0.3445
 8259SOL    HW125611   6.631   1.883   5.189 -0.3712 -1.1901  1.4359
 8259SOL    HW225612   6.600   1.816   5.056  0.6592  1.9043 -0.4610
 8260SOL     OW25613   5.531   7.578   6.399  0.0041 -0.4427  0.7053
 8260SOL    HW125614   5.539   7.648   6.464 -0.5548  0.3623 -0.0693
 8260SOL    HW225615   5.444   7.591   6.360  1.5767  1.2847 -2.6432
 8261SOL     OW25616   2.039   0.099   4.389  0.0781  0.0439  0.4155
 8261SOL    HW125617   2.053   0.004   4.391  0.8938  0.1585  0.9440
 8261SOL    HW225618   1.944   0.110   4.391 -0.0121 -0.7550  1.3356
 8262SOL     OW25619   2.700   6.533   1.472  0.0627  0.1026  0.1615
 8262SOL    HW125620   2.745   6.539   1.387  0.8731 -0.3948  0.5369
 8262SOL    HW225621   2.700   6.622   1.506 -1.1887  0.5030 -0.8011
 8263SOL     OW25622   4.741   0.765   2.640  0.2689 -0.1427  0.7178
 8263SOL    HW125623   4.830   0.750   2.607 -0.1501  0.8403 -0.9716
 8263SOL    HW225624   4.752   0.830   2.709  0.7890  0.6279 -0.0721
 8264SOL     OW25625   4.551   0.029   1.420 -0.5907  0.3274 -0.4067
 8264SOL    HW125626   4.464   0.031   1.459 -0.6246 -0.4901 -0.4232
 8264SOL    HW225627   4.606  -0.015   1.485 -0.1231  1.1085 -0.2694
 8265SOL     OW25628   1.953   3.729   2.081 -0.2262  0.1175  0.7496
 8265SOL    HW125629   1.968   3.760   2.171  0.2001 -0.0716  0.7462
 8265SOL    HW225630   1.953   3.634   2.088  0.0260  0.0973  0.5192
 8266SOL     OW25631   2.913   4.405   2.358  0.5324 -0.0940 -0.1320
 8266SOL    HW125632   2.953   4.348   2.423 -0.8682  1.7546  2.5212
 8266SOL    HW225633   2.853   4.349   2.309 -2.1166 -0.8041  3.5078
 8267SOL     OW25634   4.714   6.715   5.593 -0.1664  0.2836  0.0486
 8267SOL    HW125635   4.675   6.793   5.554 -1.8342  0.3247  1.6616
 8267SOL    HW225636   4.781   6.688   5.530 -2.0425  0.8533 -2.3562
 8268SOL     OW25637   7.784   7.143   4.646 -0.0024  0.4285  0.3421
 8268SOL    HW125638   7.812   7.142   4.738  1.5819 -1.1571 -0.0902
 8268SOL    HW225639   7.777   7.051   4.622  0.6810  0.7914 -1.4311
 8269SOL     OW25640   3.696   0.445   6.916  0.7089  0.3939  0.2711
 8269SOL    HW125641   3.683   0.526   6.866  0.6639 -0.4138 -1.0507
 8269SOL    HW225642   3.675   0.470   7.007 -1.2126  1.3969 -0.3891
 8270SOL     OW25643   0.371   6.270   4.539 -0.0825  0.0204 -0.0160
 8270SOL    HW125644   0.404   6.358   4.523 -0.5706  0.4950  1.4308
 8270SOL    HW225645   0.379   6.225   4.455  0.1814  1.4316 -0.7637
 8271SOL     OW25646   3.976   0.014   6.476 -0.0828  0.0232 -0.1794
 8271SOL    HW125647   4.030   0.030   6.554  1.1231  2.3484 -1.3865
 8271SOL    HW225648   4.024   0.055   6.405 -1.8928 -0.7158 -1.9144
 8272SOL     OW25649   6.891   6.364   5.442 -0.3982 -0.4362  0.1492
 8272SOL    HW125650   6.856   6.451   5.460 -0.5941 -0.3951 -0.4183
 8272SOL    HW225651   6.894   6.358   5.347 -0.4331 -1.0681  0.1815
 8273SOL     OW25652   1.736   0.614   7.915  0.2726 -0.0730  0.0133
 8273SOL    HW125653   1.683   0.655   7.846 -0.4116 -1.9506 -0.6440
 8273SOL    HW225654   1.725   0.670   7.991 -1.6968  0.2508 -0.4599
 8274SOL     OW25655   2.457   1.038   4.438 -0.0758 -0.0391  0.0713
 8274SOL    HW125656   2.416   1.110   4.486 -0.3103 -0.2005  0.1137
 8274SOL    HW225657   2.517   1.082   4.377 -2.0832  0.3682 -1.7389
 8275SOL     OW25658   3.649   7.178   4.606 -0.3408 -0.1643  0.0171
 8275SOL    HW125659   3.681   7.095   4.642 -0.1341 -0.1503 -0.1356
 8275SOL    HW225660   3.559   7.157   4.577 -0.9561  0.1255  1.6089
 8276SOL     OW25661   3.209   5.285   1.292  0.5343  0.4682  0.4078
 8276SOL    HW125662   3.221   5.328   1.207 -1.3954  0.7285  0.2211
 8276SOL    HW225663   3.297   5.280   1.329  1.6820 -1.0783 -2.2561
 8277SOL     OW25664   2.428   1.004   1.961 -0.5170 -0.4508 -0.0639
 8277SOL    HW125665   2.514   1.023   1.998 -0.1992  0.0632 -1.0324
 8277SOL    HW225666   2.383   1.088   1.958 -0.5931 -0.5010 -0.6825
 8278SOL     OW25667   0.867   1.424   4.654 -0.6547  0.4220 -0.3102
 8278SOL    HW125668   0.948   1.458   4.691  0.1371 -1.2293 -0.4461
 8278SOL    HW225669   0.832   1.366   4.722 -0.9582  0.0046 -0.8141
 8279SOL     OW25670   6.972   0.133   3.484  0.0935  0.4402  0.1462
 8279SOL    HW125671   6.878   0.135   3.467  0.1431  1.5654 -0.0787
 8279SOL    HW225672   6.987   0.050   3.529 -0.7386 -0.5259 -1.2958
 8280SOL     OW25673   2.100   4.576   4.570 -0.2005 -0.1591  0.5875
 8280SOL    HW125674   2.152   4.652   4.546  1.1106 -1.1939  0.0586
 8280SOL    HW225675   2.029   4.612   4.624  0.6250  1.3665  0.7090
 8281SOL     OW25676   6.443   6.605   7.635 -0.0174 -0.3287  0.0887
 8281SOL    HW125677   6.482   6.691   7.652 -0.5526 -0.3912  1.9257
 8281SOL    HW225678   6.518   6.548   7.620  0.6384 -0.2291  2.4881
 8282SOL     OW25679   5.335   4.976   0.791 -0.5870  0.0250 -0.8919
 8282SOL    HW125680   5.354   4.890   0.829 -1.8879 -0.0962 -0.4887
 8282SOL    HW225681   5.421   5.015   0.778  0.0082 -1.1440 -0.6362
 8283SOL     OW25682   4.817   0.368   1.432  0.4944 -0.2893 -0.1634
 8283SOL    HW125683   4.820   0.458   1.465  1.7107 -0.6491  0.7540
 8283SOL    HW225684   4.883   0.321   1.483 -1.4527 -2.1923  0.7691
 8284SOL     OW25685   4.323   1.107   3.622  0.0636  0.0702 -0.6534
 8284SOL    HW125686   4.384   1.044   3.584 -1.3840 -3.3822  2.2243
 8284SOL    HW225687   4.370   1.146   3.695 -0.5510 -1.4501  0.6085
 8285SOL     OW25688   2.797   2.135   1.332  0.8303  0.1447  0.1807
 8285SOL    HW125689   2.774   2.070   1.266 -2.9252 -0.5412  1.9055
 8285SOL    HW225690   2.782   2.219   1.288 -2.0210 -0.2882  0.0955
 8286SOL     OW25691   1.379   6.308   7.646 -0.7472  0.4845 -0.5150
 8286SOL    HW125692   1.416   6.344   7.566  0.5936  1.6526  0.5834
 8286SOL    HW225693   1.285   6.328   7.640 -0.4814  1.6200 -1.2483
 8287SOL     OW25694   7.414   7.867   6.619 -0.1011  0.3352  0.8404
 8287SOL    HW125695   7.492   7.884   6.672 -0.2146  0.7375  0.8779
 8287SOL    HW225696   7.446   7.816   6.545  0.0852 -0.0827  1.2058
 8288SOL     OW25697   7.036   7.864   0.071  0.2639 -0.0456  0.3210
 8288SOL    HW125698   6.985   7.855  -0.009  0.0724  0.5131  0.3780
 8288SOL    HW225699   7.117   7.906   0.043  1.6356 -2.7305 -0.1340
 8289SOL     OW25700   5.407   6.594   4.138 -0.1900 -0.2415  0.0489
 8289SOL    HW125701   5.488   6.635   4.166  0.5164 -0.8305 -1.0852
 8289SOL    HW225702   5.428   6.500   4.133 -1.1826 -0.5126  0.5760
 8290SOL     OW25703   0.109   1.162   3.584 -0.2143  0.1868 -0.4569
 8290SOL    HW125704   0.193   1.126   3.555 -0.8658 -0.7087 -1.3192
 8290SOL    HW225705   0.046   1.092   3.568 -0.9961  0.4904  1.0633
 8291SOL     OW25706   2.474   6.920   7.515  0.5283  0.4844  0.3371
 8291SOL    HW125707   2.531   6.989   7.482  0.3854  0.4796  0.0793
 8291SOL    HW225708   2.450   6.869   7.438 -0.5168  0.9984  0.3088
 8292SOL     OW25709   7.432   2.866   0.568 -0.5032  0.3772  0.0997
 8292SOL    HW125710   7.356   2.811   0.585 -0.5322  0.9355  2.1138
 8292SOL    HW225711   7.399   2.938   0.514 -1.4227  0.5814  0.9044
 8293SOL     OW25712   2.102   7.005   7.142  0.5954 -0.3110 -0.4280
 8293SOL    HW125713   2.041   6.971   7.208  0.1482  0.4520 -0.4388
 8293SOL    HW225714   2.059   6.988   7.058  1.7333 -2.4667 -0.6633
 8294SOL     OW25715   5.859   2.599   4.283  0.1768  0.5312  0.2906
 8294SOL    HW125716   5.845   2.622   4.375  0.5225 -0.7552  0.7011
 8294SOL    HW225717   5.797   2.653   4.234 -0.3861  0.8513  1.3273
 8295SOL     OW25718   7.770   4.718   4.590 -0.5648  0.2717  0.0269
 8295SOL    HW125719   7.787   4.686   4.679 -1.4088 -1.3117 -0.3486
 8295SOL    HW225720   7.764   4.639   4.537 -0.6280  1.1755 -1.3584
 8296SOL     OW25721   7.556   5.367   4.572 -0.0429  0.0995  0.4202
 8296SOL    HW125722   7.509   5.315   4.637 -0.5559  0.6888  0.5317
 8296SOL    HW225723   7.648   5.340   4.581 -0.5434 -2.4405 -1.0509
 8297SOL     OW25724   2.995   5.666   1.598 -0.2226  0.3815  0.0013
 8297SOL    HW125725   3.040   5.751   1.597  0.2919  0.1216  0.4171
 8297SOL    HW225726   3.066   5.602   1.590 -0.4721 -0.0438  1.0358
 8298SOL     OW25727   2.626   4.277   5.269  0.0853 -0.4758 -0.0377
 8298SOL    HW125728   2.688   4.281   5.196  1.5093  1.6633  1.1634
 8298SOL    HW225729   2.590   4.366   5.275 -0.1062 -0.6257  1.7316
 8299SOL     OW25730   7.872   2.659   6.383 -0.1162  0.2260 -0.4167
 8299SOL    HW125731   7.932   2.671   6.309 -0.3989  0.2396 -0.6454
 8299SOL    HW225732   7.915   2.592   6.437 -0.3315 -0.4522 -1.0554
 8300SOL     OW25733   4.547   1.803   5.572 -0.1677  0.1898 -0.2440
 8300SOL    HW125734   4.601   1.868   5.618  1.4776 -1.0240 -0.3553
 8300SOL    HW225735   4.537   1.732   5.635 -2.0754  0.5718 -0.0703
 8301SOL     OW25736   0.797   2.302   2.691  0.2618 -1.0336 -0.1034
 8301SOL    HW125737   0.711   2.261   2.683  0.7499 -2.0009 -0.5328
 8301SOL    HW225738   0.844   2.248   2.754  0.0828  0.3433  1.2933
 8302SOL     OW25739   2.965   6.292   2.934  0.1964 -0.0897 -0.2029
 8302SOL    HW125740   2.946   6.366   2.877 -0.8247 -1.3900 -1.6544
 8302SOL    HW225741   2.917   6.219   2.894  1.6913 -1.6770  0.7910
 8303SOL     OW25742   5.574   3.962   3.024 -0.1686 -0.0480 -0.0349
 8303SOL    HW125743   5.537   4.050   3.033 -0.5339 -0.3513  1.6202
 8303SOL    HW225744   5.505   3.904   3.056  0.0201 -0.9686 -1.2243
 8304SOL     OW25745   3.763   0.824   7.270 -0.1347  0.0034 -0.6087
 8304SOL    HW125746   3.755   0.891   7.203  0.2571  1.6566  0.9116
 8304SOL    HW225747   3.729   0.865   7.349 -2.2675 -2.4840 -0.1055
 8305SOL     OW25748   7.391   0.956   3.083 -0.0738  0.4194 -0.1088
 8305SOL    HW125749   7.438   1.039   3.075  0.2851  0.2412  0.1568
 8305SOL    HW225750   7.454   0.889   3.056 -1.1512  0.4165 -2.8661
 8306SOL     OW25751   7.292   0.827   2.340 -0.0856 -0.2809  0.3677
 8306SOL    HW125752   7.317   0.749   2.291 -0.9570  0.7531 -1.8543
 8306SOL    HW225753   7.374   0.862   2.375  0.6588 -0.6819 -0.9441
 8307SOL     OW25754   7.649   1.147   1.880 -0.1106  0.1373 -0.2672
 8307SOL    HW125755   7.683   1.215   1.937  0.8409 -1.0972  0.7181
 8307SOL    HW225756   7.660   1.182   1.791  0.7907  1.0717  0.1928
 8308SOL     OW25757   7.535   1.459   2.496  0.2486 -0.7037 -0.0389
 8308SOL    HW125758   7.457   1.427   2.539  0.8689 -1.2816  0.6727
 8308SOL    HW225759   7.529   1.555   2.503  0.0778 -0.7769  0.8566
 8309SOL     OW25760   4.155   7.014   1.124  0.3105 -0.1553 -0.4219
 8309SOL    HW125761   4.164   6.990   1.216 -0.8371 -2.1686 -0.7540
 8309SOL    HW225762   4.090   7.084   1.123  1.0198  0.5316  0.3495
 8310SOL     OW25763   4.717   1.469   5.410  0.0558 -0.1193 -0.1245
 8310SOL    HW125764   4.775   1.392   5.415  2.2295  1.2427 -2.3351
 8310SOL    HW225765   4.768   1.540   5.449  0.0499  1.1875 -2.3586
 8311SOL     OW25766   5.241   5.719   3.499 -0.3969 -0.0650 -0.3156
 8311SOL    HW125767   5.186   5.783   3.454  0.1070  1.4627  1.1405
 8311SOL    HW225768   5.184   5.681   3.566 -0.1109  0.4548  0.2339
 8312SOL     OW25769   3.473   3.186   6.347  0.4008 -0.3494  0.2662
 8312SOL    HW125770   3.564   3.215   6.340  0.2328  0.0420 -0.4415
 8312SOL    HW225771   3.424   3.266   6.367  0.0445 -0.2773 -0.8082
 8313SOL     OW25772   2.813   0.676   6.333  0.7966  0.5455 -0.3614
 8313SOL    HW125773   2.733   0.729   6.343  0.8775  0.8639 -1.2178
 8313SOL    HW225774   2.797   0.624   6.254  0.8346 -0.5263  0.3190
 8314SOL     OW25775   5.361   2.824   5.814 -0.2381  0.0026  0.0928
 8314SOL    HW125776   5.360   2.850   5.906  0.3571 -1.7987  0.6510
 8314SOL    HW225777   5.400   2.899   5.768 -0.5461  0.9258  1.2857
 8315SOL     OW25778   6.650   5.380   7.938  0.2231 -0.0257 -0.4486
 8315SOL    HW125779   6.710   5.383   7.863  0.0398 -0.0615 -0.5997
 8315SOL    HW225780   6.567   5.412   7.902  0.6890  2.2224  0.2885
 8316SOL     OW25781   4.618   6.694   7.691 -0.0566 -0.4988  0.2810
 8316SOL    HW125782   4.654   6.757   7.629  0.0654 -0.2675  0.5807
 8316SOL    HW225783   4.535   6.733   7.719  0.5063  0.0457  1.2528
 8317SOL     OW25784   0.251   3.260   0.428 -0.1992  0.2762 -0.7211
 8317SOL    HW125785   0.157   3.260   0.447  0.2017  0.3931  1.5363
 8317SOL    HW225786   0.279   3.170   0.446  0.4538  0.7359  0.6920
 8318SOL     OW25787   0.495   4.025   3.222 -0.1141 -0.1650 -0.2580
 8318SOL    HW125788   0.582   4.065   3.229  0.2545 -0.8565 -0.7372
 8318SOL    HW225789   0.476   4.027   3.129 -0.4402 -0.3626 -0.1963
 8319SOL     OW25790   7.354   2.048   6.991  0.1882 -0.2712  0.0367
 8319SOL    HW125791   7.397   2.110   6.932 -0.0520 -0.6026 -0.4919
 8319SOL    HW225792   7.399   2.061   7.075 -1.3790  2.2748  0.5930
 8320SOL     OW25793   1.216   0.818   1.135  0.6126  0.1448  0.0232
 8320SOL    HW125794   1.271   0.741   1.136 -0.3522 -0.5896  1.6945
 8320SOL    HW225795   1.243   0.868   1.212 -0.7626 -0.0662  0.6871
 8321SOL     OW25796   2.055   2.868   4.061 -0.1655  0.0800 -0.1706
 8321SOL    HW125797   2.036   2.938   4.123 -0.8764  0.4362 -0.7692
 8321SOL    HW225798   2.143   2.886   4.030  0.3106 -0.2585  0.9255
 8322SOL     OW25799   2.927   7.772   7.332  0.6199 -0.3258  0.0642
 8322SOL    HW125800   2.926   7.863   7.304 -0.2857 -0.6810 -1.1209
 8322SOL    HW225801   2.895   7.774   7.422  0.3284  0.4843 -0.0518
 8323SOL     OW25802   1.945   7.487   2.785  0.5441  0.1111  0.0585
 8323SOL    HW125803   1.935   7.581   2.768 -0.5103  0.1359  0.7555
 8323SOL    HW225804   2.008   7.482   2.857  0.6305  0.2792 -0.0046
 8324SOL     OW25805   0.188   5.894   3.050 -0.2068 -0.0615 -0.4373
 8324SOL    HW125806   0.260   5.832   3.065 -1.8167 -1.5227  1.8545
 8324SOL    HW225807   0.113   5.838   3.029 -1.4574  1.1813  0.5863
 8325SOL     OW25808   4.876   0.562   2.971  0.9869  0.5107  0.3554
 8325SOL    HW125809   4.955   0.595   2.929  1.6277 -0.5012  0.7465
 8325SOL    HW225810   4.907   0.514   3.047  0.1805 -1.6947 -0.6334
 8326SOL     OW25811   4.132   3.419   5.142 -0.4625  0.6059 -0.1256
 8326SOL    HW125812   4.152   3.437   5.234 -0.4357  0.3459 -0.0796
 8326SOL    HW225813   4.216   3.391   5.105 -1.0109 -2.0656  0.4445
 8327SOL     OW25814   2.509   5.256   6.686  0.4489  0.1815  0.5217
 8327SOL    HW125815   2.454   5.249   6.608  0.4877  2.0615  0.2957
 8327SOL    HW225816   2.595   5.283   6.652  1.0737 -1.0303  1.0467
 8328SOL     OW25817   4.659   7.757   2.008 -0.2597  0.2708  0.8351
 8328SOL    HW125818   4.696   7.778   2.094 -0.9294  2.0667  0.7247
 8328SOL    HW225819   4.733   7.764   1.948 -0.2459  1.4467  0.9551
 8329SOL     OW25820   5.763   4.438   3.374  0.4743  0.3225 -0.3739
 8329SOL    HW125821   5.732   4.421   3.463 -1.9358  1.0649 -1.0101
 8329SOL    HW225822   5.783   4.351   3.339  3.1572  0.1115  1.3729
 8330SOL     OW25823   0.828   7.306   3.118 -0.3409 -0.4872  0.2408
 8330SOL    HW125824   0.809   7.217   3.149  0.6591 -0.1535  1.9460
 8330SOL    HW225825   0.919   7.321   3.143  0.2383  0.2077 -2.0871
 8331SOL     OW25826   2.191   2.487   1.837  0.5323  0.1062 -0.0363
 8331SOL    HW125827   2.249   2.435   1.781  1.0646 -0.1848  0.7714
 8331SOL    HW225828   2.202   2.577   1.805  0.1888 -0.1604 -0.9366
 8332SOL     OW25829   7.453   7.919   4.028  0.4133  0.0385  0.2638
 8332SOL    HW125830   7.379   7.935   3.969  0.4680  0.2607  0.2550
 8332SOL    HW225831   7.522   7.886   3.971  0.7699  1.1175  0.0490
 8333SOL     OW25832   5.064   3.195   5.070  0.3604  0.4355 -0.3626
 8333SOL    HW125833   5.121   3.134   5.022  1.9361  1.1898  0.4713
 8333SOL    HW225834   5.058   3.158   5.158 -0.1129  0.5780 -0.3322
 8334SOL     OW25835   4.868   4.182   4.269 -0.4480  0.2494  0.0290
 8334SOL    HW125836   4.868   4.126   4.191 -0.3848  0.4226 -0.0959
 8334SOL    HW225837   4.949   4.233   4.261 -1.0049  1.0928 -0.3854
 8335SOL     OW25838   0.428   6.535   5.740  0.0675  0.0569  0.5806
 8335SOL    HW125839   0.430   6.629   5.753 -0.1094 -0.1154  2.0550
 8335SOL    HW225840   0.337   6.510   5.756  0.3150 -0.4835  1.1763
 8336SOL     OW25841   2.676   3.238   7.860 -0.8902 -0.3483  0.3410
 8336SOL    HW125842   2.769   3.220   7.869 -0.8956  0.3292  2.0311
 8336SOL    HW225843   2.650   3.190   7.781  0.6802 -1.2856  0.3568
 8337SOL     OW25844   0.224   5.140   5.308  0.0467  0.0899 -0.5613
 8337SOL    HW125845   0.284   5.066   5.307 -0.3550 -0.2566  0.2065
 8337SOL    HW225846   0.146   5.108   5.355 -0.0507  1.0492 -0.0375
 8338SOL     OW25847   6.628   6.141   6.657 -0.1467 -0.3575 -0.4210
 8338SOL    HW125848   6.663   6.062   6.698  0.4348  0.3874  0.5932
 8338SOL    HW225849   6.692   6.209   6.678 -1.6724  0.8427  0.6442
 8339SOL     OW25850   0.123   0.210   3.841  0.0469  0.0787  0.0439
 8339SOL    HW125851   0.087   0.221   3.929 -2.0521  2.6757 -0.9998
 8339SOL    HW225852   0.136   0.115   3.833  0.4576 -0.2478  3.1495
 8340SOL     OW25853   6.571   6.953   1.332 -0.1877 -0.1752  0.0642
 8340SOL    HW125854   6.516   6.991   1.401  0.3660 -0.3651  0.6231
 8340SOL    HW225855   6.510   6.907   1.275 -0.4101 -3.0897  2.3935
 8341SOL     OW25856   5.114   1.019   3.592  0.7215 -0.3526  0.0111
 8341SOL    HW125857   5.091   1.046   3.503 -0.0354 -0.6002  0.1235
 8341SOL    HW225858   5.060   1.075   3.648  0.1131 -1.1844  0.2747
 8342SOL     OW25859   7.782   6.919   6.724 -0.2392 -0.1032 -0.0110
 8342SOL    HW125860   7.781   6.989   6.789 -1.5887 -0.5258  0.4524
 8342SOL    HW225861   7.735   6.956   6.649 -1.3154 -0.6169  0.3845
 8343SOL     OW25862   0.486   6.871   1.621 -0.1499 -0.0412 -0.2143
 8343SOL    HW125863   0.397   6.900   1.637 -0.6144 -0.4101 -1.8739
 8343SOL    HW225864   0.497   6.879   1.526  0.9696 -1.6938 -0.2763
 8344SOL     OW25865   4.036   5.647   7.047  0.2887  0.4787  0.1015
 8344SOL    HW125866   4.118   5.683   7.014 -0.4113  2.2299  0.1149
 8344SOL    HW225867   3.999   5.718   7.100 -1.3309 -0.1690 -0.0940
 8345SOL     OW25868   1.999   3.877   3.364  0.3036  0.5579 -0.3266
 8345SOL    HW125869   2.079   3.839   3.400 -0.6274 -1.4022 -0.2382
 8345SOL    HW225870   2.028   3.929   3.290  1.7377  0.5841  0.2300
 8346SOL     OW25871   3.501   4.260   1.938 -0.2147 -0.1429  0.5774
 8346SOL    HW125872   3.565   4.211   1.886  0.6671  0.4201  1.0936
 8346SOL    HW225873   3.506   4.349   1.904 -1.6995 -0.3581 -0.2588
 8347SOL     OW25874   0.797   2.041   2.406  0.2182  0.0700 -0.2062
 8347SOL    HW125875   0.866   2.106   2.418  0.7611 -0.3924 -0.7873
 8347SOL    HW225876   0.744   2.075   2.333 -1.1541  1.2362  1.2508
 8348SOL     OW25877   2.797   6.107   5.356  0.1276 -0.7847  0.0258
 8348SOL    HW125878   2.812   6.200   5.339  0.8429 -1.1177 -1.3065
 8348SOL    HW225879   2.884   6.068   5.354  0.0597 -1.2355  2.4856
 8349SOL     OW25880   0.478   4.093   4.670  0.1915  0.1432  0.1615
 8349SOL    HW125881   0.509   4.180   4.645  1.2460  0.0454  1.0360
 8349SOL    HW225882   0.409   4.109   4.733 -0.4902  0.3481 -0.6197
 8350SOL     OW25883   4.190   4.236   4.373  0.1525  0.1793  0.1284
 8350SOL    HW125884   4.124   4.222   4.441  0.2219  1.5141  0.5069
 8350SOL    HW225885   4.259   4.285   4.417 -0.1876  1.8285 -1.0717
 8351SOL     OW25886   3.823   2.836   1.699 -0.2377 -0.2308 -0.2560
 8351SOL    HW125887   3.825   2.811   1.791  0.5287 -1.0216 -0.4710
 8351SOL    HW225888   3.875   2.916   1.695  0.8609 -0.9246 -0.1899
 8352SOL     OW25889   7.818   1.336   7.596  0.0362 -0.2982 -0.0559
 8352SOL    HW125890   7.774   1.303   7.518 -0.8968  3.2135 -1.2048
 8352SOL    HW225891   7.778   1.288   7.669 -1.2537 -1.5076 -1.5101
 8353SOL     OW25892   0.513   5.922   0.702  0.3401  0.3315  0.5459
 8353SOL    HW125893   0.450   5.907   0.773  1.2748 -0.6032  1.1940
 8353SOL    HW225894   0.517   5.839   0.656  1.3384  0.2935  0.6930
 8354SOL     OW25895   7.592   3.021   4.315 -0.5020  0.5436 -0.0142
 8354SOL    HW125896   7.645   3.089   4.357  1.1905 -0.9380  0.3644
 8354SOL    HW225897   7.655   2.954   4.289 -2.3881 -2.7218  3.0339
 8355SOL     OW25898   1.089   6.499   1.355 -0.2633 -0.5842 -0.1899
 8355SOL    HW125899   1.122   6.589   1.357  0.8547 -0.9897  0.5372
 8355SOL    HW225900   1.051   6.489   1.268  0.0216  0.4450 -0.4461
 8356SOL     OW25901   7.889   1.737   3.415  0.4073  0.5060 -0.0679
 8356SOL    HW125902   7.794   1.740   3.403  0.6336 -1.3178 -3.2840
 8356SOL    HW225903   7.915   1.829   3.420 -1.5027  1.0397  1.3627
 8357SOL     OW25904   5.995   1.940   7.547 -0.2293  0.2819  0.3089
 8357SOL    HW125905   6.023   1.874   7.485 -1.8776  0.0844 -0.2845
 8357SOL    HW225906   6.021   2.023   7.507  1.2714  0.0385  0.7504
 8358SOL     OW25907   4.449   3.329   7.837  0.5857 -0.3264 -0.6133
 8358SOL    HW125908   4.543   3.327   7.854  0.8923  0.2108 -2.0902
 8358SOL    HW225909   4.441   3.321   7.742 -0.8419 -0.0058 -0.5481
 8359SOL     OW25910   3.084   3.898   6.973  0.2785  0.2460 -0.0680
 8359SOL    HW125911   3.167   3.857   6.951  0.3691 -0.1845  0.9907
 8359SOL    HW225912   3.106   3.990   6.990  0.8063 -0.1401  1.5369
 8360SOL     OW25913   3.285   5.340   4.937  0.1788 -0.6828 -0.0854
 8360SOL    HW125914   3.296   5.418   4.991 -0.6405 -2.8070  3.5007
 8360SOL    HW225915   3.345   5.276   4.975 -0.3756 -2.3364 -1.8148
 8361SOL     OW25916   5.986   1.012   4.151  0.0052  0.7416 -0.2274
 8361SOL    HW125917   5.963   0.919   4.147  0.2877  0.6985 -1.4798
 8361SOL    HW225918   5.913   1.053   4.196 -0.1920 -0.0693  0.2129
 8362SOL     OW25919   0.869   7.536   2.480 -0.0614 -0.3276 -0.5824
 8362SOL    HW125920   0.858   7.598   2.408 -0.1129 -0.4484 -0.6782
 8362SOL    HW225921   0.867   7.590   2.559  0.1588 -0.1733 -0.6796
 8363SOL     OW25922   7.543   6.387   0.712 -0.1324  0.1750  0.3066
 8363SOL    HW125923   7.588   6.355   0.634  1.5830 -1.4673  1.8790
 8363SOL    HW225924   7.450   6.381   0.690  0.1946 -2.7796 -0.7319
 8364SOL     OW25925   4.134   2.227   4.270 -0.2061  0.5677  0.1601
 8364SOL    HW125926   4.227   2.210   4.256 -0.2342  0.8884 -0.4346
 8364SOL    HW225927   4.105   2.155   4.326  0.4171  0.5134  0.4214
 8365SOL     OW25928   6.543   7.718   6.244  0.0270  0.3512 -0.2081
 8365SOL    HW125929   6.635   7.723   6.216  0.4952 -0.4262  1.0811
 8365SOL    HW225930   6.519   7.808   6.264  1.2411  0.3209  1.5758
 8366SOL     OW25931   4.386   4.941   6.369  0.1794  0.3815  0.1682
 8366SOL    HW125932   4.448   4.974   6.434 -1.5563  2.2401  0.9761
 8366SOL    HW225933   4.359   5.019   6.319  0.0551 -0.7094 -1.5787
 8367SOL     OW25934   6.293   5.428   2.514  0.3111 -0.0433 -0.2728
 8367SOL    HW125935   6.237   5.416   2.591  0.5375 -1.0018 -0.2480
 8367SOL    HW225936   6.344   5.507   2.533 -0.8021  0.6824 -0.1684
 8368SOL     OW25937   1.078   3.879   1.097 -0.1425 -0.3196 -0.0549
 8368SOL    HW125938   1.155   3.825   1.111 -0.9529 -1.8227 -1.0717
 8368SOL    HW225939   1.024   3.867   1.175  0.4572  0.4508  0.4967
 8369SOL     OW25940   1.231   5.526   6.916  0.4253  0.3010  0.7015
 8369SOL    HW125941   1.200   5.608   6.879 -1.0899  0.3523  1.9876
 8369SOL    HW225942   1.284   5.551   6.992  2.5623  0.1479 -0.6287
 8370SOL     OW25943   5.511   6.577   7.459 -0.2122  0.1725  0.1196
 8370SOL    HW125944   5.519   6.592   7.553  1.6037  0.3590 -0.0193
 8370SOL    HW225945   5.557   6.495   7.443  0.5028  0.7092 -0.7284
 8371SOL     OW25946   2.198   3.038   1.582  0.3169 -0.5101  0.5647
 8371SOL    HW125947   2.219   3.082   1.664 -0.5989 -0.4487  0.7772
 8371SOL    HW225948   2.140   3.099   1.536  2.0115  0.1204 -0.8254
 8372SOL     OW25949   6.714   5.324   4.603  0.1093 -0.1791  0.1624
 8372SOL    HW125950   6.669   5.293   4.524 -0.7482  0.5695  0.3312
 8372SOL    HW225951   6.802   5.345   4.573  0.2415 -1.2684 -0.2784
 8373SOL     OW25952   2.473   2.338   3.854  0.1875  0.3571  0.8456
 8373SOL    HW125953   2.406   2.336   3.923 -0.7398 -0.8630 -0.0380
 8373SOL    HW225954   2.443   2.273   3.790  1.0931  1.3346 -0.6343
 8374SOL     OW25955   1.734   6.248   6.538  0.4576 -0.0962 -0.0600
 8374SOL    HW125956   1.690   6.259   6.453  1.0047 -0.6767 -0.4283
 8374SOL    HW225957   1.670   6.277   6.602 -0.8067 -1.7165 -0.5226
 8375SOL     OW25958   5.256   5.691   7.343 -0.5463 -0.1074  0.6764
 8375SOL    HW125959   5.162   5.672   7.335 -0.4619  0.1783 -1.5940
 8375SOL    HW225960   5.299   5.618   7.299  0.4122 -0.7321  2.5118
 8376SOL     OW25961   7.376   3.176   2.821  0.4691 -0.0787  0.0161
 8376SOL    HW125962   7.386   3.211   2.732  1.3547  1.5102  0.6937
 8376SOL    HW225963   7.283   3.153   2.827  0.6563 -1.4499 -1.7258
 8377SOL     OW25964   1.900   5.662   4.884 -0.2184 -0.2922  0.5068
 8377SOL    HW125965   1.838   5.732   4.902 -0.4577  0.1567 -1.7587
 8377SOL    HW225966   1.978   5.685   4.934 -0.6711  1.0196  0.6436
 8378SOL     OW25967   6.634   1.145   4.297 -0.3160  0.0622  0.8132
 8378SOL    HW125968   6.717   1.106   4.326 -0.5596 -0.2225  1.1321
 8378SOL    HW225969   6.617   1.104   4.212  0.9277  1.6661 -0.2572
 8379SOL     OW25970   5.722   5.690   5.879  0.2410 -0.1845 -0.0941
 8379SOL    HW125971   5.738   5.598   5.855 -0.4543 -0.4593  0.4681
 8379SOL    HW225972   5.810   5.728   5.886  0.5881 -1.1033  0.8119
 8380SOL     OW25973   1.570   3.350   0.172  0.3576  0.6075  0.0329
 8380SOL    HW125974   1.620   3.288   0.225  0.9165  1.6560  0.7692
 8380SOL    HW225975   1.524   3.405   0.236  0.2017  1.2081 -0.5778
 8381SOL     OW25976   2.225   4.345   2.328  0.6004 -0.0508 -0.0205
 8381SOL    HW125977   2.224   4.254   2.297 -0.3966  0.1805 -0.7455
 8381SOL    HW225978   2.245   4.396   2.250  2.7979  0.2894  0.6980
 8382SOL     OW25979   5.310   5.974   1.409 -0.3875 -0.1627  0.3867
 8382SOL    HW125980   5.372   5.970   1.336 -0.4627 -2.6252  0.3911
 8382SOL    HW225981   5.352   5.924   1.479 -0.5937  1.6239  1.8807
 8383SOL     OW25982   2.198   3.905   5.263  0.4268  0.2682  0.6154
 8383SOL    HW125983   2.252   3.959   5.206  0.0807 -1.9689 -2.0850
 8383SOL    HW225984   2.260   3.861   5.321  1.2101  0.0062 -0.3952
 8384SOL     OW25985   6.003   2.329   0.472  0.0412  0.8067 -0.0353
 8384SOL    HW125986   6.087   2.375   0.472 -0.3611  1.6342 -1.5225
 8384SOL    HW225987   5.940   2.394   0.441 -0.7767 -0.3685 -0.9712
 8385SOL     OW25988   0.619   6.731   3.535 -0.0801  0.2473  0.6911
 8385SOL    HW125989   0.636   6.786   3.458  1.5697 -1.4703 -0.2605
 8385SOL    HW225990   0.611   6.792   3.607 -0.1036  1.8309 -0.5904
 8386SOL     OW25991   4.384   2.660   2.188 -0.0065  0.2190  0.3436
 8386SOL    HW125992   4.393   2.667   2.093 -0.9845 -1.6999  0.0711
 8386SOL    HW225993   4.447   2.593   2.213 -0.7469 -0.3064  0.8452
 8387SOL     OW25994   5.364   6.356   3.613 -0.1099 -0.3177  0.2875
 8387SOL    HW125995   5.323   6.439   3.638 -0.1758  0.1229 -1.2046
 8387SOL    HW225996   5.291   6.298   3.593 -0.2076  0.8709 -3.7024
 8388SOL     OW25997   5.867   5.765   7.123 -0.6969 -0.0922  0.4095
 8388SOL    HW125998   5.826   5.745   7.039 -2.1703 -0.9369  1.2678
 8388SOL    HW225999   5.937   5.827   7.102 -0.3846 -1.0222 -1.5415
 8389SOL     OW26000   1.972   7.269   5.624  0.4843  0.1567  0.3387
 8389SOL    HW126001   1.879   7.257   5.644  0.7672 -2.0970  0.4897
 8389SOL    HW226002   1.991   7.359   5.652 -0.9100 -0.3574  3.2857
 8390SOL     OW26003   1.699   5.503   4.765  0.4112 -0.1780  0.0260
 8390SOL    HW126004   1.734   5.415   4.759 -0.5999 -0.6297  0.4202
 8390SOL    HW226005   1.751   5.545   4.834 -0.1871 -1.0235  1.0166
 8391SOL     OW26006   2.669   7.902   6.468 -0.3549  0.4471  0.4938
 8391SOL    HW126007   2.723   7.822   6.465  0.5767  1.0744 -1.6687
 8391SOL    HW226008   2.658   7.921   6.561  0.1538 -1.6942  1.0432
 8392SOL     OW26009   5.187   1.043   1.916  0.0406 -0.6219 -1.4618
 8392SOL    HW126010   5.255   0.983   1.944  0.6649  1.0332  0.9172
 8392SOL    HW226011   5.124   1.042   1.988 -0.2530  1.0465 -1.6606
 8393SOL     OW26012   6.781   2.023   7.648  0.7706  0.0088 -0.1076
 8393SOL    HW126013   6.831   2.010   7.728 -1.1884 -0.0988  1.1577
 8393SOL    HW226014   6.759   2.116   7.649  0.4336 -0.0667 -0.3166
 8394SOL     OW26015   6.207   0.640   6.465 -0.1408 -0.5330  0.0772
 8394SOL    HW126016   6.224   0.709   6.529  1.8741 -0.2577 -0.6490
 8394SOL    HW226017   6.275   0.574   6.482  1.5928  0.3207 -2.7172
 8395SOL     OW26018   0.647   7.608   1.812  0.7240  0.3099  0.4188
 8395SOL    HW126019   0.659   7.700   1.835 -0.5556  0.4986  0.4479
 8395SOL    HW226020   0.704   7.560   1.872 -0.5218  0.9595  2.2292
 8396SOL     OW26021   0.421   1.761   7.598  0.2933 -1.0311  0.1189
 8396SOL    HW126022   0.483   1.827   7.631 -0.0191 -0.9667  0.5825
 8396SOL    HW226023   0.418   1.777   7.504  0.2282 -0.3847  0.2246
 8397SOL     OW26024   0.542   3.399   7.202 -0.1200 -0.2739  0.6558
 8397SOL    HW126025   0.479   3.327   7.199  0.2723 -0.6961  2.0291
 8397SOL    HW226026   0.626   3.356   7.218  0.3184  0.3928  0.1605
 8398SOL     OW26027   0.923   2.010   2.062  0.3378 -0.3136  0.4723
 8398SOL    HW126028   0.910   2.102   2.039  1.1298  0.0339  1.3317
 8398SOL    HW226029   0.843   1.967   2.033  0.2653  0.5135 -0.6051
 8399SOL     OW26030   7.083   7.066   0.563 -0.0778  0.0423 -0.3977
 8399SOL    HW126031   6.997   7.025   0.567  0.8314 -1.8381  1.2286
 8399SOL    HW226032   7.129   7.035   0.640  3.0915 -1.4078 -2.6500
 8400SOL     OW26033   5.170   6.139   7.145 -0.3417  0.6582  0.4386
 8400SOL    HW126034   5.193   6.080   7.217 -0.4601  1.0187  0.7730
 8400SOL    HW226035   5.128   6.082   7.081 -1.0137  0.4747  1.0238
 8401SOL     OW26036   0.156   0.968   7.442  0.2451  0.3093 -0.4896
 8401SOL    HW126037   0.176   1.059   7.421 -0.5367  0.7335  0.5235
 8401SOL    HW226038   0.061   0.966   7.454  0.1943 -0.7424 -0.9344
 8402SOL     OW26039   4.649   1.102   3.374  0.5277  0.2124 -0.2502
 8402SOL    HW126040   4.651   1.070   3.464  0.6477 -0.4780 -0.4958
 8402SOL    HW226041   4.557   1.097   3.349  0.5112  0.3014 -0.2109
 8403SOL     OW26042   3.695   6.399   0.193 -0.2068 -0.2668  0.1482
 8403SOL    HW126043   3.716   6.408   0.100  2.4560  0.7454  0.7583
 8403SOL    HW226044   3.653   6.482   0.217  1.2488  0.4483  0.3118
 8404SOL     OW26045   2.157   7.762   2.224  0.2247 -0.2543  0.0058
 8404SOL    HW126046   2.129   7.729   2.138  0.1602 -1.7324  0.5590
 8404SOL    HW226047   2.091   7.730   2.285  1.3472 -1.0039  0.8799
 8405SOL     OW26048   3.054   6.362   2.001  0.1336  0.1956  0.0326
 8405SOL    HW126049   2.959   6.353   1.997 -0.0720  2.3707 -1.5352
 8405SOL    HW226050   3.080   6.307   2.076 -2.2292 -1.0367  0.0427
 8406SOL     OW26051   6.898   3.225   4.479  0.0701 -0.1011 -0.4847
 8406SOL    HW126052   6.851   3.255   4.401  0.6125  0.3850 -0.6349
 8406SOL    HW226053   6.840   3.161   4.519 -2.0515  2.5466  0.9553
 8407SOL     OW26054   1.756   6.374   7.193  0.1406  0.3195 -0.6271
 8407SOL    HW126055   1.803   6.428   7.129 -0.4703  0.4581 -0.9665
 8407SOL    HW226056   1.708   6.311   7.140 -0.1372  0.2458 -0.2868
 8408SOL     OW26057   0.792   3.730   7.911  0.2494  0.5492  0.4055
 8408SOL    HW126058   0.826   3.697   7.827 -0.0681  1.7953 -0.2243
 8408SOL    HW226059   0.699   3.741   7.896  0.4727  2.6202  0.2718
 8409SOL     OW26060   5.884   3.839   2.255 -0.1751 -0.1343  0.5552
 8409SOL    HW126061   5.958   3.898   2.272  0.5747 -0.1498 -2.1463
 8409SOL    HW226062   5.826   3.890   2.199 -0.4972 -1.2730 -0.1832
 8410SOL     OW26063   0.628   4.849   6.846  0.2085 -0.3066 -0.2510
 8410SOL    HW126064   0.667   4.933   6.870 -0.2829 -0.1582  0.0403
 8410SOL    HW226065   0.576   4.868   6.767 -0.0697 -0.2914 -0.0647
 8411SOL     OW26066   3.897   7.187   1.147  0.0656 -0.1827 -0.0890
 8411SOL    HW126067   3.858   7.227   1.224  0.5042 -0.5387  0.3223
 8411SOL    HW226068   3.877   7.247   1.075 -1.5122 -0.5055  0.0456
 8412SOL     OW26069   4.112   7.318   1.394  0.2499  0.4406  0.0386
 8412SOL    HW126070   4.075   7.230   1.395  0.6900  0.2515  0.5126
 8412SOL    HW226071   4.207   7.304   1.398  0.3817  0.9120 -1.0857
 8413SOL     OW26072   1.540   0.925   1.223 -0.2054 -0.5276  0.2436
 8413SOL    HW126073   1.599   0.931   1.148 -1.4906 -0.0110 -0.7694
 8413SOL    HW226074   1.594   0.889   1.294  1.4095  0.3097 -0.5169
 8414SOL     OW26075   5.520   4.198   7.143 -0.0156  0.1069  0.1207
 8414SOL    HW126076   5.612   4.197   7.170  0.5566 -0.3506 -1.6792
 8414SOL    HW226077   5.476   4.255   7.207  1.6356  0.8163  0.6704
 8415SOL     OW26078   3.178   3.507   1.725  0.2958 -0.2442 -0.0169
 8415SOL    HW126079   3.153   3.494   1.634  1.4074  0.0789 -0.3874
 8415SOL    HW226080   3.116   3.454   1.775  0.8766 -2.0162 -1.0810
 8416SOL     OW26081   1.570   6.710   3.503 -0.7372 -0.0571 -0.0229
 8416SOL    HW126082   1.485   6.678   3.472 -1.9222  1.2941  1.6207
 8416SOL    HW226083   1.560   6.805   3.505 -0.3357  0.0075  3.2157
 8417SOL     OW26084   3.710   5.600   1.706 -0.1456 -0.2655  0.3965
 8417SOL    HW126085   3.805   5.589   1.706 -0.2601 -1.6456 -0.8233
 8417SOL    HW226086   3.697   5.694   1.696  1.1274 -0.2123 -1.2167
 8418SOL     OW26087   5.650   2.556   5.835  0.0739  0.4922 -0.0649
 8418SOL    HW126088   5.659   2.624   5.768  0.8812  1.1420  0.6834
 8418SOL    HW226089   5.695   2.480   5.798  1.3553  1.1401  0.1198
 8419SOL     OW26090   5.724   6.435   5.513 -0.6683  0.1384 -0.5905
 8419SOL    HW126091   5.781   6.428   5.437  1.1653 -1.1346  0.8039
 8419SOL    HW226092   5.753   6.515   5.558  1.5821 -1.5308  1.1896
 8420SOL     OW26093   3.785   4.070   5.337 -0.1664  0.1606 -0.2894
 8420SOL    HW126094   3.708   4.123   5.319  1.2857  2.6018  0.2949
 8420SOL    HW226095   3.798   4.019   5.257 -0.7807  1.8139 -1.5063
 8421SOL     OW26096   7.459   0.630   0.564  0.2348 -0.0503 -0.1378
 8421SOL    HW126097   7.377   0.618   0.612  0.4982 -0.7513  0.1522
 8421SOL    HW226098   7.446   0.583   0.481 -0.3207  1.3844 -0.9092
 8422SOL     OW26099   7.829   0.308   5.898 -0.1858  0.1868 -0.6033
 8422SOL    HW126100   7.793   0.228   5.860  0.0398  0.7237 -2.0111
 8422SOL    HW226101   7.913   0.282   5.935 -0.2182 -0.2777 -0.8500
 8423SOL     OW26102   4.880   4.100   4.530  0.4047 -0.0088 -0.2320
 8423SOL    HW126103   4.951   4.044   4.498  0.9522  1.4224 -1.6129
 8423SOL    HW226104   4.850   4.148   4.453 -1.1596  0.4245  0.5960
 8424SOL     OW26105   5.108   7.884   6.801  0.2079 -0.4692  0.0189
 8424SOL    HW126106   5.188   7.932   6.822  0.4059 -0.7733 -0.0345
 8424SOL    HW226107   5.098   7.822   6.874  0.6445 -1.2096 -0.5372
 8425SOL     OW26108   0.293   7.460   2.542  0.2695 -0.0935  0.1708
 8425SOL    HW126109   0.324   7.464   2.451 -0.1634  1.2105  0.0474
 8425SOL    HW226110   0.329   7.379   2.577  1.4174 -0.0339 -0.8150
 8426SOL     OW26111   3.052   0.919   7.356  0.1808  0.0010  0.3944
 8426SOL    HW126112   3.137   0.913   7.311  0.8553  1.0046  1.4820
 8426SOL    HW226113   3.009   0.994   7.316  0.4381  0.4005  0.8657
 8427SOL     OW26114   7.737   3.933   6.218 -0.3342 -0.0857  0.2386
 8427SOL    HW126115   7.758   4.020   6.186 -2.1361  0.5263  0.6076
 8427SOL    HW226116   7.733   3.879   6.139  3.4393 -0.5443  0.1896
 8428SOL     OW26117   2.856   0.108   2.224  0.0044 -0.4889  0.6360
 8428SOL    HW126118   2.790   0.144   2.164  0.2570 -0.9571  0.0622
 8428SOL    HW226119   2.918   0.179   2.238  0.8810 -0.8605 -1.0449
 8429SOL     OW26120   3.232   3.346   2.023 -0.5542 -0.4707 -0.2412
 8429SOL    HW126121   3.320   3.341   1.984  0.8559  0.8804  2.4875
 8429SOL    HW226122   3.228   3.433   2.062 -2.4935 -1.1175  1.1297
 8430SOL     OW26123   5.169   5.457   1.743 -0.6547 -0.2913 -0.5651
 8430SOL    HW126124   5.179   5.371   1.704  0.2331 -0.5793  0.2552
 8430SOL    HW226125   5.081   5.456   1.781  0.0297 -1.6134  1.1793
 8431SOL     OW26126   4.723   6.501   6.355 -0.0590  0.5626  0.4032
 8431SOL    HW126127   4.718   6.412   6.320 -0.1980  0.6123  0.2917
 8431SOL    HW226128   4.642   6.512   6.405 -1.0096  1.2843 -1.1934
 8432SOL     OW26129   1.110   7.321   7.082 -0.1539 -0.3862 -0.0182
 8432SOL    HW126130   1.110   7.350   6.990 -1.1517  1.5593  0.5471
 8432SOL    HW226131   1.124   7.226   7.077  0.6956 -0.2074 -2.1228
 8433SOL     OW26132   7.300   0.506   1.943  0.6754  0.0678  0.1739
 8433SOL    HW126133   7.273   0.561   1.869 -0.5071 -0.2930  0.3152
 8433SOL    HW226134   7.371   0.452   1.909  1.1417  0.9304 -0.2678
 8434SOL     OW26135   3.502   4.527   1.818 -0.2748 -0.0904 -0.1182
 8434SOL    HW126136   3.511   4.587   1.891 -1.8137 -0.9993  0.8650
 8434SOL    HW226137   3.433   4.565   1.764 -1.5141 -1.1128  0.7008
 8435SOL     OW26138   1.486   0.712   0.936 -0.5270 -0.1743  0.5081
 8435SOL    HW126139   1.458   0.761   1.013  1.0714  0.7894  0.5185
 8435SOL    HW226140   1.433   0.748   0.865 -0.7681  0.1719  0.8595
 8436SOL     OW26141   5.562   7.777   1.021  0.2276 -0.2364 -0.3917
 8436SOL    HW126142   5.501   7.847   1.045  0.5842  0.8882 -2.5293
 8436SOL    HW226143   5.507   7.698   1.015 -0.8169  0.5123 -1.0749
 8437SOL     OW26144   3.256   6.191   3.543  0.0688 -0.1304  0.6843
 8437SOL    HW126145   3.317   6.248   3.496 -0.1702 -0.2565  0.2125
 8437SOL    HW226146   3.279   6.202   3.635 -0.2393  1.0470  0.6359
 8438SOL     OW26147   3.673   0.607   4.997  0.1477 -0.0079  0.7800
 8438SOL    HW126148   3.663   0.539   4.930  0.4357  2.6081 -2.1780
 8438SOL    HW226149   3.584   0.638   5.013 -0.0584 -1.3778  2.6029
 8439SOL     OW26150   6.100   2.056   3.091  0.7054 -0.8548 -0.4654
 8439SOL    HW126151   6.010   2.057   3.123  0.5727 -0.0655 -0.8501
 8439SOL    HW226152   6.092   2.036   2.997  0.6771  2.1633 -1.1956
 8440SOL     OW26153   1.629   1.139   7.446 -0.6371  0.1512 -0.3536
 8440SOL    HW126154   1.560   1.203   7.432 -1.6585 -0.4214  1.6678
 8440SOL    HW226155   1.588   1.055   7.425 -0.1348 -0.0701 -0.4677
 8441SOL     OW26156   4.673   1.131   0.328 -0.5522  0.3639 -0.0980
 8441SOL    HW126157   4.763   1.104   0.311 -1.2035 -1.2513 -1.2870
 8441SOL    HW226158   4.667   1.219   0.292  0.6630  0.6901  0.4492
 8442SOL     OW26159   5.740   6.027   3.511 -0.5568 -0.4514  0.7431
 8442SOL    HW126160   5.697   6.111   3.525 -0.6448  0.0262 -1.7917
 8442SOL    HW226161   5.694   5.989   3.436  0.7834 -1.8373  0.5658
 8443SOL     OW26162   2.571   2.646   5.545  0.2010 -0.2701  0.1284
 8443SOL    HW126163   2.558   2.639   5.451 -1.6716 -0.6281  0.3612
 8443SOL    HW226164   2.645   2.589   5.564  0.9198  0.1885 -1.1662
 8444SOL     OW26165   2.725   7.942   0.036 -0.4230  0.2655  0.2510
 8444SOL    HW126166   2.631   7.922   0.034 -0.5351  0.8532 -0.4684
 8444SOL    HW226167   2.762   7.875   0.093 -1.0553 -0.9057 -0.6765
 8445SOL     OW26168   4.004   2.092   7.074  0.1125 -0.2802  0.6916
 8445SOL    HW126169   3.969   2.004   7.088  1.7202 -1.5514 -2.3964
 8445SOL    HW226170   4.036   2.119   7.161  0.3581 -3.0921  1.5726
 8446SOL     OW26171   2.363   0.418   2.040  0.4087  0.4934  0.2934
 8446SOL    HW126172   2.340   0.357   1.971  0.8744  1.7011 -0.9792
 8446SOL    HW226173   2.307   0.394   2.114 -1.9239  0.7215 -1.3063
 8447SOL     OW26174   1.982   1.760   7.674  0.1229 -0.4803 -0.1439
 8447SOL    HW126175   1.930   1.835   7.704  0.3349 -0.7741  1.0034
 8447SOL    HW226176   2.067   1.772   7.715  0.3886 -0.9816 -0.5363
 8448SOL     OW26177   1.717   5.862   4.300 -0.4651  0.2352 -0.4758
 8448SOL    HW126178   1.679   5.788   4.348 -0.1595 -0.0872 -0.7240
 8448SOL    HW226179   1.781   5.822   4.241  0.6109  0.7842  0.2631
 8449SOL     OW26180   0.338   6.474   3.464  0.2260 -0.0676 -0.2530
 8449SOL    HW126181   0.312   6.401   3.519 -0.2100  0.8556  0.8173
 8449SOL    HW226182   0.263   6.488   3.406 -0.3186  0.4479  0.5470
 8450SOL     OW26183   5.881   6.274   6.455 -0.0347 -0.1218 -0.5044
 8450SOL    HW126184   5.895   6.346   6.517  0.7348  0.1609 -0.9900
 8450SOL    HW226185   5.966   6.231   6.449  0.1444  0.3698 -1.9838
 8451SOL     OW26186   6.838   6.750   6.999 -0.5138  0.2923 -0.5095
 8451SOL    HW126187   6.794   6.781   6.920 -0.6128 -1.3426 -1.1191
 8451SOL    HW226188   6.874   6.665   6.975 -0.6872 -0.3138  1.2591
 8452SOL     OW26189   4.163   7.296   6.169  0.1967 -0.1140  0.2747
 8452SOL    HW126190   4.095   7.348   6.211 -0.6512 -0.3989 -0.6975
 8452SOL    HW226191   4.237   7.357   6.160 -1.3105  1.5437 -2.3269
 8453SOL     OW26192   7.713   5.241   0.069 -0.4122  0.3432 -0.3273
 8453SOL    HW126193   7.627   5.199   0.058  0.7463 -2.1426 -0.5204
 8453SOL    HW226194   7.752   5.195   0.143  0.4904  1.9592  0.2284
 8454SOL     OW26195   6.356   6.513   0.306 -0.2758 -0.3667 -0.2302
 8454SOL    HW126196   6.450   6.504   0.295 -0.0539  0.2355  1.0507
 8454SOL    HW226197   6.344   6.598   0.349 -1.2560 -1.2581  1.3477
 8455SOL     OW26198   6.326   4.782   4.179 -0.2607 -0.1778 -0.4273
 8455SOL    HW126199   6.334   4.873   4.150  0.1182 -0.7218 -2.1154
 8455SOL    HW226200   6.324   4.731   4.099  0.6956 -1.7635  0.5029
 8456SOL     OW26201   6.824   7.076   1.747  0.5182  0.8392 -0.0993
 8456SOL    HW126202   6.866   7.046   1.827 -0.3791  0.0111  0.0897
 8456SOL    HW226203   6.895   7.113   1.694  1.1056  1.4547  1.0912
 8457SOL     OW26204   0.703   0.375   3.534 -0.1113  0.2845 -0.2019
 8457SOL    HW126205   0.786   0.338   3.504  0.3903  0.4416  0.9244
 8457SOL    HW226206   0.657   0.301   3.574 -2.5082 -0.9156 -4.5341
 8458SOL     OW26207   7.083   4.819   7.662 -0.2209 -0.2396  0.3238
 8458SOL    HW126208   7.119   4.881   7.598 -2.0298  0.9778  0.3853
 8458SOL    HW226209   7.128   4.839   7.743  1.2585 -1.0000 -0.2698
 8459SOL     OW26210   0.853   0.140   1.111 -0.3833 -0.5034  0.2086
 8459SOL    HW126211   0.889   0.060   1.150 -0.2064 -0.9387 -0.8043
 8459SOL    HW226212   0.780   0.164   1.168  0.8386 -0.1863  1.7277
 8460SOL     OW26213   5.232   6.693   7.323  0.4437  0.2222 -0.4511
 8460SOL    HW126214   5.315   6.645   7.329  0.6958  0.5295 -1.3309
 8460SOL    HW226215   5.187   6.673   7.405  0.7618 -1.1015 -0.5668
 8461SOL     OW26216   6.235   3.004   0.385 -0.2613 -0.2112 -0.1959
 8461SOL    HW126217   6.235   3.094   0.419  0.5303 -0.0350 -0.6389
 8461SOL    HW226218   6.324   2.972   0.401 -0.7108 -1.1487  0.5301
 8462SOL     OW26219   0.815   6.013   2.869 -0.4950  0.5348  0.8657
 8462SOL    HW126220   0.870   6.080   2.910  1.3804  0.7948 -1.7447
 8462SOL    HW226221   0.875   5.967   2.809 -2.4859 -1.2377  0.1060
 8463SOL     OW26222   6.702   0.643   2.204 -0.1800 -0.2617  0.2711
 8463SOL    HW126223   6.638   0.711   2.222 -0.8095 -1.1671  1.6864
 8463SOL    HW226224   6.721   0.604   2.290  0.9316 -1.1844 -0.3505
 8464SOL     OW26225   1.760   1.463   7.306 -0.3640  0.3935 -0.3367
 8464SOL    HW126226   1.697   1.489   7.373 -1.3240 -2.5677  0.0595
 8464SOL    HW226227   1.833   1.426   7.355 -0.1925 -0.0178 -0.8924
 8465SOL     OW26228   3.242   3.364   1.050 -0.7543 -0.1828 -0.0368
 8465SOL    HW126229   3.309   3.314   1.096 -0.5880 -0.8994 -1.0057
 8465SOL    HW226230   3.255   3.341   0.958 -2.0647 -0.0097 -0.2856
 8466SOL     OW26231   5.009   1.930   4.720  0.1448  0.0648  0.1189
 8466SOL    HW126232   5.053   1.907   4.802 -1.2830 -1.4515  0.5012
 8466SOL    HW226233   5.078   1.924   4.654  1.2441  0.9772  1.1250
 8467SOL     OW26234   4.551   0.454   4.760  0.1270  0.1485 -0.1499
 8467SOL    HW126235   4.614   0.434   4.690 -0.0348 -2.3631  0.3489
 8467SOL    HW226236   4.603   0.499   4.826  1.0388 -0.3914 -0.4758
 8468SOL     OW26237   4.422   1.140   5.419  0.1490  0.1967  0.4362
 8468SOL    HW126238   4.459   1.212   5.368 -0.6212 -0.4434 -1.0953
 8468SOL    HW226239   4.493   1.077   5.427  0.0212 -0.1217 -0.7158
 8469SOL     OW26240   1.805   6.560   7.007 -0.2303  0.2957 -0.2408
 8469SOL    HW126241   1.742   6.623   6.972  0.7680  2.7845  2.0726
 8469SOL    HW226242   1.868   6.613   7.055  1.7198 -2.3789  0.4024
 8470SOL     OW26243   4.051   6.999   2.809  0.1891  0.6469 -0.0809
 8470SOL    HW126244   4.123   6.938   2.824  0.8485  1.5530  0.4699
 8470SOL    HW226245   4.081   7.055   2.738 -0.4188  0.3501 -0.5859
 8471SOL     OW26246   0.628   3.431   3.317  0.0726  0.5357 -0.3104
 8471SOL    HW126247   0.548   3.458   3.273 -1.8780 -0.3776  2.4515
 8471SOL    HW226248   0.669   3.513   3.344 -0.6425  0.9829 -0.5516
 8472SOL     OW26249   6.130   3.899   3.522  0.1973  0.1556  0.0128
 8472SOL    HW126250   6.167   3.898   3.611  0.9336 -2.0897 -0.2532
 8472SOL    HW226251   6.036   3.886   3.535  0.3855 -0.8449  0.4675
 8473SOL     OW26252   7.155   3.436   7.588 -0.2641 -0.0912 -0.3737
 8473SOL    HW126253   7.060   3.424   7.599 -0.3441  0.9711  0.3015
 8473SOL    HW226254   7.194   3.369   7.645 -0.6316  0.1759  0.2079
 8474SOL     OW26255   1.501   6.292   4.459 -0.2026  0.6042 -0.1421
 8474SOL    HW126256   1.594   6.312   4.472 -0.1527  2.3290 -2.5578
 8474SOL    HW226257   1.499   6.237   4.381 -1.1291 -1.0280  0.9807
 8475SOL     OW26258   0.535   7.762   4.388  0.3820 -0.0680  0.3072
 8475SOL    HW126259   0.624   7.736   4.363  0.3210  1.4153 -1.7237
 8475SOL    HW226260   0.548   7.830   4.455  0.8138  0.5773 -0.4198
 8476SOL     OW26261   4.870   4.357   1.991 -0.0324  0.1893  0.3617
 8476SOL    HW126262   4.931   4.356   2.065 -0.7215  2.9444  1.0536
 8476SOL    HW226263   4.792   4.311   2.024  0.5119 -0.6446  0.5200
 8477SOL     OW26264   5.893   5.733   4.329 -0.4917  0.3398 -0.2426
 8477SOL    HW126265   5.868   5.719   4.420 -0.5703  0.5793 -0.2272
 8477SOL    HW226266   5.982   5.697   4.323 -0.4231  0.4714 -0.0331
 8478SOL     OW26267   2.882   5.550   0.269  0.1208 -0.5987 -0.0277
 8478SOL    HW126268   2.890   5.598   0.352  0.3848  0.1798 -0.4880
 8478SOL    HW226269   2.789   5.558   0.246  0.2036 -0.1032 -0.2113
 8479SOL     OW26270   0.179   6.921   4.785  0.3341  0.0089  0.2081
 8479SOL    HW126271   0.235   6.993   4.756  1.0687 -0.4353  0.4977
 8479SOL    HW226272   0.093   6.961   4.797  0.5224  0.6480 -0.4962
 8480SOL     OW26273   4.484   4.651   4.320  0.0320  0.0377 -0.4306
 8480SOL    HW126274   4.577   4.669   4.337 -0.7783  2.5719  2.0806
 8480SOL    HW226275   4.470   4.563   4.355  1.3476 -0.1386 -0.3013
 8481SOL     OW26276   7.591   6.076   4.769  0.6719 -0.0327 -0.6371
 8481SOL    HW126277   7.606   5.984   4.747 -2.6694 -0.8697  0.0666
 8481SOL    HW226278   7.638   6.088   4.851  0.6023 -1.3239 -0.3775
 8482SOL     OW26279   6.801   0.314   4.789  0.1688  0.2970  0.1642
 8482SOL    HW126280   6.803   0.399   4.833 -0.4551  0.8645 -0.8696
 8482SOL    HW226281   6.888   0.276   4.806  0.8560  1.6149 -0.2878
 8483SOL     OW26282   7.173   6.959   3.590  0.2751  0.0549 -0.0346
 8483SOL    HW126283   7.176   6.908   3.671 -1.3620  1.3315  0.8796
 8483SOL    HW226284   7.178   7.050   3.619  0.3683  0.5154 -1.4300
 8484SOL     OW26285   5.752   4.981   3.116  0.4231 -0.0502 -0.4229
 8484SOL    HW126286   5.790   5.060   3.156  0.9304 -0.1467 -0.7084
 8484SOL    HW226287   5.676   5.014   3.067  0.0516  0.1257  0.2532
 8485SOL     OW26288   1.030   6.500   4.979  0.4289 -0.4298  0.0484
 8485SOL    HW126289   1.010   6.591   4.955 -0.9649  0.0703  2.6780
 8485SOL    HW226290   1.078   6.466   4.904  0.3742  2.2477 -1.3559
 8486SOL     OW26291   1.141   3.428   7.101 -0.2463  0.1691  0.3111
 8486SOL    HW126292   1.214   3.386   7.147  1.1306  1.9446 -0.1226
 8486SOL    HW226293   1.182   3.502   7.055 -2.2628  0.9399 -0.3369
 8487SOL     OW26294   1.866   1.073   4.319 -0.3310 -0.3452 -0.1094
 8487SOL    HW126295   1.945   1.019   4.319 -1.2964 -1.8309 -1.5302
 8487SOL    HW226296   1.871   1.123   4.238 -1.6916 -1.8462 -1.1902
 8488SOL     OW26297   0.274   7.773   2.751  0.4008 -0.1871  0.0802
 8488SOL    HW126298   0.237   7.707   2.810 -0.5688  0.3123  0.0605
 8488SOL    HW226299   0.216   7.849   2.761  1.2837  0.5334 -0.1694
 8489SOL     OW26300   5.968   5.685   1.875  0.0600  0.1622 -0.7246
 8489SOL    HW126301   6.030   5.657   1.941  0.7865 -0.8869 -1.8110
 8489SOL    HW226302   5.903   5.736   1.923  1.1406  0.3330  0.6107
 8490SOL     OW26303   1.283   5.233   0.533  1.0310 -0.2133  0.1619
 8490SOL    HW126304   1.239   5.236   0.448 -0.6059 -0.0457  0.9663
 8490SOL    HW226305   1.354   5.296   0.525  0.5002  0.2819 -0.8815
 8491SOL     OW26306   2.072   2.570   1.561  0.0375  0.2057  0.3638
 8491SOL    HW126307   2.014   2.495   1.548  0.5167 -0.1402  0.1987
 8491SOL    HW226308   2.152   2.532   1.596  0.2397  0.6561  0.3900
 8492SOL     OW26309   7.211   5.260   0.225 -0.4342  0.3148 -0.0020
 8492SOL    HW126310   7.291   5.305   0.252  0.1032  0.7623 -2.1237
 8492SOL    HW226311   7.206   5.184   0.282  1.1371  0.6463  0.6356
 8493SOL     OW26312   3.050   2.790   6.112 -0.2838  0.2137 -0.3160
 8493SOL    HW126313   3.100   2.825   6.038  1.6201  2.4065  1.8208
 8493SOL    HW226314   3.008   2.867   6.151  1.2170 -0.2973  2.5814
 8494SOL     OW26315   5.429   6.236   4.755  0.2712  0.4691 -0.1683
 8494SOL    HW126316   5.357   6.189   4.712 -0.8882  3.1547 -1.3630
 8494SOL    HW226317   5.388   6.278   4.831  1.3083 -0.4333  0.9336
 8495SOL     OW26318   2.015   3.588   1.799  0.3050 -0.0353  0.1612
 8495SOL    HW126319   2.074   3.551   1.865 -1.7776 -2.7878  0.6552
 8495SOL    HW226320   1.954   3.642   1.848 -0.2783 -0.8068  0.3004
 8496SOL     OW26321   4.597   2.242   6.132  0.8622  0.2021 -0.5108
 8496SOL    HW126322   4.605   2.260   6.038  1.0243  0.2819 -0.4815
 8496SOL    HW226323   4.548   2.160   6.137  1.1087  0.0430 -0.6728
 8497SOL     OW26324   5.925   7.338   6.670 -0.0399  0.2486  0.0826
 8497SOL    HW126325   5.901   7.308   6.582 -0.5369  0.4806  0.1334
 8497SOL    HW226326   5.949   7.430   6.658  0.8045  0.0359  0.0410
 8498SOL     OW26327   0.512   5.826   4.703 -0.3552  0.0740  0.2153
 8498SOL    HW126328   0.506   5.921   4.693  0.2659  0.1014  0.0995
 8498SOL    HW226329   0.502   5.811   4.797  2.1081  0.4726  0.6057
 8499SOL     OW26330   6.086   3.950   2.956  0.2871  0.1140  0.4321
 8499SOL    HW126331   6.079   3.897   2.876  0.4366  0.2494  0.3268
 8499SOL    HW226332   5.996   3.963   2.984  0.2433 -0.0854  0.3848
 8500SOL     OW26333   2.720   0.481   3.885 -0.3454 -0.4143 -0.3808
 8500SOL    HW126334   2.709   0.397   3.842 -2.1662 -0.2907 -0.2252
 8500SOL    HW226335   2.658   0.539   3.841 -0.5139  0.3309  0.8053
 8501SOL     OW26336   1.848   1.875   0.612  0.3778  0.3704 -0.2228
 8501SOL    HW126337   1.920   1.817   0.588  1.3418  1.1256  0.7559
 8501SOL    HW226338   1.770   1.835   0.572  1.0988 -1.2335 -0.0890
 8502SOL     OW26339   3.259   3.966   3.399 -0.0242 -0.1192  0.8291
 8502SOL    HW126340   3.319   3.896   3.373 -1.4308 -2.6554  3.7814
 8502SOL    HW226341   3.201   3.978   3.324  1.5938 -0.4788 -0.5458
 8503SOL     OW26342   7.204   5.913   3.460  0.0846 -0.3211  0.3561
 8503SOL    HW126343   7.250   5.995   3.480 -0.3917  0.0224  0.0602
 8503SOL    HW226344   7.265   5.865   3.404  0.1836  0.0303  0.1549
 8504SOL     OW26345   4.586   6.131   5.285  0.5480  0.5766  0.0391
 8504SOL    HW126346   4.508   6.180   5.310 -0.0460  1.3519 -2.9825
 8504SOL    HW226347   4.566   6.040   5.307 -1.8261  0.5532 -1.8738
 8505SOL     OW26348   3.534   2.711   1.276 -0.5456  0.2188 -0.0069
 8505SOL    HW126349   3.624   2.701   1.309 -0.3483  0.8894 -0.3300
 8505SOL    HW226350   3.544   2.752   1.191 -1.2803  3.2619  1.2624
 8506SOL     OW26351   5.276   3.993   2.857 -0.0705  0.0572 -0.4485
 8506SOL    HW126352   5.354   4.020   2.809 -1.4322  1.9630 -1.7589
 8506SOL    HW226353   5.203   4.020   2.801 -1.6892 -0.6756  1.2062
 8507SOL     OW26354   1.269   3.417   5.052  0.5777 -0.0240  0.0438
 8507SOL    HW126355   1.227   3.393   5.135  1.0127 -1.1577 -0.0500
 8507SOL    HW226356   1.270   3.336   5.001 -0.0888  0.7597 -1.2582
 8508SOL     OW26357   5.212   2.696   6.243  0.4157 -0.3440  0.0944
 8508SOL    HW126358   5.143   2.665   6.184  0.2466  0.9904 -0.4301
 8508SOL    HW226359   5.292   2.689   6.191  0.4666 -0.5081  0.1958
 8509SOL     OW26360   0.657   2.205   1.468 -0.2752  0.2980  0.0682
 8509SOL    HW126361   0.621   2.293   1.480  2.8897  1.8048 -0.5686
 8509SOL    HW226362   0.580   2.151   1.449 -2.4336  2.7293  1.2232
 8510SOL     OW26363   4.061   3.347   5.478  0.0733  0.2607  0.4190
 8510SOL    HW126364   4.013   3.290   5.418  0.6985 -2.0167  1.9134
 8510SOL    HW226365   4.026   3.434   5.462 -0.0642 -0.2770 -2.9043
 8511SOL     OW26366   6.707   1.752   1.447 -0.3545 -0.3384  0.0813
 8511SOL    HW126367   6.766   1.793   1.510 -1.2206  1.1090 -0.0263
 8511SOL    HW226368   6.661   1.685   1.498  0.8562 -1.0406  0.3181
 8512SOL     OW26369   1.734   6.310   7.610 -0.4963  0.1289 -0.6518
 8512SOL    HW126370   1.720   6.377   7.677  2.1214 -0.5071  0.6351
 8512SOL    HW226371   1.795   6.351   7.548  0.3371 -0.6858 -0.3886
 8513SOL     OW26372   6.325   2.665   5.801 -0.0768 -0.6142  0.0620
 8513SOL    HW126373   6.365   2.631   5.881 -1.1824  1.1884  1.4664
 8513SOL    HW226374   6.393   2.721   5.762 -0.2335  0.2223  0.9395
 8514SOL     OW26375   3.747   2.353   2.093 -0.4687 -0.3357 -0.3201
 8514SOL    HW126376   3.742   2.358   1.997 -2.5688  0.0751 -0.2323
 8514SOL    HW226377   3.663   2.386   2.123  0.8085  1.3081  1.7600
 8515SOL     OW26378   4.772   0.042   3.185 -0.5918  0.5394  0.5448
 8515SOL    HW126379   4.772   0.100   3.109 -2.0893  2.2923  1.8206
 8515SOL    HW226380   4.859   0.053   3.223 -0.1198  0.2674 -0.4043
 8516SOL     OW26381   7.211   2.186   6.156 -0.0681  0.1108 -0.3401
 8516SOL    HW126382   7.157   2.252   6.113 -0.1306 -0.3186 -0.9382
 8516SOL    HW226383   7.167   2.169   6.239 -1.1550 -0.5990 -1.0380
 8517SOL     OW26384   2.831   2.996   1.675  0.0392  0.0341  0.3478
 8517SOL    HW126385   2.881   3.077   1.675 -0.6903  0.6404 -3.1699
 8517SOL    HW226386   2.743   3.022   1.704 -0.1824  0.5160 -0.7336
 8518SOL     OW26387   3.667   3.117   7.067  0.8514 -0.0925 -0.2557
 8518SOL    HW126388   3.677   3.120   7.162  2.0319  1.6974 -0.3919
 8518SOL    HW226389   3.756   3.117   7.033  0.4943  2.3057 -1.3772
 8519SOL     OW26390   3.115   2.230   5.699 -0.1137 -0.0596  0.3742
 8519SOL    HW126391   3.168   2.168   5.747 -0.1282 -0.0389  0.4165
 8519SOL    HW226392   3.144   2.221   5.608 -1.2686 -1.3361  0.0936
 8520SOL     OW26393   7.480   1.703   2.567  0.0311  0.9238  0.0872
 8520SOL    HW126394   7.496   1.789   2.528 -1.1541  0.2215 -2.1401
 8520SOL    HW226395   7.427   1.721   2.644 -0.5571  2.1868 -0.5731
 8521SOL     OW26396   7.318   3.257   7.741  0.5920 -0.6972 -0.9945
 8521SOL    HW126397   7.381   3.191   7.712  2.7843  1.5405 -1.6886
 8521SOL    HW226398   7.314   3.247   7.836 -0.6729 -3.0201 -1.2062
 8522SOL     OW26399   7.409   2.288   6.844  0.2069  0.7648  0.0834
 8522SOL    HW126400   7.402   2.347   6.769  0.3825 -2.2192 -2.4561
 8522SOL    HW226401   7.501   2.294   6.871  0.8642 -0.1390 -1.7973
 8523SOL     OW26402   0.249   7.366   4.632 -0.1621 -0.3234 -0.2503
 8523SOL    HW126403   0.270   7.435   4.569  0.3246 -1.0433 -0.8926
 8523SOL    HW226404   0.153   7.364   4.635 -0.1937 -0.4125 -1.1312
 8524SOL     OW26405   1.845   7.266   7.810  0.2514 -0.1968  0.5489
 8524SOL    HW126406   1.812   7.305   7.891 -0.3685  1.4305 -0.4469
 8524SOL    HW226407   1.854   7.173   7.831  2.0329  0.4476  3.0896
 8525SOL     OW26408   0.999   6.779   7.442 -0.4067  0.5941  0.0869
 8525SOL    HW126409   0.987   6.874   7.436  0.1055  0.6797  0.3250
 8525SOL    HW226410   1.094   6.767   7.436 -0.5360  0.0006 -1.1806
 8526SOL     OW26411   4.726   2.433   7.259  0.1272 -0.6614 -0.0324
 8526SOL    HW126412   4.799   2.430   7.197 -0.2309 -0.8863 -0.4450
 8526SOL    HW226413   4.670   2.360   7.234  1.5023 -2.7472  2.4803
 8527SOL     OW26414   7.703   3.845   4.509 -0.6742  1.0977  0.4413
 8527SOL    HW126415   7.751   3.923   4.482 -0.5231  1.3160  1.2958
 8527SOL    HW226416   7.677   3.802   4.427  1.6624  0.5301 -0.0662
 8528SOL     OW26417   0.033   2.661   2.162  0.2523  0.0816 -0.4424
 8528SOL    HW126418  -0.013   2.723   2.106  0.8692  0.1794 -0.8467
 8528SOL    HW226419  -0.006   2.576   2.141 -1.2263  0.4205  0.7588
 8529SOL     OW26420   6.525   7.355   6.346 -0.1632 -0.5476 -0.3281
 8529SOL    HW126421   6.499   7.263   6.352  0.3843 -0.7047 -0.3419
 8529SOL    HW226422   6.469   7.392   6.279  0.9471 -1.3477 -1.7462
 8530SOL     OW26423   6.060   6.363   0.396 -0.3266  0.1000 -0.2638
 8530SOL    HW126424   6.086   6.423   0.466 -0.8205  0.0399 -0.0253
 8530SOL    HW226425   6.066   6.276   0.435 -0.0408  0.0270 -0.4734
 8531SOL     OW26426   3.571   7.262   3.946  0.1315 -0.4504 -0.3235
 8531SOL    HW126427   3.529   7.341   3.980  0.5962  0.6123 -2.0643
 8531SOL    HW226428   3.649   7.250   3.999 -0.7919 -0.7191  1.0139
 8532SOL     OW26429   2.919   2.952   6.299 -0.3469 -0.3265 -0.3568
 8532SOL    HW126430   2.916   2.934   6.393 -0.8544 -0.1363 -0.3339
 8532SOL    HW226431   2.828   2.967   6.275  0.0128  2.2243 -0.3644
 8533SOL     OW26432   4.099   0.718   5.349  0.0601  0.5757 -0.1016
 8533SOL    HW126433   4.012   0.732   5.386 -0.5825  1.9565 -1.9503
 8533SOL    HW226434   4.158   0.767   5.407 -0.4274 -0.0040  0.9074
 8534SOL     OW26435   2.683   1.718   5.352  0.3737 -0.1721 -0.3675
 8534SOL    HW126436   2.591   1.734   5.369  1.0060  0.8520  2.7608
 8534SOL    HW226437   2.699   1.629   5.385  0.4659 -0.5206 -1.3032
 8535SOL     OW26438   3.233   0.258   7.480  0.6590  0.3181  0.4681
 8535SOL    HW126439   3.239   0.232   7.388  1.9355  0.8193  0.3923
 8535SOL    HW226440   3.278   0.188   7.528  0.9844  0.6125  0.5976
 8536SOL     OW26441   4.617   6.277   6.777 -0.5186 -0.0504 -0.1834
 8536SOL    HW126442   4.682   6.274   6.707  1.5393  0.5195  1.5960
 8536SOL    HW226443   4.585   6.187   6.784  1.2440 -0.7011 -0.1003
 8537SOL     OW26444   6.404   5.942   4.678 -0.2542  0.3004 -0.2319
 8537SOL    HW126445   6.430   5.948   4.586 -1.9105 -1.3293 -0.8702
 8537SOL    HW226446   6.484   5.963   4.727  1.2345 -0.7902 -2.0478
 8538SOL     OW26447   5.559   6.372   0.016 -0.0573  0.3643  0.1454
 8538SOL    HW126448   5.512   6.435   0.071  0.6267 -0.8460  2.2592
 8538SOL    HW226449   5.623   6.333   0.076  3.3140  1.5077 -2.4009
 8539SOL     OW26450   0.107   4.736   6.164 -0.1323 -0.4982 -0.0598
 8539SOL    HW126451   0.078   4.815   6.210 -0.4044  0.5703 -1.9661
 8539SOL    HW226452   0.202   4.735   6.176 -0.2159 -0.3556  0.6745
 8540SOL     OW26453   0.828   3.650   7.642 -1.1032 -0.3303 -0.1026
 8540SOL    HW126454   0.750   3.701   7.618 -1.0192 -0.7284 -1.3190
 8540SOL    HW226455   0.869   3.629   7.558  0.2505 -0.2468  0.5129
 8541SOL     OW26456   7.296   1.943   7.465  0.2141 -0.1829 -0.2062
 8541SOL    HW126457   7.222   2.002   7.476 -0.2650 -0.7214 -0.4588
 8541SOL    HW226458   7.257   1.862   7.432  1.0827 -0.0274 -1.6803
 8542SOL     OW26459   6.981   5.364   4.525 -0.3954 -0.2352 -0.0532
 8542SOL    HW126460   7.059   5.324   4.563 -0.3409 -0.2618 -0.1923
 8542SOL    HW226461   6.960   5.438   4.583 -0.0160  0.0335 -0.2554
 8543SOL     OW26462   3.648   4.084   4.887 -0.8642 -0.3319  0.3627
 8543SOL    HW126463   3.559   4.066   4.857 -1.4397 -0.5843  2.1170
 8543SOL    HW226464   3.649   4.054   4.977  0.8718  0.1307  0.5263
 8544SOL     OW26465   2.642   6.532   2.152 -0.1294 -0.1440 -0.0472
 8544SOL    HW126466   2.549   6.541   2.136 -0.0948 -0.1169 -0.2303
 8544SOL    HW226467   2.655   6.572   2.239 -0.5943 -1.8822  0.8716
 8545SOL     OW26468   6.867   5.611   6.114  0.5320  0.0132  0.0080
 8545SOL    HW126469   6.943   5.658   6.081 -0.1236  1.1631  0.0426
 8545SOL    HW226470   6.812   5.596   6.037 -0.3723  1.5040  0.2994
 8546SOL     OW26471   5.085   4.680   7.364  0.3083  0.1898 -0.1974
 8546SOL    HW126472   5.078   4.586   7.380 -0.2850  0.2615  0.0076
 8546SOL    HW226473   5.109   4.717   7.449 -2.0179  0.4818  0.4161
 8547SOL     OW26474   5.010   7.499   2.274 -0.0368  0.8402  0.3627
 8547SOL    HW126475   5.036   7.430   2.334 -1.0415  0.2611  0.1646
 8547SOL    HW226476   5.090   7.546   2.254  0.8882 -0.9646 -0.3752
 8548SOL     OW26477   1.046   5.162   5.030 -0.0679  0.6201 -0.3107
 8548SOL    HW126478   1.055   5.153   5.125  0.4304  0.7367 -0.3465
 8548SOL    HW226479   1.040   5.257   5.016  0.3489  0.6280 -0.4382
 8549SOL     OW26480   6.818   6.205   7.657 -0.1640  0.1810  0.2550
 8549SOL    HW126481   6.741   6.237   7.705 -1.2576  0.9529 -1.9037
 8549SOL    HW226482   6.800   6.113   7.639 -0.3055  0.2114  0.2463
 8550SOL     OW26483   5.859   7.134   6.874 -0.0869  0.5399 -0.3393
 8550SOL    HW126484   5.888   7.198   6.810  0.6684  0.1641 -0.3832
 8550SOL    HW226485   5.929   7.130   6.938  0.8565 -1.6756 -1.3872
 8551SOL     OW26486   2.539   0.871   1.695  0.1521 -0.1572  0.3204
 8551SOL    HW126487   2.501   0.938   1.752  0.4438  0.1292  0.1780
 8551SOL    HW226488   2.531   0.790   1.745  1.0695  0.2052  1.0766
 8552SOL     OW26489   5.804   1.714   3.030  0.6198  0.4259  0.3698
 8552SOL    HW126490   5.743   1.668   3.088  0.4554  2.2456  1.7536
 8552SOL    HW226491   5.747   1.757   2.966  0.7904 -1.4380 -1.1023
 8553SOL     OW26492   5.116   0.773   7.328  0.1861 -0.1524  0.1721
 8553SOL    HW126493   5.170   0.852   7.330  0.1496 -0.0486 -1.7145
 8553SOL    HW226494   5.062   0.782   7.250  0.3576 -2.1600 -0.2300
 8554SOL     OW26495   4.334   6.361   1.510  0.1287 -0.2988  0.0012
 8554SOL    HW126496   4.267   6.382   1.575  0.1415 -0.4837  0.0743
 8554SOL    HW226497   4.330   6.434   1.448  0.3902  0.0810  0.4220
 8555SOL     OW26498   5.111   2.930   1.637 -0.5487  0.3530 -0.4359
 8555SOL    HW126499   5.068   2.885   1.711  0.3773  2.2043  1.3303
 8555SOL    HW226500   5.047   2.924   1.566 -2.0285 -0.4579  0.8732
 8556SOL     OW26501   1.770   5.756   7.067 -0.0340  0.5925 -0.7172
 8556SOL    HW126502   1.678   5.733   7.068 -0.0020  0.4677 -0.6054
 8556SOL    HW226503   1.815   5.678   7.101  0.1038  0.6879 -0.6800
 8557SOL     OW26504   7.285   2.281   5.607  0.1630  0.1025 -0.1967
 8557SOL    HW126505   7.344   2.279   5.682 -0.3732 -0.0357  0.2276
 8557SOL    HW226506   7.198   2.268   5.644 -0.3866  2.3519 -0.5610
 8558SOL     OW26507   2.988   3.109   4.853 -0.1233  0.4484  0.0492
 8558SOL    HW126508   2.914   3.107   4.914 -0.4094  0.9327 -0.2650
 8558SOL    HW226509   2.997   3.019   4.823  0.5902  0.0252  1.4568
 8559SOL     OW26510   5.627   1.358   3.799  0.3993 -0.4874 -0.2112
 8559SOL    HW126511   5.674   1.370   3.882 -3.0527 -0.4238  1.9615
 8559SOL    HW226512   5.566   1.285   3.817 -1.6068  0.6074 -2.0980
 8560SOL     OW26513   3.916   7.083   5.243  0.0019  0.1934 -0.4380
 8560SOL    HW126514   3.896   7.050   5.155 -1.1005  2.1544 -0.9832
 8560SOL    HW226515   3.832   7.115   5.276  0.9097  2.0899  0.1583
 8561SOL     OW26516   4.160   0.250   4.421 -0.1171  0.2515 -0.5772
 8561SOL    HW126517   4.243   0.209   4.446 -0.2710  1.7764  3.1360
 8561SOL    HW226518   4.094   0.200   4.470 -0.7305  2.2304  0.7248
 8562SOL     OW26519   1.162   0.596   1.487 -0.4764  0.1448  0.4578
 8562SOL    HW126520   1.102   0.606   1.413 -0.9288 -1.0242  0.6466
 8562SOL    HW226521   1.194   0.684   1.504  1.8204  0.1097 -2.9234
 8563SOL     OW26522   1.306   3.615   3.431  0.1339  0.4925 -0.0397
 8563SOL    HW126523   1.358   3.551   3.479  1.2582  1.9142  0.7049
 8563SOL    HW226524   1.215   3.592   3.451  0.5356 -0.4403  0.7734
 8564SOL     OW26525   2.979   4.711   1.113 -0.4067 -0.1238  0.0342
 8564SOL    HW126526   2.984   4.630   1.164  0.2852 -0.4877 -0.5941
 8564SOL    HW226527   3.063   4.716   1.066 -1.0950  0.0667 -1.2409
 8565SOL     OW26528   2.119   1.667   1.236  0.2264 -0.3885  0.1066
 8565SOL    HW126529   2.024   1.669   1.249  0.2614 -0.2992  0.3567
 8565SOL    HW226530   2.140   1.575   1.225 -0.0458 -0.3216 -1.1517
 8566SOL     OW26531   7.578   2.979   0.768 -0.2807 -0.1081 -0.2118
 8566SOL    HW126532   7.652   2.925   0.796 -0.5175  0.1922  1.0786
 8566SOL    HW226533   7.537   2.929   0.697  0.2371 -1.0272  0.1214
 8567SOL     OW26534   6.372   0.921   1.993  0.2311 -0.8230 -0.2414
 8567SOL    HW126535   6.311   0.896   1.923 -0.3554 -0.2860  0.0644
 8567SOL    HW226536   6.458   0.923   1.951  0.0489 -1.6686 -0.6605
 8568SOL     OW26537   2.967   4.248   2.895  0.0678  0.3568 -0.0936
 8568SOL    HW126538   2.949   4.176   2.834  0.6817  0.9206 -0.9525
 8568SOL    HW226539   2.881   4.272   2.929 -0.1850 -0.5454 -0.0543
 8569SOL     OW26540   7.724   1.271   0.352  0.1206 -0.5997  0.2553
 8569SOL    HW126541   7.784   1.265   0.277 -0.5836 -0.5415 -0.3193
 8569SOL    HW226542   7.747   1.354   0.394  2.6777 -2.0274  2.0150
 8570SOL     OW26543   2.785   4.667   7.848 -0.4842  0.0545  0.8279
 8570SOL    HW126544   2.829   4.606   7.907  0.2047  0.9371  1.2413
 8570SOL    HW226545   2.713   4.703   7.900 -0.1381  0.5110  0.9966
 8571SOL     OW26546   4.959   3.750   2.968  0.4593  0.0021 -0.2574
 8571SOL    HW126547   4.929   3.659   2.977  1.7353 -0.4275 -0.1147
 8571SOL    HW226548   4.981   3.759   2.875  1.6896 -0.2873 -0.0020
 8572SOL     OW26549   1.042   4.782   5.536 -0.1025  0.1211  0.4087
 8572SOL    HW126550   0.966   4.735   5.570 -0.2143  0.1151  0.1564
 8572SOL    HW226551   1.103   4.713   5.510  0.4250  0.1370  1.5769
 8573SOL     OW26552   2.082   7.688   1.562  0.6520 -0.0166 -0.1154
 8573SOL    HW126553   2.114   7.669   1.474  0.9909 -0.1464  0.0346
 8573SOL    HW226554   2.155   7.732   1.606  0.2829  0.5845 -0.0819
 8574SOL     OW26555   3.363   3.688   5.410  0.6011 -0.3958  0.3536
 8574SOL    HW126556   3.387   3.649   5.326  1.1303  1.9890 -0.6870
 8574SOL    HW226557   3.267   3.696   5.405  0.5562 -0.9042  0.2983
 8575SOL     OW26558   4.338   5.284   6.994 -0.9249 -0.1671 -0.4103
 8575SOL    HW126559   4.357   5.192   6.971 -1.9124 -0.2305 -1.0215
 8575SOL    HW226560   4.397   5.335   6.938 -0.6123 -0.4237 -0.3165
 8576SOL     OW26561   0.935   5.524   0.281  0.1970 -0.6335  0.5524
 8576SOL    HW126562   0.874   5.579   0.231  0.6357 -1.4624 -0.9310
 8576SOL    HW226563   0.937   5.565   0.367 -3.0582 -0.9908  0.9485
 8577SOL     OW26564   3.618   3.259   7.696  0.4436  0.3493  0.1404
 8577SOL    HW126565   3.684   3.303   7.641  0.2716  1.0003  0.4557
 8577SOL    HW226566   3.598   3.322   7.765  1.9346 -1.0929  1.9890
 8578SOL     OW26567   4.089   3.508   3.249 -0.9983 -0.1497 -0.3517
 8578SOL    HW126568   4.078   3.545   3.162 -1.9685  0.8821  0.1875
 8578SOL    HW226569   4.080   3.582   3.309 -1.6435 -1.0421  0.6946
 8579SOL     OW26570   6.624   6.589   3.241 -0.7183 -0.1746 -0.1268
 8579SOL    HW126571   6.687   6.615   3.174  2.1551 -1.2762  1.9685
 8579SOL    HW226572   6.598   6.501   3.216 -0.4999 -0.1771 -0.3571
 8580SOL     OW26573   4.188   0.126   6.655  0.2546 -0.0930 -1.1076
 8580SOL    HW126574   4.221   0.069   6.725 -0.4551 -0.3812 -1.0002
 8580SOL    HW226575   4.164   0.207   6.700 -1.3981 -0.7288 -0.7936
 8581SOL     OW26576   0.469   0.240   7.858  0.4844 -0.0697 -0.3144
 8581SOL    HW126577   0.542   0.186   7.825  0.6110 -0.6090  0.8077
 8581SOL    HW226578   0.411   0.177   7.902 -0.2518  0.4771 -0.4869
 8582SOL     OW26579   2.364   7.584   4.865 -0.2419  0.3581 -0.4792
 8582SOL    HW126580   2.433   7.519   4.879 -1.1764 -0.4948  0.2845
 8582SOL    HW226581   2.407   7.654   4.817  0.9074 -0.6167 -0.9232
 8583SOL     OW26582   1.525   6.161   3.053  0.2339 -0.1272  0.2062
 8583SOL    HW126583   1.572   6.079   3.042 -0.3031 -0.5663  1.0410
 8583SOL    HW226584   1.450   6.138   3.108 -2.2637  0.0549 -2.8505
 8584SOL     OW26585   5.351   6.029   7.728 -0.1166  0.0935 -0.6103
 8584SOL    HW126586   5.318   6.013   7.816  0.9403  0.7951 -0.0621
 8584SOL    HW226587   5.320   5.955   7.676 -2.0933  0.4715 -0.0408
 8585SOL     OW26588   3.953   0.522   1.008  0.1195  0.0775 -0.2627
 8585SOL    HW126589   4.009   0.524   1.086 -1.3757 -0.3515  0.8917
 8585SOL    HW226590   4.009   0.490   0.938  1.1666 -0.9086  0.9693
 8586SOL     OW26591   3.932   1.518   7.216  0.4001 -0.0250 -0.3785
 8586SOL    HW126592   4.013   1.568   7.206  0.6335 -0.2219  0.4703
 8586SOL    HW226593   3.886   1.561   7.289  0.3727 -0.7398  0.0360
 8587SOL     OW26594   5.651   4.902   4.485  0.0300 -0.4499  0.0657
 8587SOL    HW126595   5.605   4.934   4.562 -0.3029 -0.9560  0.0857
 8587SOL    HW226596   5.738   4.941   4.490 -0.0101 -0.4331  0.6600
 8588SOL     OW26597   2.183   5.438   6.444  0.5125  0.2241  0.1978
 8588SOL    HW126598   2.275   5.415   6.429  1.3291  2.3221  1.5690
 8588SOL    HW226599   2.169   5.517   6.393 -1.0570 -0.9316 -1.2700
 8589SOL     OW26600   4.388   7.113   0.963  0.0350 -0.0990  0.2278
 8589SOL    HW126601   4.453   7.129   1.032  0.5428  0.1139 -0.2969
 8589SOL    HW226602   4.319   7.063   1.007 -0.9400  2.2626  1.5796
 8590SOL     OW26603   0.168   4.989   5.643 -0.5860 -0.4573  0.1095
 8590SOL    HW126604   0.116   4.974   5.564 -0.1244  1.7429 -0.6754
 8590SOL    HW226605   0.113   4.957   5.715 -1.6947 -0.9990 -0.9472
 8591SOL     OW26606   4.482   2.874   5.796  0.4343 -0.4895 -0.4354
 8591SOL    HW126607   4.410   2.811   5.810 -0.1617  0.2324 -0.1593
 8591SOL    HW226608   4.450   2.955   5.835  1.2779 -0.0640 -0.6094
 8592SOL     OW26609   1.503   2.310   2.467 -0.4948  0.0692  0.4045
 8592SOL    HW126610   1.550   2.390   2.491 -1.3805  0.1799  1.9787
 8592SOL    HW226611   1.413   2.340   2.449 -0.5184 -0.4109 -0.3238
 8593SOL     OW26612   2.608   3.329   1.176  0.3351 -0.8952  0.2416
 8593SOL    HW126613   2.515   3.317   1.195  0.4764 -1.4114  0.6264
 8593SOL    HW226614   2.628   3.261   1.111  0.7175 -1.5769  1.0612
 8594SOL     OW26615   1.587   6.511   3.978 -0.8516  0.6455 -0.2073
 8594SOL    HW126616   1.639   6.443   4.019  0.2982  1.6778  0.0869
 8594SOL    HW226617   1.602   6.500   3.884  0.3886  1.2895 -0.1035
 8595SOL     OW26618   0.191   3.709   2.177  0.1924  0.0315 -0.1840
 8595SOL    HW126619   0.110   3.733   2.221 -0.0345 -1.3875  0.2239
 8595SOL    HW226620   0.245   3.670   2.246 -0.0422 -1.9266 -1.0443
 8596SOL     OW26621   3.963   1.655   6.788  0.3295  0.3796  0.1690
 8596SOL    HW126622   4.038   1.691   6.741  0.1650 -0.5699 -0.8451
 8596SOL    HW226623   3.998   1.582   6.838  0.0846 -0.0757 -0.3171
 8597SOL     OW26624   2.168   3.554   3.152  0.3632  0.2205 -0.1488
 8597SOL    HW126625   2.112   3.495   3.102 -3.0377  1.4535  1.8896
 8597SOL    HW226626   2.162   3.522   3.242  1.4073  1.5460  0.4295
 8598SOL     OW26627   7.087   1.407   0.116  0.3645 -0.0877 -0.0822
 8598SOL    HW126628   7.132   1.324   0.101 -3.2845 -2.0395 -1.4938
 8598SOL    HW226629   7.094   1.422   0.210  2.1405 -1.3252  0.0224
 8599SOL     OW26630   0.240   2.406   6.642 -0.1850  0.8005  0.1317
 8599SOL    HW126631   0.215   2.469   6.575  0.2030  0.9504  0.1264
 8599SOL    HW226632   0.307   2.451   6.693  1.1094 -0.0943 -0.7171
 8600SOL     OW26633   6.425   0.880   1.070  0.0497  0.4834 -0.1119
 8600SOL    HW126634   6.510   0.870   1.114 -0.5938  0.2687  1.1247
 8600SOL    HW226635   6.445   0.867   0.977  1.5936  1.8284 -0.0051
 8601SOL     OW26636   3.897   3.836   4.442 -0.2564  0.2677  0.9460
 8601SOL    HW126637   3.821   3.864   4.494 -1.3051 -0.9223  0.1175
 8601SOL    HW226638   3.964   3.902   4.460 -1.5631  1.4948  1.5221
 8602SOL     OW26639   7.610   7.760   7.301 -0.5697  0.1043  0.3516
 8602SOL    HW126640   7.572   7.688   7.351 -0.8871  0.6737  0.9270
 8602SOL    HW226641   7.678   7.796   7.358 -1.0886  0.9030  0.4664
 8603SOL     OW26642   5.186   6.667   0.863 -0.6163  0.1151  0.1796
 8603SOL    HW126643   5.201   6.578   0.895 -1.2474  0.1417  0.5794
 8603SOL    HW226644   5.091   6.678   0.869 -0.6425  0.4723 -0.7893
 8604SOL     OW26645   6.437   1.516   4.129 -0.1295  0.5461 -0.7000
 8604SOL    HW126646   6.518   1.504   4.179 -1.3287 -0.1196  1.1680
 8604SOL    HW226647   6.423   1.610   4.128 -0.1115  0.5743  0.3302
 8605SOL     OW26648   1.000   7.862   3.241 -0.0808  0.0770 -0.2678
 8605SOL    HW126649   0.917   7.890   3.279  0.6747 -1.2658  2.6969
 8605SOL    HW226650   1.066   7.910   3.291  0.9664 -0.7650 -0.7977
 8606SOL     OW26651   7.168   3.938   4.890 -0.0720 -0.6368 -0.4941
 8606SOL    HW126652   7.170   4.025   4.849 -1.0188  0.0197  0.7940
 8606SOL    HW226653   7.139   3.879   4.820 -0.3992  0.2351 -1.1114
 8607SOL     OW26654   6.937   5.940   4.846  0.0691  0.3922  0.0954
 8607SOL    HW126655   6.870   5.994   4.805  0.0179  0.3872  0.1713
 8607SOL    HW226656   6.992   5.909   4.774 -0.6676 -0.5197 -0.0989
 8608SOL     OW26657   7.009   5.590   5.312  0.2638  0.3860  0.3598
 8608SOL    HW126658   7.000   5.686   5.313  0.2513  0.3910 -0.0633
 8608SOL    HW226659   6.919   5.558   5.308  0.3011  0.3862 -0.8924
 8609SOL     OW26660   4.986   0.204   4.515 -0.1457  0.6063  0.5442
 8609SOL    HW126661   4.920   0.210   4.446 -1.0640  0.7075  1.4045
 8609SOL    HW226662   5.068   0.189   4.469 -1.0628 -1.7916 -0.4445
 8610SOL     OW26663   2.464   5.467   3.780 -0.5561 -0.3753 -0.6856
 8610SOL    HW126664   2.515   5.416   3.716 -1.6248 -0.0971 -1.7950
 8610SOL    HW226665   2.493   5.557   3.766  0.3242 -0.4839  0.3160
 8611SOL     OW26666   3.002   2.692   4.662 -0.2242 -0.3477  0.3914
 8611SOL    HW126667   2.996   2.632   4.587 -0.2553 -1.3896  1.1995
 8611SOL    HW226668   3.094   2.691   4.686  0.0634  1.1458 -0.5207
 8612SOL     OW26669   1.199   5.742   6.328 -0.0712 -0.3526 -0.2175
 8612SOL    HW126670   1.132   5.810   6.320  0.3148 -0.0238 -0.6731
 8612SOL    HW226671   1.281   5.790   6.335  0.4343 -0.7656 -2.5034
 8613SOL     OW26672   3.484   5.156   3.958 -0.4165  0.2880  0.2682
 8613SOL    HW126673   3.499   5.217   3.886 -1.0547  0.1846  0.0409
 8613SOL    HW226674   3.414   5.196   4.009 -0.6264 -0.0992  0.2883
 8614SOL     OW26675   4.874   1.078   5.791  0.2673 -0.2247 -0.2708
 8614SOL    HW126676   4.904   1.091   5.881  2.1519 -1.7756 -0.6058
 8614SOL    HW226677   4.949   1.104   5.737 -0.2195 -0.9274 -1.3141
 8615SOL     OW26678   5.409   4.325   4.442 -0.2411 -0.2037 -0.0635
 8615SOL    HW126679   5.448   4.242   4.468 -0.6967 -0.5112 -0.3431
 8615SOL    HW226680   5.333   4.335   4.499  0.2482  0.4049  0.4986
 8616SOL     OW26681   7.018   1.883   1.163 -0.0479  0.1601  0.6883
 8616SOL    HW126682   7.046   1.798   1.198 -0.2975 -0.3668 -0.3406
 8616SOL    HW226683   7.064   1.948   1.217  3.6256 -0.6478 -1.1539
 8617SOL     OW26684   0.194   6.912   4.120  0.5312  0.8272  0.4809
 8617SOL    HW126685   0.121   6.864   4.159  1.0250 -1.1479 -0.8667
 8617SOL    HW226686   0.224   6.972   4.189 -1.3313  0.5516  1.5843
 8618SOL     OW26687   6.072   3.845   7.445  0.2446 -0.0062  0.1037
 8618SOL    HW126688   6.067   3.754   7.473  0.0508  0.2190  0.8366
 8618SOL    HW226689   6.099   3.841   7.354  1.7446 -0.7462  0.5556
 8619SOL     OW26690   5.986   3.960   6.421  0.1111  0.2574  0.1097
 8619SOL    HW126691   5.972   3.891   6.486 -0.9037  0.3945  0.0496
 8619SOL    HW226692   6.030   3.916   6.349 -1.0287 -0.4687 -0.1658
 8620SOL     OW26693   3.408   1.835   0.076  0.0254  0.0365 -0.1729
 8620SOL    HW126694   3.354   1.900   0.121 -1.1547 -1.0469  0.0421
 8620SOL    HW226695   3.491   1.835   0.123 -0.1900  0.9414  0.2169
 8621SOL     OW26696   1.688   4.780   2.490  0.1558  0.3076  0.0358
 8621SOL    HW126697   1.619   4.714   2.492 -0.2684  0.7460  1.5310
 8621SOL    HW226698   1.642   4.863   2.482  0.5745  0.5337 -0.0474
 8622SOL     OW26699   7.892   2.637   3.897 -0.0522  0.0139 -0.1459
 8622SOL    HW126700   7.848   2.713   3.858 -0.3043  0.4565  0.9781
 8622SOL    HW226701   7.894   2.655   3.990  0.4940 -1.0627  0.0699
 8623SOL     OW26702   2.172   3.217   6.205 -0.8863  0.0864  0.4368
 8623SOL    HW126703   2.104   3.150   6.213 -2.4030  1.6288  0.8252
 8623SOL    HW226704   2.202   3.210   6.114 -1.4559 -0.6984  0.2966
 8624SOL     OW26705   0.844   3.733   5.272 -0.4089 -0.0981  0.1988
 8624SOL    HW126706   0.856   3.802   5.206 -2.4041 -0.4040 -0.5701
 8624SOL    HW226707   0.833   3.653   5.220 -2.7899 -0.2298  0.8065
 8625SOL     OW26708   5.152   2.958   1.091  0.6178  0.3972 -0.0747
 8625SOL    HW126709   5.058   2.960   1.110  0.6008  0.7582 -0.1898
 8625SOL    HW226710   5.191   3.013   1.158  0.6439  1.0242 -0.5987
 8626SOL     OW26711   2.536   1.863   2.569  0.5971 -0.1530  0.4447
 8626SOL    HW126712   2.481   1.802   2.521 -0.7828  1.5378 -0.2251
 8626SOL    HW226713   2.475   1.928   2.604  1.6260 -0.8241  3.8464
 8627SOL     OW26714   4.237   2.835   6.434  0.0507  0.2785  0.1144
 8627SOL    HW126715   4.296   2.759   6.436  0.8204  0.7986 -1.0581
 8627SOL    HW226716   4.236   2.860   6.341  1.2245  2.7464  0.7033
 8628SOL     OW26717   6.422   5.948   7.015  0.0492 -0.3408 -0.3032
 8628SOL    HW126718   6.395   5.905   7.096 -0.2736  0.5778  0.0827
 8628SOL    HW226719   6.486   6.014   7.042  0.8542 -0.8281 -0.9371
 8629SOL     OW26720   6.103   2.642   1.724  0.5243 -0.0057  0.0566
 8629SOL    HW126721   6.014   2.622   1.696  1.1870 -0.7896 -1.6641
 8629SOL    HW226722   6.093   2.710   1.790 -1.3079  0.4520 -0.6270
 8630SOL     OW26723   1.474   5.597   1.327  0.2543 -0.5174 -0.3175
 8630SOL    HW126724   1.501   5.688   1.337  0.6391 -0.6108 -0.4848
 8630SOL    HW226725   1.552   5.546   1.348 -0.7063 -0.9251  2.6084
 8631SOL     OW26726   3.029   3.485   5.528  0.1264  0.5231 -0.3916
 8631SOL    HW126727   3.060   3.527   5.608 -1.5858 -0.0485  0.6418
 8631SOL    HW226728   3.049   3.392   5.541 -1.8550  0.1304  0.3257
 8632SOL     OW26729   3.468   4.038   3.772 -0.3850 -0.0861 -0.1261
 8632SOL    HW126730   3.486   4.030   3.866 -1.2782  0.2504  0.0801
 8632SOL    HW226731   3.387   3.989   3.758 -0.3210 -0.0400 -0.6987
 8633SOL     OW26732   6.400   7.511   7.092 -0.1526  0.0419  0.0344
 8633SOL    HW126733   6.396   7.416   7.104 -0.1518  0.1084  0.5646
 8633SOL    HW226734   6.490   7.527   7.062 -0.5597 -0.2690 -1.4515
 8634SOL     OW26735   5.134   4.653   0.331 -0.4462  0.1692 -0.1820
 8634SOL    HW126736   5.207   4.686   0.277  0.0563 -0.0131  0.3777
 8634SOL    HW226737   5.086   4.732   0.356 -0.3305  0.3094 -0.3894
 8635SOL     OW26738   6.224   7.244   0.749 -0.5281  0.7387  0.0382
 8635SOL    HW126739   6.284   7.314   0.775 -0.6047  0.8912 -0.1896
 8635SOL    HW226740   6.159   7.288   0.693  0.0456  0.2885 -1.0146
 8636SOL     OW26741   2.674   2.081   4.551 -0.3124 -0.5919 -0.5902
 8636SOL    HW126742   2.593   2.117   4.514  0.3494 -0.1677 -1.6476
 8636SOL    HW226743   2.670   2.106   4.644 -0.7788  0.5683 -0.9024
 8637SOL     OW26744   6.934   4.043   4.508 -0.0509  0.2118 -0.6258
 8637SOL    HW126745   6.875   4.051   4.583  0.2899 -0.2294 -0.3040
 8637SOL    HW226746   7.022   4.038   4.547  0.0097 -1.8208 -0.9396
 8638SOL     OW26747   3.519   6.283   2.228  0.1492  0.1756  0.3458
 8638SOL    HW126748   3.560   6.282   2.314 -0.1038 -0.4707  0.4653
 8638SOL    HW226749   3.589   6.260   2.167  0.3731  0.8220  0.3533
 8639SOL     OW26750   4.972   6.539   6.260  0.4103  0.0481  0.1851
 8639SOL    HW126751   4.999   6.447   6.260 -1.1577 -0.4519 -0.9107
 8639SOL    HW226752   4.876   6.535   6.265  0.3501  1.6527  0.7417
 8640SOL     OW26753   4.094   4.513   5.182  0.0405 -0.1486  0.3294
 8640SOL    HW126754   4.137   4.442   5.229  0.6934  0.6039  0.8970
 8640SOL    HW226755   4.128   4.507   5.093 -0.9503 -1.3788  0.0091
 8641SOL     OW26756   6.733   2.335   4.676  0.8146 -0.0058  0.4032
 8641SOL    HW126757   6.756   2.250   4.640  1.9666  0.2244  0.5696
 8641SOL    HW226758   6.786   2.397   4.627 -2.5868  1.0916 -2.3368
 8642SOL     OW26759   6.796   7.140   7.115  0.1397 -0.1854  0.0399
 8642SOL    HW126760   6.718   7.087   7.101  1.3719 -1.4614 -2.7292
 8642SOL    HW226761   6.787   7.213   7.054  0.7812  0.0575  0.2293
 8643SOL     OW26762   5.614   6.473   0.737  0.2551 -0.5554  0.1633
 8643SOL    HW126763   5.634   6.556   0.779  0.9113 -0.4115 -0.4215
 8643SOL    HW226764   5.607   6.494   0.644 -2.1572 -0.6802  0.2534
 8644SOL     OW26765   2.142   6.754   4.825  0.4247  0.4955  0.0537
 8644SOL    HW126766   2.161   6.699   4.749 -0.0093 -0.6418  0.7370
 8644SOL    HW226767   2.135   6.693   4.897  2.0272  1.6663  1.2674
 8645SOL     OW26768   3.100   1.641   7.655  0.1377 -0.1036  0.1344
 8645SOL    HW126769   3.069   1.676   7.572  0.1540 -0.2277  0.0758
 8645SOL    HW226770   3.104   1.546   7.641  0.8341 -0.0646  0.0411
 8646SOL     OW26771   1.879   0.288   4.827 -0.8301 -0.1960 -0.1495
 8646SOL    HW126772   1.823   0.211   4.827 -1.2641  0.0737 -1.9573
 8646SOL    HW226773   1.846   0.342   4.899  0.6049 -2.4010  2.3325
 8647SOL     OW26774   1.722   6.569   5.988 -0.5567  0.1991 -0.3307
 8647SOL    HW126775   1.680   6.608   6.065 -0.3253  0.3767 -0.2903
 8647SOL    HW226776   1.808   6.612   5.984 -0.1397 -0.5999 -0.0566
 8648SOL     OW26777   2.665   3.607   5.092  0.2699  0.1061 -0.1942
 8648SOL    HW126778   2.672   3.535   5.030  1.0705  0.9745 -1.1618
 8648SOL    HW226779   2.577   3.600   5.128 -0.5607  0.0696 -2.0934
 8649SOL     OW26780   7.547   6.048   7.430  0.5721  0.6803  0.1419
 8649SOL    HW126781   7.565   5.970   7.483 -0.7379 -0.4092 -0.9381
 8649SOL    HW226782   7.621   6.107   7.448  0.9461 -0.2658  1.9608
 8650SOL     OW26783   7.543   0.244   7.740 -0.4329  0.5106 -0.2788
 8650SOL    HW126784   7.569   0.228   7.830  1.8743 -0.6245 -1.0518
 8650SOL    HW226785   7.502   0.330   7.742 -2.0779 -0.2393  2.0948
 8651SOL     OW26786   3.239   7.420   6.309  0.1894 -0.6529  0.0316
 8651SOL    HW126787   3.205   7.464   6.231 -1.0518  0.3878  1.1189
 8651SOL    HW226788   3.309   7.478   6.341 -0.5474 -0.1202  0.7120
 8652SOL     OW26789   7.140   1.517   1.751  0.0290 -0.1184  0.1128
 8652SOL    HW126790   7.180   1.445   1.800 -0.6708 -1.1400 -0.7640
 8652SOL    HW226791   7.113   1.580   1.818  0.5990 -0.7022  0.9068
 8653SOL     OW26792   5.169   3.503   1.299 -0.3032  0.2934 -0.3549
 8653SOL    HW126793   5.231   3.472   1.366 -0.0955 -1.0467 -1.1255
 8653SOL    HW226794   5.105   3.555   1.348 -0.0004 -0.4194  0.8508
 8654SOL     OW26795   2.577   5.106   2.848 -0.2741 -0.2629  0.1974
 8654SOL    HW126796   2.596   5.129   2.757  0.7637  0.5950  0.6100
 8654SOL    HW226797   2.651   5.141   2.898 -0.3839 -1.4928  1.2784
 8655SOL     OW26798   2.659   1.038   7.549 -0.2467  0.0207 -0.2943
 8655SOL    HW126799   2.638   0.987   7.628 -0.0506 -0.7602 -0.7377
 8655SOL    HW226800   2.702   0.975   7.491  3.4600  1.4823  0.5800
 8656SOL     OW26801   2.932   3.574   6.598 -0.2628 -0.1895 -0.0917
 8656SOL    HW126802   2.853   3.611   6.638  0.8640  0.5239  1.5879
 8656SOL    HW226803   2.974   3.525   6.669  0.0685 -1.8218 -1.3632
 8657SOL     OW26804   2.424   6.718   1.958  0.3168 -0.2591 -0.4205
 8657SOL    HW126805   2.400   6.666   2.034  2.1685 -1.3335 -0.5143
 8657SOL    HW226806   2.341   6.747   1.921 -0.7021 -1.7594  0.6051
 8658SOL     OW26807   0.749   1.657   0.456  0.0548  0.0508  0.1156
 8658SOL    HW126808   0.663   1.658   0.498 -0.4804  0.3140 -0.9591
 8658SOL    HW226809   0.753   1.739   0.406  1.4095  0.6141  1.0788
 8659SOL     OW26810   4.462   4.743   3.201 -0.2940  0.4794 -0.2758
 8659SOL    HW126811   4.450   4.836   3.220 -2.3462  0.0675  0.7445
 8659SOL    HW226812   4.447   4.735   3.107  0.7589  1.2740 -0.5301
 8660SOL     OW26813   1.333   4.290   1.402  0.5482 -0.3132 -0.4575
 8660SOL    HW126814   1.311   4.307   1.494 -0.4805 -3.1201 -0.0864
 8660SOL    HW226815   1.426   4.268   1.403  0.8732  0.9733 -0.3414
 8661SOL     OW26816   2.101   7.917   3.197  0.4671  0.1156  0.3847
 8661SOL    HW126817   2.091   7.825   3.171  1.3929 -0.1701  1.0034
 8661SOL    HW226818   2.019   7.938   3.242 -0.5948  0.2088 -1.4927
 8662SOL     OW26819   4.315   2.852   0.746 -0.1708  0.7114 -0.2837
 8662SOL    HW126820   4.289   2.858   0.654  0.0575 -1.6326 -0.5682
 8662SOL    HW226821   4.350   2.763   0.755  0.3572  1.0834  1.9453
 8663SOL     OW26822   6.313   5.870   4.289 -0.4345 -0.7395  0.8741
 8663SOL    HW126823   6.280   5.882   4.378 -0.0019  1.2128  0.8196
 8663SOL    HW226824   6.409   5.867   4.300 -0.4215 -1.6194  0.5706
 8664SOL     OW26825   7.112   3.813   3.379  0.4734 -0.6759  0.1620
 8664SOL    HW126826   7.045   3.784   3.441  1.3470 -1.6950  0.6584
 8664SOL    HW226827   7.160   3.881   3.426 -0.7179  0.7103 -0.5140
 8665SOL     OW26828   7.225   2.786   1.115  0.7220 -0.1555 -0.6716
 8665SOL    HW126829   7.179   2.704   1.128  0.2248  0.4823  2.6931
 8665SOL    HW226830   7.161   2.844   1.073  0.0209 -0.6192 -0.2570
 8666SOL     OW26831   5.248   6.934   7.616 -0.6965  0.0160  0.1200
 8666SOL    HW126832   5.212   6.971   7.697 -1.1726 -1.2757  0.5207
 8666SOL    HW226833   5.172   6.917   7.561 -0.3693  0.9619 -0.6534
 8667SOL     OW26834   4.551   6.338   0.512  0.7103 -0.1863 -0.2750
 8667SOL    HW126835   4.595   6.291   0.582  0.9424 -0.5500 -0.6634
 8667SOL    HW226836   4.500   6.406   0.557  2.5279  0.9858  0.1370
 8668SOL     OW26837   2.102   5.477   1.960 -0.3227  0.3671  0.0186
 8668SOL    HW126838   2.147   5.536   1.899  0.4503  0.2056  0.4192
 8668SOL    HW226839   2.167   5.411   1.983 -0.8200  0.0227  0.4825
 8669SOL     OW26840   3.739   3.562   2.769 -0.6879 -0.2751  0.1248
 8669SOL    HW126841   3.688   3.642   2.757 -1.6805 -0.9645 -0.4723
 8669SOL    HW226842   3.673   3.495   2.791 -0.2031 -1.4312 -1.7105
 8670SOL     OW26843   2.446   2.128   2.876  0.9454 -0.1122 -0.4413
 8670SOL    HW126844   2.525   2.113   2.928  0.7339 -0.1332 -0.1281
 8670SOL    HW226845   2.377   2.147   2.940  0.9466  1.0790 -0.7638
 8671SOL     OW26846   3.130   2.276   2.839 -0.0757 -0.4969  0.6160
 8671SOL    HW126847   3.041   2.300   2.813 -0.3360 -1.7118  0.2889
 8671SOL    HW226848   3.181   2.286   2.758  0.1352  0.3654  0.8448
 8672SOL     OW26849   7.249   1.884   2.111  0.0336  0.2326 -0.5530
 8672SOL    HW126850   7.267   1.851   2.023 -2.9360  1.2400 -1.6571
 8672SOL    HW226851   7.306   1.959   2.121  0.0196  0.4358 -1.8612
 8673SOL     OW26852   5.595   7.761   3.325  0.4596 -0.4572  0.7628
 8673SOL    HW126853   5.535   7.721   3.388 -0.1870 -3.1976 -1.4373
 8673SOL    HW226854   5.672   7.705   3.326  0.4127 -0.5891 -0.8836
 8674SOL     OW26855   5.817   4.798   0.281  0.4598  0.3404 -0.1166
 8674SOL    HW126856   5.859   4.861   0.339 -1.4737 -1.9021  4.1411
 8674SOL    HW226857   5.723   4.811   0.295 -0.0230 -2.2747 -0.4146
 8675SOL     OW26858   6.742   5.140   2.153  0.4687  0.2326  0.4300
 8675SOL    HW126859   6.692   5.176   2.079  1.0104 -0.5442 -0.3357
 8675SOL    HW226860   6.781   5.216   2.195  0.1106  0.6909 -0.0497
 8676SOL     OW26861   2.912   3.588   0.932 -0.7764 -0.1699  0.0167
 8676SOL    HW126862   2.844   3.552   0.989  1.0973 -3.2690  0.5541
 8676SOL    HW226863   2.897   3.547   0.847 -1.5755  1.8496 -0.8704
 8677SOL     OW26864   1.959   7.815   4.794  0.2912 -0.5552  0.5382
 8677SOL    HW126865   1.875   7.774   4.815 -0.8197  0.7088 -1.1124
 8677SOL    HW226866   1.962   7.892   4.850  0.4726 -0.7253  0.7643
 8678SOL     OW26867   2.292   7.454   1.800 -0.0095  0.2092 -0.8202
 8678SOL    HW126868   2.199   7.478   1.797 -0.0244  0.2342 -0.2978
 8678SOL    HW226869   2.333   7.506   1.731 -0.0985  1.4731  0.0482
 8679SOL     OW26870   3.957   1.836   0.793  0.2272 -0.3273  0.3420
 8679SOL    HW126871   3.953   1.930   0.811 -0.4561 -0.3734  0.4724
 8679SOL    HW226872   4.042   1.822   0.753  0.6605  0.2249  1.0479
 8680SOL     OW26873   5.981   6.979   2.211 -0.2799  0.2731  0.2048
 8680SOL    HW126874   6.008   6.906   2.155  0.5066 -0.4960  1.5528
 8680SOL    HW226875   6.035   7.053   2.181 -0.8254  0.2414 -0.9201
 8681SOL     OW26876   0.200   3.966   7.393 -0.6390 -0.5621  0.4492
 8681SOL    HW126877   0.125   4.024   7.387 -0.1757  0.0138  0.1858
 8681SOL    HW226878   0.172   3.886   7.348 -0.3421  0.4427 -1.6614
 8682SOL     OW26879   4.684   1.044   4.254 -0.0934  0.7449 -0.2317
 8682SOL    HW126880   4.614   1.014   4.196  0.1163  0.4733 -0.3444
 8682SOL    HW226881   4.756   0.983   4.240  0.2439  1.1410 -0.2674
 8683SOL     OW26882   5.855   4.030   0.559  0.1155  0.3543  0.4723
 8683SOL    HW126883   5.867   3.948   0.607  0.7764  0.0590 -0.1649
 8683SOL    HW226884   5.933   4.081   0.580  0.7666 -0.0631 -0.8078
 8684SOL     OW26885   2.858   4.736   2.884  0.3000  0.2638  0.1641
 8684SOL    HW126886   2.851   4.726   2.979  0.5051 -2.0451 -0.0045
 8684SOL    HW226887   2.771   4.713   2.851  0.8270 -1.1570 -0.3083
 8685SOL     OW26888   0.857   3.204   1.504  0.4169  0.1374 -0.1099
 8685SOL    HW126889   0.814   3.254   1.435 -0.3729 -0.5033 -0.0901
 8685SOL    HW226890   0.798   3.209   1.578 -0.0092 -1.3518 -0.3086
 8686SOL     OW26891   1.448   6.933   1.293  0.6691 -0.7059 -0.9743
 8686SOL    HW126892   1.483   7.011   1.250 -0.4181  1.2003  1.3220
 8686SOL    HW226893   1.372   6.909   1.240  0.9250 -0.0953 -1.6395
 8687SOL     OW26894   4.638   2.859   5.102  0.6365 -0.0738 -0.3172
 8687SOL    HW126895   4.616   2.945   5.065 -0.1313  0.0952  0.4884
 8687SOL    HW226896   4.642   2.874   5.197  0.1475 -0.9898 -0.1428
 8688SOL     OW26897   5.384   0.678   6.717  0.2523 -0.8287  0.0627
 8688SOL    HW126898   5.471   0.666   6.678 -0.1618  2.3318 -2.2743
 8688SOL    HW226899   5.328   0.618   6.669  0.7695 -1.2344 -0.0443
 8689SOL     OW26900   0.855   5.803   6.660  0.2860  0.2126 -0.4657
 8689SOL    HW126901   0.812   5.889   6.653  0.7982  0.5056 -0.0658
 8689SOL    HW226902   0.830   5.772   6.747 -1.8029 -1.0992 -1.4515
 8690SOL     OW26903   0.052   6.624   6.485  0.1759 -0.2615 -0.0662
 8690SOL    HW126904  -0.015   6.683   6.451  0.4531  0.2801  0.3192
 8690SOL    HW226905   0.033   6.540   6.444 -0.8131 -0.1443  0.1284
 8691SOL     OW26906   4.593   3.619   1.117 -0.1698 -0.5008 -0.4595
 8691SOL    HW126907   4.668   3.609   1.059  0.8815  0.7734  0.6224
 8691SOL    HW226908   4.605   3.704   1.158 -1.0782 -1.1704  1.3296
 8692SOL     OW26909   5.953   3.797   0.676 -0.4568  0.2391 -0.0750
 8692SOL    HW126910   5.932   3.760   0.762 -0.2873  1.8165  0.6743
 8692SOL    HW226911   6.043   3.827   0.684 -0.7470  1.2388 -0.5052
 8693SOL     OW26912   7.434   5.850   3.274 -0.2160 -0.3324  0.1046
 8693SOL    HW126913   7.436   5.817   3.184  0.4641  0.1076 -0.0524
 8693SOL    HW226914   7.437   5.945   3.265  0.2476 -0.2915  0.5908
 8694SOL     OW26915   5.540   4.443   0.768 -0.1258  0.1763 -0.1749
 8694SOL    HW126916   5.549   4.466   0.860 -0.4283 -2.6086  0.6440
 8694SOL    HW226917   5.449   4.416   0.758  0.0206 -0.0034 -1.1899
 8695SOL     OW26918   2.918   2.713   7.870  0.4669 -0.1348 -0.3795
 8695SOL    HW126919   2.877   2.694   7.785  1.0678 -0.8776 -0.5090
 8695SOL    HW226920   2.980   2.783   7.851  0.0045  0.2836 -0.3803
 8696SOL     OW26921   1.041   7.032   1.414 -0.1415  0.2641  0.4170
 8696SOL    HW126922   1.026   7.082   1.334  0.2626 -0.7268 -0.2964
 8696SOL    HW226923   1.119   7.071   1.453  0.9825 -0.6407 -0.8391
 8697SOL     OW26924   6.872   4.238   6.088 -0.2376  0.4951  0.3085
 8697SOL    HW126925   6.890   4.144   6.093 -1.4116  0.1195 -1.5772
 8697SOL    HW226926   6.844   4.262   6.176 -0.6509 -1.0850  0.6417
 8698SOL     OW26927   7.809   5.051   0.801 -0.2329  0.2565 -0.0629
 8698SOL    HW126928   7.764   4.976   0.841 -3.5584  1.3095 -1.4614
 8698SOL    HW226929   7.788   5.124   0.860  0.7144  0.5916 -0.1291
 8699SOL     OW26930   7.269   3.487   3.741 -0.1947 -0.2537  0.2336
 8699SOL    HW126931   7.187   3.460   3.700 -1.3451  0.5249  1.9157
 8699SOL    HW226932   7.251   3.487   3.835  2.0970 -1.1570  0.7483
 8700SOL     OW26933   3.466   0.902   7.342  0.2895  0.1773  0.3469
 8700SOL    HW126934   3.498   0.920   7.254 -1.9513  0.6256 -0.4361
 8700SOL    HW226935   3.414   0.979   7.365 -1.6902 -1.2134  0.7676
 8701SOL     OW26936   5.227   7.748   4.527  0.0036  0.3125  0.1349
 8701SOL    HW126937   5.167   7.806   4.482  0.0371  0.9241  0.8546
 8701SOL    HW226938   5.209   7.762   4.620 -1.2413 -2.1526  0.3456
 8702SOL     OW26939   7.242   2.576   1.442 -0.1568  0.2691 -0.1062
 8702SOL    HW126940   7.277   2.558   1.355 -0.2984  3.3965 -0.9412
 8702SOL    HW226941   7.320   2.581   1.498  0.1262  0.2605 -0.4901
 8703SOL     OW26942   5.191   7.334   6.940  0.4206  0.2600 -0.0830
 8703SOL    HW126943   5.104   7.368   6.960  0.5318  0.7076 -0.3343
 8703SOL    HW226944   5.190   7.322   6.845  0.4143 -0.3635 -0.0077
 8704SOL     OW26945   5.397   1.324   4.659 -0.5230  0.6804 -0.3774
 8704SOL    HW126946   5.383   1.418   4.674 -0.3809  0.4169  1.7264
 8704SOL    HW226947   5.309   1.290   4.642 -0.7467  1.0185  0.0728
 8705SOL     OW26948   2.368   2.564   6.892 -0.1212 -0.6083 -0.4901
 8705SOL    HW126949   2.407   2.478   6.908  1.3966  0.1032 -0.1690
 8705SOL    HW226950   2.278   2.545   6.865 -0.0057 -2.2555  0.1675
 8706SOL     OW26951   5.595   7.133   3.506 -0.0299  0.6904  0.3897
 8706SOL    HW126952   5.563   7.053   3.547 -2.0774  2.1047  1.7364
 8706SOL    HW226953   5.675   7.155   3.555  1.3567 -1.1688 -0.8955
 8707SOL     OW26954   7.825   6.376   4.108 -0.5235 -0.2550 -0.1841
 8707SOL    HW126955   7.824   6.367   4.203 -0.3448  0.0903 -0.1463
 8707SOL    HW226956   7.858   6.292   4.076 -0.1258 -0.2028  0.0842
 8708SOL     OW26957   2.074   3.586   4.694  0.3032 -0.1012  0.5822
 8708SOL    HW126958   2.124   3.519   4.647  0.3951  0.1342  0.3435
 8708SOL    HW226959   2.107   3.669   4.660  0.0098  0.0625  0.6931
 8709SOL     OW26960   4.683   2.776   3.255 -0.4049  0.3018  0.4977
 8709SOL    HW126961   4.596   2.807   3.277 -1.9637 -3.4493  0.3027
 8709SOL    HW226962   4.697   2.805   3.165 -1.0951  1.5540  0.7771
 8710SOL     OW26963   6.004   0.599   4.025  0.3715 -0.3558  0.0071
 8710SOL    HW126964   5.970   0.520   4.067  0.0931 -0.3134 -0.1422
 8710SOL    HW226965   5.938   0.623   3.960  0.8428 -0.4651 -0.5171
 8711SOL     OW26966   5.072   3.325   6.063 -0.2325 -0.4665  0.2594
 8711SOL    HW126967   5.067   3.263   6.135  0.2181 -0.6351  0.1511
 8711SOL    HW226968   4.986   3.321   6.021 -0.2242 -0.9872  0.2825
 8712SOL     OW26969   4.019   1.067   1.325  0.2902 -0.0053  0.0436
 8712SOL    HW126970   4.041   1.097   1.237 -1.0650  0.5306 -0.1442
 8712SOL    HW226971   4.082   0.998   1.344  1.2884  0.6183 -0.9086
 8713SOL     OW26972   5.876   4.044   5.835 -0.1875 -0.1507 -0.0084
 8713SOL    HW126973   5.848   4.026   5.925  0.1582  2.1387  0.6295
 8713SOL    HW226974   5.913   3.961   5.804  0.0763 -0.8813  2.1160
 8714SOL     OW26975   3.059   6.249   6.202 -0.1161 -0.1673  0.0216
 8714SOL    HW126976   3.118   6.185   6.162  0.7564  0.6672 -0.0377
 8714SOL    HW226977   3.028   6.205   6.282 -0.0874 -0.9369 -0.3805
 8715SOL     OW26978   6.526   4.022   1.223  0.6732 -0.0810 -0.4589
 8715SOL    HW126979   6.503   3.958   1.291  0.8264  0.2016 -0.1332
 8715SOL    HW226980   6.442   4.056   1.193  0.6138  1.6719  1.4256
 8716SOL     OW26981   2.312   0.824   0.791  0.1158 -0.7245  0.5012
 8716SOL    HW126982   2.264   0.815   0.709  0.9872  1.0004 -0.2501
 8716SOL    HW226983   2.396   0.781   0.774  0.4681  0.0254  0.3256
 8717SOL     OW26984   3.265   4.529   2.204 -0.1506 -0.0696  0.2873
 8717SOL    HW126985   3.343   4.584   2.206  0.6443 -1.1455 -0.4682
 8717SOL    HW226986   3.283   4.460   2.268 -0.9947  0.3191  0.9689
 8718SOL     OW26987   0.643   1.848   1.418 -0.3475 -0.0498 -0.1041
 8718SOL    HW126988   0.646   1.787   1.492  1.1857 -0.0143 -0.1170
 8718SOL    HW226989   0.563   1.824   1.371 -0.8771 -0.6553  1.0652
 8719SOL     OW26990   0.947   6.572   6.218 -0.1620 -0.4072 -0.1430
 8719SOL    HW126991   0.931   6.564   6.312 -0.3719  0.0912 -0.1340
 8719SOL    HW226992   0.947   6.666   6.201  2.4687 -0.3501 -0.2109
 8720SOL     OW26993   4.158   4.808   4.651  0.2408  0.3139 -0.6461
 8720SOL    HW126994   4.170   4.892   4.694 -0.0339 -0.2516  0.5602
 8720SOL    HW226995   4.148   4.830   4.558  2.3152  1.4371 -0.6486
 8721SOL     OW26996   3.001   0.098   4.563 -0.0483 -0.1584 -0.7081
 8721SOL    HW126997   2.915   0.137   4.577 -0.7954 -2.4095  1.9042
 8721SOL    HW226998   2.983   0.019   4.512  0.4047 -0.7479  0.0157
 8722SOL     OW26999   7.126   1.433   4.861 -0.5192  0.1655  0.1917
 8722SOL    HW127000   7.162   1.381   4.933  1.1995 -0.5253 -1.1181
 8722SOL    HW227001   7.201   1.455   4.807 -1.9653 -0.9487 -2.4341
 8723SOL     OW27002   5.981   5.378   3.645  0.2056 -0.0214  0.0641
 8723SOL    HW127003   5.971   5.343   3.734  2.7301  0.9184  0.8074
 8723SOL    HW227004   5.895   5.368   3.605 -0.7856 -1.2277  2.3391
 8724SOL     OW27005   2.044   6.890   1.625 -0.5217 -0.6351  0.0638
 8724SOL    HW127006   2.120   6.944   1.605 -0.0799 -1.0966  0.4663
 8724SOL    HW227007   1.980   6.950   1.662  0.4008 -0.5622  1.6344
 8725SOL     OW27008   5.863   4.393   0.734  0.3194 -0.3156 -0.4601
 8725SOL    HW127009   5.950   4.361   0.710  1.1579  1.5909 -0.0761
 8725SOL    HW227010   5.856   4.374   0.828  0.7204  0.4012 -0.2820
 8726SOL     OW27011   6.199   4.480   2.100  0.4863 -0.0476  0.3380
 8726SOL    HW127012   6.110   4.450   2.123  0.5594  0.5918  1.5157
 8726SOL    HW227013   6.256   4.432   2.160  0.9347 -0.2595 -0.2439
 8727SOL     OW27014   6.482   2.555   7.164  0.1247  0.2233 -0.2707
 8727SOL    HW127015   6.410   2.493   7.150 -0.7500  0.7982  1.3902
 8727SOL    HW227016   6.439   2.639   7.179  1.2334  0.9323 -0.9527
 8728SOL     OW27017   1.582   3.773   7.719 -0.6281 -0.1854  0.6728
 8728SOL    HW127018   1.518   3.744   7.654 -0.8965 -1.3581  1.4283
 8728SOL    HW227019   1.629   3.694   7.743 -0.2509  0.3080  1.5992
 8729SOL     OW27020   6.869   1.416   5.678 -0.0238 -0.9105  0.0479
 8729SOL    HW127021   6.906   1.497   5.642  0.9894 -0.7614  1.3614
 8729SOL    HW227022   6.792   1.400   5.624  0.6186  0.0821 -1.2341
 8730SOL     OW27023   0.153   3.639   2.660  0.3768 -0.1592 -0.4280
 8730SOL    HW127024   0.188   3.591   2.735  0.3580  0.2722 -0.1396
 8730SOL    HW227025   0.199   3.723   2.661 -0.2548  0.1940 -0.3782
 8731SOL     OW27026   7.435   4.418   7.039 -0.1475  0.3540 -0.4482
 8731SOL    HW127027   7.346   4.432   7.007 -0.2002  0.8056 -0.1202
 8731SOL    HW227028   7.425   4.394   7.131  0.1233  1.8744  0.0063
 8732SOL     OW27029   0.740   7.643   0.142 -0.1123 -0.0097  0.3888
 8732SOL    HW127030   0.712   7.681   0.226  2.0430  1.3125  0.5661
 8732SOL    HW227031   0.798   7.571   0.167  0.2123  0.1282  0.0337
 8733SOL     OW27032   6.308   5.403   4.946  0.5383 -0.0714  0.6015
 8733SOL    HW127033   6.398   5.433   4.949  0.2347  1.1007 -0.8611
 8733SOL    HW227034   6.270   5.431   5.029  0.9542  1.3812  0.3203
 8734SOL     OW27035   1.321   6.631   3.411 -0.6611 -0.3120 -0.1165
 8734SOL    HW127036   1.262   6.617   3.485  0.3887 -0.1168  0.7913
 8734SOL    HW227037   1.355   6.544   3.390 -0.1554 -0.2292  0.3365
 8735SOL     OW27038   7.201   1.240   5.060  0.2539  0.0298  0.4160
 8735SOL    HW127039   7.156   1.157   5.048  1.3578 -0.7816  1.5795
 8735SOL    HW227040   7.244   1.232   5.145  0.0745  1.9495  0.7430
 8736SOL     OW27041   3.755   5.820   3.250 -0.4253 -0.4682  0.2644
 8736SOL    HW127042   3.776   5.817   3.343 -0.2273 -0.3189  0.2242
 8736SOL    HW227043   3.660   5.808   3.247 -1.2224  4.0723  0.8237
 8737SOL     OW27044   0.110   6.108   3.195  0.0546  0.5903  0.2027
 8737SOL    HW127045   0.107   6.195   3.154  0.2677  0.5389  0.0769
 8737SOL    HW227046   0.140   6.050   3.126  0.4758  0.5116  0.4496
 8738SOL     OW27047   7.397   4.559   0.791 -0.8505  0.0567 -0.0554
 8738SOL    HW127048   7.376   4.599   0.875  0.0865 -1.3923  0.9188
 8738SOL    HW227049   7.312   4.537   0.753 -1.3764  2.4630 -0.4403
 8739SOL     OW27050   0.332   3.416   2.291  0.1164  0.0105 -0.3412
 8739SOL    HW127051   0.393   3.487   2.310 -0.3777  0.4661 -0.4355
 8739SOL    HW227052   0.250   3.443   2.332  0.1320 -0.8729  0.2990
 8740SOL     OW27053   5.679   7.462   5.596 -0.2384 -0.1225  0.1719
 8740SOL    HW127054   5.673   7.455   5.501  0.1209  0.7210  0.0741
 8740SOL    HW227055   5.765   7.502   5.611 -0.2194 -0.4099  0.8619
 8741SOL     OW27056   7.206   3.663   7.412  0.0974 -0.1457 -0.3221
 8741SOL    HW127057   7.195   3.606   7.488 -0.9990  0.5500  0.0537
 8741SOL    HW227058   7.125   3.654   7.363 -0.4568  1.6922  0.1742
 8742SOL     OW27059   6.506   6.452   0.835  0.2374 -0.5200  0.8363
 8742SOL    HW127060   6.467   6.410   0.758  0.6325  1.1956 -0.3634
 8742SOL    HW227061   6.563   6.520   0.799  0.2675  0.4863  2.6551
 8743SOL     OW27062   2.998   3.967   1.373 -0.8566  0.4415 -0.5200
 8743SOL    HW127063   3.022   3.920   1.293 -0.5183  1.3851 -0.9844
 8743SOL    HW227064   2.904   3.982   1.365 -0.7278  1.0203 -1.0155
 8744SOL     OW27065   6.710   4.413   4.528  0.4495 -0.4129 -0.0943
 8744SOL    HW127066   6.660   4.363   4.463  0.0517  0.8044 -0.7454
 8744SOL    HW227067   6.746   4.487   4.480  3.3043 -1.4380  0.2445
 8745SOL     OW27068   3.230   6.869   1.260  0.4434  0.3906  0.4868
 8745SOL    HW127069   3.297   6.876   1.193 -0.2820  0.6552 -0.2288
 8745SOL    HW227070   3.153   6.836   1.214  0.3907 -1.0477  1.5131
 8746SOL     OW27071   0.749   6.992   7.194  0.2340  0.0704 -0.1897
 8746SOL    HW127072   0.825   6.992   7.253  0.2941 -0.8472 -0.2584
 8746SOL    HW227073   0.682   7.042   7.241  0.3894 -0.3740  0.5152
 8747SOL     OW27074   6.091   5.714   3.722  0.1533  0.0458  0.0948
 8747SOL    HW127075   6.147   5.751   3.654  0.1228  0.5825  0.3574
 8747SOL    HW227076   6.025   5.663   3.673  1.2683 -1.1739 -0.1797
 8748SOL     OW27077   1.776   2.272   1.891 -0.2695 -0.2128 -0.5514
 8748SOL    HW127078   1.777   2.321   1.809  1.6011  1.4244  0.3655
 8748SOL    HW227079   1.801   2.336   1.958 -1.8388 -1.4700  1.3480
 8749SOL     OW27080   6.092   6.539   1.509 -0.2364  0.3059 -0.3674
 8749SOL    HW127081   6.031   6.609   1.488 -1.3796 -0.6363 -0.3134
 8749SOL    HW227082   6.053   6.461   1.469  0.4719 -0.4867  0.4492
 8750SOL     OW27083   7.893   5.633   2.450 -0.1765  0.3956 -0.0839
 8750SOL    HW127084   7.938   5.672   2.525  0.1266 -2.5243  1.3916
 8750SOL    HW227085   7.961   5.622   2.384  0.0692  0.8581  0.0886
 8751SOL     OW27086   2.749   6.612   7.138 -0.2377  0.2659 -0.1083
 8751SOL    HW127087   2.821   6.659   7.179 -0.5606 -0.3715  1.2402
 8751SOL    HW227088   2.753   6.637   7.046  1.9098 -0.0119 -0.1399
 8752SOL     OW27089   7.392   6.009   1.468  0.1130 -0.2334 -0.3626
 8752SOL    HW127090   7.316   5.960   1.500  1.9032 -1.5164  2.2609
 8752SOL    HW227091   7.432   5.950   1.403  0.7431 -1.1230  0.7953
 8753SOL     OW27092   2.528   5.972   1.611  0.3438 -0.2287  0.3186
 8753SOL    HW127093   2.611   5.924   1.617  0.8839  0.4987 -0.9151
 8753SOL    HW227094   2.544   6.054   1.657  0.5973  0.2547 -0.5975
 8754SOL     OW27095   7.684   0.308   4.434 -0.0583  0.3183 -0.5678
 8754SOL    HW127096   7.682   0.351   4.519 -2.6526  2.2014 -1.4522
 8754SOL    HW227097   7.755   0.352   4.386  1.2862 -0.6205  0.4745
 8755SOL     OW27098   2.379   7.510   5.957  0.4265  0.2431  0.1099
 8755SOL    HW127099   2.384   7.605   5.948 -1.3951  0.5912  1.9513
 8755SOL    HW227100   2.420   7.492   6.042 -0.7972 -0.3690  0.5997
 8756SOL     OW27101   5.273   7.578   7.437  0.8375  0.6709  0.0369
 8756SOL    HW127102   5.251   7.663   7.399 -1.2949  0.0557 -0.2603
 8756SOL    HW227103   5.285   7.520   7.362 -0.5233  0.1016  0.2285
 8757SOL     OW27104   6.703   3.552   7.398 -0.5589  0.5160 -0.0103
 8757SOL    HW127105   6.722   3.646   7.401 -0.0138  0.3934  0.9736
 8757SOL    HW227106   6.731   3.525   7.311  1.8929  0.7729  0.6206
 8758SOL     OW27107   5.764   6.155   4.725 -0.4241  0.1039  0.3156
 8758SOL    HW127108   5.710   6.102   4.784 -0.7829 -3.0446 -2.5281
 8758SOL    HW227109   5.709   6.166   4.647  2.3239 -2.0605 -2.1576
 8759SOL     OW27110   0.680   6.148   6.196  0.1281  0.3306  0.1556
 8759SOL    HW127111   0.663   6.118   6.107 -1.8394 -1.1572  0.9488
 8759SOL    HW227112   0.643   6.237   6.198 -4.0881 -1.2096  0.5656
 8760SOL     OW27113   7.216   1.996   1.412  0.3395 -0.3775 -0.2677
 8760SOL    HW127114   7.310   2.000   1.432  0.3531  0.7226 -0.4897
 8760SOL    HW227115   7.189   1.909   1.442  0.8805  0.2279  2.2461
 8761SOL     OW27116   2.555   6.793   1.613  0.2365 -0.4582 -0.0766
 8761SOL    HW127117   2.600   6.787   1.697  0.8570 -1.9133 -0.4802
 8761SOL    HW227118   2.502   6.872   1.620  1.0030 -0.0282  1.3214
 8762SOL     OW27119   7.829   1.812   1.840 -0.0898 -0.1401 -0.5813
 8762SOL    HW127120   7.805   1.770   1.757  1.3433 -0.1557 -1.0120
 8762SOL    HW227121   7.814   1.743   1.905 -1.0535 -0.1881 -0.8359
 8763SOL     OW27122   5.457   6.600   2.193 -0.2031 -0.0895 -0.0663
 8763SOL    HW127123   5.480   6.525   2.138 -0.9301 -1.5220  1.4801
 8763SOL    HW227124   5.527   6.664   2.177  0.4867 -1.1146 -1.3764
 8764SOL     OW27125   1.397   4.855   0.799  0.2558 -0.3263 -0.3950
 8764SOL    HW127126   1.302   4.857   0.789  0.1288 -1.8473  0.2292
 8764SOL    HW227127   1.411   4.851   0.894  0.9921  0.8091 -0.4337
 8765SOL     OW27128   5.878   0.904   1.978  0.6084  0.7499  0.0966
 8765SOL    HW127129   5.875   0.945   1.892  0.3331 -1.6502 -1.1186
 8765SOL    HW227130   5.931   0.826   1.966 -0.1955 -0.1379  1.8787
 8766SOL     OW27131   4.655   1.401   6.612 -0.0077  0.5873 -0.1326
 8766SOL    HW127132   4.738   1.413   6.658  0.8448  2.6073 -2.0039
 8766SOL    HW227133   4.607   1.482   6.627 -1.3843 -0.2727  0.3267
 8767SOL     OW27134   0.299   2.638   2.272 -0.1048  0.0959 -0.4632
 8767SOL    HW127135   0.211   2.647   2.236 -1.1908  1.2467  2.2567
 8767SOL    HW227136   0.323   2.726   2.299  1.5029 -0.3800 -0.2573
 8768SOL     OW27137   0.198   4.558   0.675  0.1386 -0.1570  0.2674
 8768SOL    HW127138   0.228   4.614   0.746  0.2599 -0.0934  0.1663
 8768SOL    HW227139   0.239   4.473   0.693 -1.5190 -0.7444  1.4512
 8769SOL     OW27140   3.476   3.913   7.272  0.0886  0.2646  0.5708
 8769SOL    HW127141   3.533   3.850   7.227  1.1237  0.8100  1.0792
 8769SOL    HW227142   3.475   3.989   7.214 -1.4007 -0.2986 -0.1868
 8770SOL     OW27143   3.169   6.218   6.576 -0.5244 -0.0555  0.0474
 8770SOL    HW127144   3.119   6.157   6.521  0.9728 -1.3202  0.0273
 8770SOL    HW227145   3.160   6.183   6.665  2.9577 -2.3333 -0.3237
 8771SOL     OW27146   5.545   5.608   6.408 -0.1385 -0.7220 -0.4421
 8771SOL    HW127147   5.556   5.582   6.317  0.2297 -1.2651 -0.2424
 8771SOL    HW227148   5.538   5.704   6.405  0.8646 -0.6558 -0.9429
 8772SOL     OW27149   7.105   6.283   2.298 -0.3858  0.1119  0.1374
 8772SOL    HW127150   7.025   6.326   2.267  0.1434  1.0316  0.0197
 8772SOL    HW227151   7.130   6.225   2.227 -0.9677 -0.2185  0.1927
 8773SOL     OW27152   0.394   2.333   0.524 -0.1515  0.1463  0.0693
 8773SOL    HW127153   0.453   2.306   0.595  0.6035 -1.4548 -1.0847
 8773SOL    HW227154   0.327   2.385   0.566 -0.2107 -1.4681  2.1227
 8774SOL     OW27155   6.717   3.252   2.526  0.0413 -0.1103  0.0825
 8774SOL    HW127156   6.676   3.168   2.504  1.2254 -0.9294  0.8856
 8774SOL    HW227157   6.679   3.314   2.463 -2.2537 -0.8335  0.6396
 8775SOL     OW27158   4.357   0.915   1.464 -0.5407  0.1349 -0.4283
 8775SOL    HW127159   4.326   0.826   1.480  0.2324 -0.4518 -2.0019
 8775SOL    HW227160   4.315   0.941   1.382  1.3753  0.1145 -1.4882
 8776SOL     OW27161   1.421   3.866   3.669 -0.1300  0.0552  0.2065
 8776SOL    HW127162   1.482   3.924   3.714 -0.6842 -0.1977  1.3200
 8776SOL    HW227163   1.353   3.924   3.634  0.0381  0.2068  0.1350
 8777SOL     OW27164   1.581   6.617   2.116 -0.2678 -0.6742 -0.1075
 8777SOL    HW127165   1.642   6.615   2.191 -1.6923  1.9126  1.2614
 8777SOL    HW227166   1.604   6.697   2.069 -1.7812 -0.2858 -0.2410
 8778SOL     OW27167   1.018   1.400   3.465 -0.5580 -0.6025  1.3765
 8778SOL    HW127168   0.988   1.428   3.378  0.1507  0.8822  1.5836
 8778SOL    HW227169   1.002   1.477   3.521 -0.9670 -1.5253  2.5597
 8779SOL     OW27170   0.268   6.121   5.551  0.2093  0.1323  0.0653
 8779SOL    HW127171   0.311   6.204   5.572 -0.2478  1.1307 -2.5377
 8779SOL    HW227172   0.334   6.071   5.503 -0.1770 -0.1318 -0.1973
 8780SOL     OW27173   6.062   6.558   7.561  0.4415  0.5936  0.3965
 8780SOL    HW127174   6.041   6.477   7.514  0.3222  0.5183  0.5761
 8780SOL    HW227175   6.100   6.528   7.644  0.5153  0.7228  0.4094
 8781SOL     OW27176   0.938   6.659   3.031 -0.1326 -0.0591  0.6639
 8781SOL    HW127177   0.859   6.710   3.049 -0.0818  0.3448 -0.2379
 8781SOL    HW227178   1.003   6.693   3.093  0.1376  1.5570 -0.4520
 8782SOL     OW27179   1.335   4.123   3.334  0.1871 -0.5510  0.2482
 8782SOL    HW127180   1.267   4.149   3.272  1.6769 -0.2314 -1.3299
 8782SOL    HW227181   1.337   4.194   3.398  0.9186  0.8767 -1.2967
 8783SOL     OW27182   3.455   1.282   7.245 -0.1734 -0.8624 -0.4999
 8783SOL    HW127183   3.456   1.359   7.301 -2.8540 -1.8815  1.1527
 8783SOL    HW227184   3.402   1.309   7.169 -0.0189 -0.7083 -0.5545
 8784SOL     OW27185   7.016   5.258   3.785 -0.4873  0.4415 -0.0780
 8784SOL    HW127186   6.948   5.225   3.727 -0.7815 -0.4959  0.7737
 8784SOL    HW227187   6.978   5.252   3.873  1.0513 -1.0979  0.5256
 8785SOL     OW27188   5.772   7.366   2.624 -0.5089 -0.5326  0.3381
 8785SOL    HW127189   5.851   7.410   2.656  0.3662 -2.6185  1.2926
 8785SOL    HW227190   5.699   7.416   2.659  0.4364 -0.2910  2.0317
 8786SOL     OW27191   0.486   1.689   0.592 -0.2898 -0.2712  0.0970
 8786SOL    HW127192   0.435   1.769   0.581  1.6945  1.2051  1.0853
 8786SOL    HW227193   0.430   1.632   0.645 -1.3748  0.7927  0.1347
 8787SOL     OW27194   4.931   0.201   1.910 -0.3645 -0.3914 -0.0239
 8787SOL    HW127195   4.847   0.243   1.930  0.3076  0.7292  0.5353
 8787SOL    HW227196   4.974   0.191   1.995  1.6358  2.5243 -0.5148
 8788SOL     OW27197   7.220   6.138   4.649  0.1158 -0.0681  0.0374
 8788SOL    HW127198   7.246   6.118   4.559  3.0540 -0.0011  0.7550
 8788SOL    HW227199   7.157   6.069   4.672  0.1719 -0.7330 -1.6887
 8789SOL     OW27200   4.940   1.331   6.031  0.3212 -0.0047  0.1617
 8789SOL    HW127201   4.940   1.236   6.041  1.8231  0.0702  1.4317
 8789SOL    HW227202   4.851   1.358   6.052 -0.2311 -1.1506 -0.6374
 8790SOL     OW27203   1.493   6.337   7.902 -0.8600  0.0889 -0.1917
 8790SOL    HW127204   1.455   6.273   7.962 -1.5274  0.7754  0.1383
 8790SOL    HW227205   1.458   6.314   7.817  0.0816 -0.8850 -0.3364
 8791SOL     OW27206   4.339   6.727   2.075  0.8377  0.2338 -0.4326
 8791SOL    HW127207   4.382   6.666   2.015  2.2568 -0.7541  1.4750
 8791SOL    HW227208   4.293   6.671   2.137  0.2791  1.2013  0.0568
 8792SOL     OW27209   7.660   1.991   2.137  0.1688  0.8035  0.0053
 8792SOL    HW127210   7.657   2.083   2.112 -2.7586  0.8404  0.1489
 8792SOL    HW227211   7.619   1.945   2.063  0.4971 -0.2252  0.4520
 8793SOL     OW27212   1.563   5.808   4.650 -0.4703  0.1102 -0.2260
 8793SOL    HW127213   1.542   5.715   4.644 -0.7797  0.0079  1.7696
 8793SOL    HW227214   1.488   5.852   4.609 -1.4843 -0.4710  0.9322
 8794SOL     OW27215   2.739   0.844   4.030  0.5854  0.2061  0.1133
 8794SOL    HW127216   2.808   0.870   3.969  0.1913 -2.1908 -1.4918
 8794SOL    HW227217   2.664   0.824   3.975 -1.7329  3.1993  1.8318
 8795SOL     OW27218   5.458   1.048   1.625  0.3995  0.3431 -0.2683
 8795SOL    HW127219   5.449   1.135   1.665  0.5254  0.6714 -0.9325
 8795SOL    HW227220   5.380   1.039   1.569 -0.7205 -0.8668  1.4032
 8796SOL     OW27221   2.399   2.666   6.631  0.0139  0.9301 -0.4714
 8796SOL    HW127222   2.400   2.668   6.727 -2.3492 -0.0475 -0.3547
 8796SOL    HW227223   2.394   2.573   6.610 -0.3744  1.1772 -1.5030
 8797SOL     OW27224   4.795   6.824   7.473 -0.2812 -0.1831  0.7626
 8797SOL    HW127225   4.778   6.742   7.425 -0.0756 -0.0686  0.4922
 8797SOL    HW227226   4.875   6.859   7.434 -0.2099  0.0051  1.0699
 8798SOL     OW27227   2.842   5.125   4.835  0.5359  0.1007  0.5816
 8798SOL    HW127228   2.865   5.038   4.804  0.6129  0.0737  0.7139
 8798SOL    HW227229   2.884   5.185   4.773 -0.3792  0.0330 -0.1237
 8799SOL     OW27230   5.560   2.973   3.499  0.2583  0.0991  0.1154
 8799SOL    HW127231   5.571   3.062   3.466  1.6678 -1.0748 -2.9816
 8799SOL    HW227232   5.466   2.956   3.492  0.2030  0.7808 -0.9685
 8800SOL     OW27233   1.900   7.824   6.608  0.2811 -0.0979 -0.2381
 8800SOL    HW127234   1.839   7.897   6.595  0.6995  0.8267  2.3972
 8800SOL    HW227235   1.982   7.853   6.569  0.1826  0.4592 -0.0420
 8801SOL     OW27236   0.463   2.291   7.800  0.2731 -0.4586 -0.3911
 8801SOL    HW127237   0.490   2.204   7.828 -1.1305 -0.7655  0.0616
 8801SOL    HW227238   0.383   2.277   7.751  0.9711  0.4152 -1.8464
 8802SOL     OW27239   6.454   2.828   6.462 -0.7737  0.0367 -0.3424
 8802SOL    HW127240   6.463   2.880   6.542  0.2722  1.3855 -1.2826
 8802SOL    HW227241   6.432   2.892   6.394 -0.3069 -0.8798 -1.3835
 8803SOL     OW27242   1.155   6.175   1.603  0.3021 -0.1292  0.0492
 8803SOL    HW127243   1.228   6.216   1.555 -0.9032  2.4612  0.2837
 8803SOL    HW227244   1.093   6.149   1.534  0.1819  0.2757  0.0041
 8804SOL     OW27245   7.762   6.064   6.457 -0.1698 -0.2488 -0.0312
 8804SOL    HW127246   7.707   6.129   6.414 -0.8863  0.2526  1.5637
 8804SOL    HW227247   7.849   6.105   6.459 -0.7591  1.0153  1.5795
 8805SOL     OW27248   2.154   7.745   0.306  0.2228  0.0640 -0.1972
 8805SOL    HW127249   2.172   7.833   0.337  0.2200 -0.3224  0.9277
 8805SOL    HW227250   2.202   7.738   0.223  1.4321  0.6174  0.4401
 8806SOL     OW27251   3.780   0.031   3.521 -0.0431  0.3465  0.3935
 8806SOL    HW127252   3.706   0.085   3.551 -0.9754 -0.9231  0.4922
 8806SOL    HW227253   3.746  -0.059   3.524  1.4936 -0.2586  0.3469
 8807SOL     OW27254   0.095   4.938   0.602  0.6578  0.4605 -0.1967
 8807SOL    HW127255   0.013   4.985   0.616 -0.3131 -0.9560 -0.8761
 8807SOL    HW227256   0.142   4.990   0.536 -1.6777 -0.8793 -3.1449
 8808SOL     OW27257   3.951   7.027   3.423  0.4197 -0.6039  0.3172
 8808SOL    HW127258   3.868   7.042   3.377  0.4861  1.7759  0.8104
 8808SOL    HW227259   4.010   6.994   3.355  0.1511  1.5880 -1.1185
 8809SOL     OW27260   7.319   6.379   7.350 -0.2048 -0.5995  0.8225
 8809SOL    HW127261   7.329   6.381   7.255 -1.5093  0.2797  0.6837
 8809SOL    HW227262   7.229   6.407   7.366 -0.3186 -1.6854  2.2813
 8810SOL     OW27263   0.169   2.130   6.662  0.3858  0.4326  0.6113
 8810SOL    HW127264   0.182   2.223   6.682  0.7145  0.5699 -0.1693
 8810SOL    HW227265   0.247   2.105   6.613 -1.0001  0.5527 -1.8477
 8811SOL     OW27266   1.061   4.605   0.549  0.8639 -1.0334 -0.2657
 8811SOL    HW127267   1.151   4.624   0.526  1.6823 -2.3357  1.6119
 8811SOL    HW227268   1.018   4.690   0.555  1.6900 -0.4447 -2.0780
 8812SOL     OW27269   0.170   5.467   4.517 -0.2370  1.0065  0.6550
 8812SOL    HW127270   0.076   5.454   4.526  0.2111 -2.5929  1.4475
 8812SOL    HW227271   0.210   5.400   4.573  2.8122  1.5258 -0.6566
 8813SOL     OW27272   7.179   0.122   6.183  0.2026 -0.0869  0.3069
 8813SOL    HW127273   7.146   0.065   6.113  0.4589  2.1112 -1.7281
 8813SOL    HW227274   7.193   0.063   6.257 -3.1784 -2.0193 -0.3882
 8814SOL     OW27275   7.180   3.728   0.794 -0.6285 -0.1736 -0.2579
 8814SOL    HW127276   7.247   3.793   0.772 -0.5194  0.1135  0.8980
 8814SOL    HW227277   7.229   3.652   0.822 -0.7753 -0.4310 -0.6872
 8815SOL     OW27278   2.409   0.607   6.755  0.2748 -0.1123  0.0639
 8815SOL    HW127279   2.333   0.637   6.705  0.2016  0.2214  0.3697
 8815SOL    HW227280   2.373   0.546   6.820  0.4402 -0.9841 -0.6437
 8816SOL     OW27281   6.388   0.395   6.473 -0.0319  0.1822  0.6603
 8816SOL    HW127282   6.444   0.463   6.511  0.6675 -0.8368  1.4766
 8816SOL    HW227283   6.447   0.343   6.418 -0.7058  0.6319 -0.5450
 8817SOL     OW27284   7.259   1.348   4.378  0.2299  0.1201 -0.1745
 8817SOL    HW127285   7.305   1.352   4.295  0.4323  1.3778 -0.0170
 8817SOL    HW227286   7.326   1.363   4.444 -0.3140  1.7106  0.0686
 8818SOL     OW27287   1.265   2.596   1.938 -0.0930  0.0094  0.0338
 8818SOL    HW127288   1.211   2.522   1.910  0.1880 -0.3768  0.4840
 8818SOL    HW227289   1.202   2.663   1.966 -0.3751  0.4193 -1.5078
 8819SOL     OW27290   0.216   3.467   7.730 -0.5094  0.0554 -0.6247
 8819SOL    HW127291   0.152   3.402   7.699 -0.3222 -0.0472 -0.7974
 8819SOL    HW227292   0.179   3.499   7.812 -0.2387 -0.8197 -0.1418
 8820SOL     OW27293   2.967   7.336   5.276  0.1313  0.6433  0.1022
 8820SOL    HW127294   2.966   7.427   5.308  0.5180  1.4265 -1.9258
 8820SOL    HW227295   3.060   7.317   5.262  0.1317 -0.4345  1.3682
 8821SOL     OW27296   1.295   7.087   7.804 -0.4410 -0.3478 -0.1590
 8821SOL    HW127297   1.284   6.997   7.835 -0.2579 -0.7792 -1.3164
 8821SOL    HW227298   1.389   7.097   7.793 -0.4372  0.0925  0.2422
 8822SOL     OW27299   2.562   1.244   2.446 -0.2333  0.0274  0.4594
 8822SOL    HW127300   2.479   1.290   2.462 -0.1648  0.2018  0.3227
 8822SOL    HW227301   2.604   1.295   2.376 -0.9352 -1.2389 -0.9220
 8823SOL     OW27302   7.632   0.270   2.426 -0.3450 -0.5643  0.2921
 8823SOL    HW127303   7.668   0.188   2.392  1.1282  0.6738 -1.2854
 8823SOL    HW227304   7.702   0.309   2.477 -0.6589  0.1971  0.1622
 8824SOL     OW27305   7.433   1.055   4.056 -0.0564  0.3544  0.5680
 8824SOL    HW127306   7.496   1.127   4.052 -1.4030  1.5173 -1.4334
 8824SOL    HW227307   7.363   1.087   4.112 -1.5734  1.4845 -1.8331
 8825SOL     OW27308   4.003   6.463   7.750  0.5466  0.5857 -0.4256
 8825SOL    HW127309   3.994   6.375   7.713 -0.2417  0.2762  0.4670
 8825SOL    HW227310   4.041   6.515   7.679  0.7855 -0.4086 -1.0493
 8826SOL     OW27311   2.166   5.936   5.459  0.4244  0.3965 -0.5283
 8826SOL    HW127312   2.110   5.923   5.536 -0.4211  0.7156 -1.0698
 8826SOL    HW227313   2.220   5.857   5.454 -0.7187 -0.4111 -0.5860
 8827SOL     OW27314   7.126   3.300   3.363 -0.4145 -0.2065 -0.3700
 8827SOL    HW127315   7.220   3.304   3.352 -0.3749 -0.4660 -0.1433
 8827SOL    HW227316   7.109   3.345   3.446 -0.1109 -3.2235  1.4615
 8828SOL     OW27317   5.953   7.629   1.093 -0.0236  0.6217  0.0562
 8828SOL    HW127318   6.000   7.583   1.162  1.8205  0.9708 -0.8891
 8828SOL    HW227319   5.861   7.617   1.114  0.4464 -1.0976  1.3741
 8829SOL     OW27320   6.218   3.493   4.174  0.4196  0.1433 -0.4012
 8829SOL    HW127321   6.134   3.506   4.130 -0.6534  0.0226  1.5009
 8829SOL    HW227322   6.284   3.508   4.106 -1.1238  0.6182 -1.8458
 8830SOL     OW27323   0.440   0.542   0.738 -0.0191 -0.6698 -0.4411
 8830SOL    HW127324   0.361   0.573   0.783 -1.1001  0.4513 -2.9353
 8830SOL    HW227325   0.497   0.512   0.809 -0.8801  2.5474  1.8482
 8831SOL     OW27326   5.665   0.075   3.701  0.1007  0.5345  0.1956
 8831SOL    HW127327   5.721  -0.002   3.695 -0.2312  0.3563 -4.9002
 8831SOL    HW227328   5.725   0.146   3.724  1.7596 -0.2510 -1.4627
 8832SOL     OW27329   5.131   3.442   1.599 -0.2582 -0.5990 -0.6897
 8832SOL    HW127330   5.065   3.412   1.661 -1.4460  1.0206 -1.0975
 8832SOL    HW227331   5.192   3.494   1.651  0.9502 -2.3338 -0.2583
 8833SOL     OW27332   7.582   5.604   7.701  0.2531  0.2385 -0.0111
 8833SOL    HW127333   7.500   5.564   7.727  0.1413  1.5897  1.9938
 8833SOL    HW227334   7.596   5.674   7.765  0.9785  2.6591 -2.6038
 8834SOL     OW27335   1.324   7.677   1.093 -0.3851  0.3837  0.7742
 8834SOL    HW127336   1.297   7.594   1.052  1.2308 -0.2385  0.8623
 8834SOL    HW227337   1.253   7.699   1.153 -1.3701 -0.3383 -0.0847
 8835SOL     OW27338   3.178   5.802   6.979  0.0699 -0.2365  0.2899
 8835SOL    HW127339   3.262   5.791   7.024  1.0050  1.3210 -0.9633
 8835SOL    HW227340   3.199   5.857   6.904 -2.2815  1.0497  0.5012
 8836SOL     OW27341   2.805   6.606   6.853 -0.0635 -0.2581  0.1865
 8836SOL    HW127342   2.857   6.526   6.852  0.4885  0.0844  0.8219
 8836SOL    HW227343   2.761   6.607   6.768  1.3184 -0.3336 -0.5566
 8837SOL     OW27344   1.107   0.806   2.556  0.1579 -0.3454  0.1483
 8837SOL    HW127345   1.147   0.891   2.538  0.8538 -1.0354 -1.8324
 8837SOL    HW227346   1.174   0.742   2.532 -0.5367 -1.4831  1.1085
 8838SOL     OW27347   0.112   1.779   6.414 -0.2894  0.1497 -0.1394
 8838SOL    HW127348   0.039   1.739   6.460 -0.3169  0.5966  0.2114
 8838SOL    HW227349   0.072   1.826   6.341 -0.2135 -0.8971 -0.8897
 8839SOL     OW27350   2.662   7.356   5.231 -0.1241  0.1268  0.1282
 8839SOL    HW127351   2.755   7.336   5.220 -0.2709  0.4344 -2.1583
 8839SOL    HW227352   2.628   7.284   5.284  0.8362 -1.6675 -1.5574
 8840SOL     OW27353   0.394   6.123   4.305 -0.5509 -0.1651  0.2191
 8840SOL    HW127354   0.336   6.147   4.232 -2.1210 -1.5182  0.9625
 8840SOL    HW227355   0.478   6.104   4.263 -1.0725  0.3001 -1.0932
 8841SOL     OW27356   6.378   4.079   3.574  0.0368 -0.2920  1.1825
 8841SOL    HW127357   6.443   4.137   3.536 -1.7202  1.0135  0.0159
 8841SOL    HW227358   6.386   4.092   3.668  0.6825  0.7174  0.9968
 8842SOL     OW27359   1.069   7.686   4.523  0.0505  0.1620 -0.0774
 8842SOL    HW127360   1.043   7.747   4.593 -1.3964  0.2130 -0.6311
 8842SOL    HW227361   1.096   7.743   4.451 -2.1498  0.2546 -0.9224
 8843SOL     OW27362   2.747   2.988   0.239  0.2176 -0.2374  0.3413
 8843SOL    HW127363   2.727   2.896   0.251  0.5546 -0.4333 -0.5387
 8843SOL    HW227364   2.774   3.019   0.326  0.8688 -1.1513  0.4710
 8844SOL     OW27365   4.951   1.736   5.743 -0.0069 -0.0222 -0.0076
 8844SOL    HW127366   5.033   1.738   5.792  0.8805 -0.7148 -1.4078
 8844SOL    HW227367   4.909   1.653   5.770 -1.7020  1.5931  2.8561
 8845SOL     OW27368   5.650   3.448   5.832  0.4027  0.6668  0.6280
 8845SOL    HW127369   5.626   3.475   5.744  0.2548 -1.1642  0.0742
 8845SOL    HW227370   5.694   3.524   5.869  2.5408  0.7591 -1.8161
 8846SOL     OW27371   4.565   6.181   2.199  0.1937  0.0688  0.6154
 8846SOL    HW127372   4.512   6.256   2.229  0.0211 -0.5794  1.9907
 8846SOL    HW227373   4.506   6.106   2.207  0.1043 -0.1560 -1.4992
 8847SOL     OW27374   6.653   1.632   2.002 -0.2078 -0.0604  0.5275
 8847SOL    HW127375   6.703   1.707   1.970 -0.7654 -0.8176 -2.3642
 8847SOL    HW227376   6.613   1.664   2.084  0.8906  2.2036  0.2761
 8848SOL     OW27377   7.909   3.295   2.580 -0.3622  0.7261  0.1042
 8848SOL    HW127378   7.898   3.329   2.669 -0.1723 -0.0978  0.4591
 8848SOL    HW227379   7.857   3.215   2.579  0.1960  0.3603 -0.3022
 8849SOL     OW27380   2.298   6.993   6.745  0.3183  0.4795 -0.2650
 8849SOL    HW127381   2.272   7.079   6.779 -0.0948  0.6653 -1.0241
 8849SOL    HW227382   2.310   6.939   6.823  1.0180  1.3449  0.2405
 8850SOL     OW27383   5.728   0.437   4.261 -0.2024  0.3461 -0.8966
 8850SOL    HW127384   5.790   0.398   4.200  0.7081  0.1487  0.1218
 8850SOL    HW227385   5.751   0.399   4.346 -2.3562 -0.5001 -0.6163
 8851SOL     OW27386   5.328   0.909   3.707 -0.5012 -0.0763  0.6734
 8851SOL    HW127387   5.258   0.944   3.761 -0.6315  3.6312 -1.6017
 8851SOL    HW227388   5.291   0.904   3.619  0.9571 -1.9157  0.0818
 8852SOL     OW27389   1.851   0.982   3.984 -0.1100 -0.3589 -0.5228
 8852SOL    HW127390   1.820   1.023   3.904  1.4500 -0.1913 -1.0819
 8852SOL    HW227391   1.805   0.898   3.988 -1.3002  0.2663 -0.8026
 8853SOL     OW27392   7.468   6.779   6.703  0.0797  0.4014 -0.0519
 8853SOL    HW127393   7.454   6.776   6.797  1.1070  2.5984  0.2487
 8853SOL    HW227394   7.408   6.847   6.672 -1.0207 -1.0229 -1.1984
 8854SOL     OW27395   6.010   5.826   1.412 -0.2577 -0.4353 -0.3399
 8854SOL    HW127396   6.073   5.868   1.470 -1.5393  1.7486 -0.3987
 8854SOL    HW227397   6.051   5.744   1.387  1.7895  0.1145  0.9595
 8855SOL     OW27398   0.686   5.152   5.396  0.4213  0.0102 -0.1659
 8855SOL    HW127399   0.659   5.115   5.479  0.4764 -0.2580 -0.2655
 8855SOL    HW227400   0.763   5.205   5.417  0.4165 -0.0333 -0.0417
 8856SOL     OW27401   6.056   7.133   3.360 -0.2872  0.1458  0.2332
 8856SOL    HW127402   5.987   7.163   3.301 -0.6829  1.8206  1.4900
 8856SOL    HW227403   6.134   7.182   3.333  0.0152 -0.4834 -0.0791
 8857SOL     OW27404   7.421   2.372   6.210 -0.4511 -0.1092 -0.1685
 8857SOL    HW127405   7.510   2.342   6.226  0.0430  1.2848 -0.1248
 8857SOL    HW227406   7.365   2.298   6.232  0.6717 -0.8447  0.2489
 8858SOL     OW27407   1.050   6.735   3.484 -0.3130 -0.4361  0.1308
 8858SOL    HW127408   1.102   6.716   3.562 -0.8564 -1.7138  0.1999
 8858SOL    HW227409   1.012   6.822   3.500 -2.2303 -1.5873  2.2967
 8859SOL     OW27410   2.411   1.838   3.847 -0.2595  0.4967  0.2650
 8859SOL    HW127411   2.342   1.834   3.781  0.4539 -1.1134 -0.4331
 8859SOL    HW227412   2.438   1.747   3.859  1.7193  1.0715  0.5435
 8860SOL     OW27413   4.252   3.666   5.019 -0.4950  0.0495 -0.7427
 8860SOL    HW127414   4.213   3.601   5.077 -1.0217  0.7283 -0.3213
 8860SOL    HW227415   4.205   3.655   4.936 -0.9812  0.2789 -0.4990
 8861SOL     OW27416   0.484   2.390   4.216 -0.1284 -0.0691  0.1647
 8861SOL    HW127417   0.455   2.391   4.124  0.7386 -0.7730 -0.1384
 8861SOL    HW227418   0.458   2.303   4.248  1.2985 -0.6091 -0.0300
 8862SOL     OW27419   6.499   2.890   6.764  0.3002  0.1392 -0.4245
 8862SOL    HW127420   6.416   2.876   6.720  1.1619 -0.3863 -1.9655
 8862SOL    HW227421   6.476   2.899   6.857 -1.5789  1.3411 -0.9488
 8863SOL     OW27422   0.936   6.500   3.401 -0.2086  0.1370 -0.0698
 8863SOL    HW127423   1.020   6.477   3.362 -0.1321 -0.8787  0.6457
 8863SOL    HW227424   0.945   6.593   3.423  0.5283  0.1749 -0.4957
 8864SOL     OW27425   7.129   6.739   2.139  0.0401  0.1434  0.2711
 8864SOL    HW127426   7.121   6.690   2.057 -0.3318 -2.6308  1.8527
 8864SOL    HW227427   7.208   6.703   2.180  0.4433  1.7712  0.9834
 8865SOL     OW27428   4.151   3.882   6.246  0.0034 -0.0579 -0.1364
 8865SOL    HW127429   4.055   3.878   6.248 -0.0235  0.6453  1.4018
 8865SOL    HW227430   4.171   3.935   6.170 -0.7784 -0.9695 -1.0174
 8866SOL     OW27431   3.783   0.019   2.212 -0.3815  0.3140 -0.2977
 8866SOL    HW127432   3.805   0.052   2.299  0.6893  0.4732 -0.6133
 8866SOL    HW227433   3.867   0.011   2.167 -0.9453  0.5291 -1.4322
 8867SOL     OW27434   3.847   7.222   4.024  0.5347 -0.7029 -0.0236
 8867SOL    HW127435   3.906   7.278   4.075  1.2809 -0.8374 -0.7069
 8867SOL    HW227436   3.905   7.157   3.984 -0.1527 -1.1600 -0.3012
 8868SOL     OW27437   5.807   1.012   4.818  0.7659  0.0096  0.3275
 8868SOL    HW127438   5.720   1.051   4.831  0.3844 -1.1768  1.6567
 8868SOL    HW227439   5.820   1.013   4.724 -0.6636  0.2828  0.1108
 8869SOL     OW27440   5.535   5.845   6.701 -0.5970  0.1225  0.0885
 8869SOL    HW127441   5.511   5.899   6.625 -0.6218  2.1207  1.4325
 8869SOL    HW227442   5.479   5.877   6.771  1.8648  0.8776  1.8559
 8870SOL     OW27443   3.794   3.211   0.998  0.1332 -0.4038  0.0911
 8870SOL    HW127444   3.810   3.121   1.025 -1.3267 -0.8352 -0.3640
 8870SOL    HW227445   3.782   3.259   1.081  0.3631 -0.7424  0.3219
 8871SOL     OW27446   7.886   5.489   0.061  0.7043 -0.2855  0.1759
 8871SOL    HW127447   7.817   5.540   0.103  1.7736 -0.8029  2.7255
 8871SOL    HW227448   7.844   5.408   0.033  0.1579 -0.3783  1.2396
 8872SOL     OW27449   6.565   1.752   5.848  0.2822 -0.1463  0.3999
 8872SOL    HW127450   6.657   1.749   5.824 -0.2277 -1.1168 -1.5867
 8872SOL    HW227451   6.518   1.721   5.771 -1.6133 -1.5481  2.0147
 8873SOL     OW27452   2.372   2.284   6.917 -0.1519 -0.1476 -0.5777
 8873SOL    HW127453   2.310   2.270   6.845 -0.4837  0.5744 -0.4376
 8873SOL    HW227454   2.422   2.202   6.922 -0.9709 -0.6676 -0.8043
 8874SOL     OW27455   7.338   1.328   2.956  0.3792 -0.5028 -0.5922
 8874SOL    HW127456   7.344   1.250   2.900 -1.4367 -0.2565 -1.2100
 8874SOL    HW227457   7.325   1.293   3.044  0.0844 -0.9174 -0.7934
 8875SOL     OW27458   7.707   4.587   0.174 -0.4274  0.4785  0.1652
 8875SOL    HW127459   7.788   4.635   0.192  0.0321  0.0492 -0.6815
 8875SOL    HW227460   7.705   4.579   0.079  0.1914 -2.2670  0.2814
 8876SOL     OW27461   1.040   0.106   7.104 -0.4168 -0.0626 -0.3539
 8876SOL    HW127462   1.003   0.045   7.040  0.7033  0.2722 -1.3646
 8876SOL    HW227463   1.118   0.142   7.060  0.2327  0.3760  1.1008
 8877SOL     OW27464   6.783   3.134   7.712  0.0619 -0.0613  0.0102
 8877SOL    HW127465   6.762   3.195   7.782  0.9483 -1.0075  1.1307
 8877SOL    HW227466   6.726   3.059   7.727 -0.1592 -0.0308 -0.6392
 8878SOL     OW27467   7.356   1.245   1.744 -0.0003 -0.0892  0.0857
 8878SOL    HW127468   7.301   1.241   1.822 -1.4345 -0.7605 -0.9103
 8878SOL    HW227469   7.411   1.322   1.757 -0.0428 -0.3240  1.8495
 8879SOL     OW27470   5.199   4.134   3.109  0.0567 -0.1901  0.3895
 8879SOL    HW127471   5.246   4.099   3.033  0.9879 -0.6202  1.1445
 8879SOL    HW227472   5.264   4.138   3.178 -0.7207  0.4270  1.1129
 8880SOL     OW27473   7.029   3.429   3.596 -0.6066  0.0198  0.1166
 8880SOL    HW127474   6.968   3.497   3.569 -1.7193 -1.0376 -0.1240
 8880SOL    HW227475   6.976   3.368   3.648  0.3632 -0.6413  0.3665
 8881SOL     OW27476   6.286   4.211   6.966 -0.0673 -0.4689  0.7021
 8881SOL    HW127477   6.352   4.238   7.030  0.4347  0.1273 -0.0547
 8881SOL    HW227478   6.333   4.153   6.906  0.1192  0.9968 -0.6140
 8882SOL     OW27479   4.359   4.489   3.242 -0.0300 -0.3182  0.0847
 8882SOL    HW127480   4.386   4.580   3.226  0.9129 -0.1391  2.2794
 8882SOL    HW227481   4.426   4.454   3.300 -1.5911 -1.6833  1.1650
 8883SOL     OW27482   4.905   1.679   1.305  0.1764 -0.1859 -0.2047
 8883SOL    HW127483   4.815   1.661   1.280 -0.8196 -1.4837  3.6319
 8883SOL    HW227484   4.930   1.605   1.360  2.8396  1.1800  0.6167
 8884SOL     OW27485   4.755   5.711   1.395 -0.2312 -0.5885 -0.1462
 8884SOL    HW127486   4.838   5.669   1.416  1.1587  0.6153 -2.6941
 8884SOL    HW227487   4.693   5.675   1.458  2.1768 -1.5824  1.8402
 8885SOL     OW27488   7.011   4.108   6.335 -0.4927  0.2680 -0.3076
 8885SOL    HW127489   6.986   4.200   6.341  0.6542  0.6572 -1.0050
 8885SOL    HW227490   7.092   4.109   6.283 -0.2407 -1.0923  0.0137
 8886SOL     OW27491   4.895   6.240   5.986  0.0334 -0.1075  0.2474
 8886SOL    HW127492   4.802   6.221   5.979 -0.0177  0.3123 -0.2550
 8886SOL    HW227493   4.920   6.276   5.901  0.7528 -0.6136  0.2292
 8887SOL     OW27494   0.784   6.007   3.264 -0.2838  0.2686  0.5601
 8887SOL    HW127495   0.729   6.080   3.295  0.6200  0.9024  0.7037
 8887SOL    HW227496   0.837   5.984   3.340  0.6010  0.5602  0.0436
 8888SOL     OW27497   7.945   5.984   0.235 -0.1552 -0.6269 -0.3042
 8888SOL    HW127498   7.916   6.063   0.282  1.1948 -0.7348  0.7771
 8888SOL    HW227499   7.906   5.912   0.283  0.3316 -0.6884  0.0128
 8889SOL     OW27500   1.106   5.916   2.118  0.0122 -0.3934  0.2837
 8889SOL    HW127501   1.087   6.010   2.123  1.5124  0.0298 -1.1508
 8889SOL    HW227502   1.040   5.875   2.175 -1.7229  1.3656 -0.3447
 8890SOL     OW27503   7.409   5.702   6.371 -0.2149  0.4246  0.2234
 8890SOL    HW127504   7.463   5.627   6.396  0.5103  0.5489 -0.8942
 8890SOL    HW227505   7.472   5.770   6.349 -0.8081  0.5630 -1.1508
 8891SOL     OW27506   0.890   5.119   3.331  0.0923  0.1481  0.3798
 8891SOL    HW127507   0.876   5.150   3.420  2.1693  3.1581 -0.2148
 8891SOL    HW227508   0.978   5.147   3.309  0.1755 -1.7673 -2.1748
 8892SOL     OW27509   2.177   0.432   1.345 -0.1855  0.4123  0.5255
 8892SOL    HW127510   2.264   0.394   1.352  0.2229  1.3233  0.5639
 8892SOL    HW227511   2.192   0.526   1.349 -1.3947  0.5976  3.4378
 8893SOL     OW27512   3.791   7.010   0.272  0.1822  0.2566  0.2107
 8893SOL    HW127513   3.767   6.971   0.356  0.7484  0.5816  0.5258
 8893SOL    HW227514   3.834   7.092   0.295 -0.7210  0.9397 -0.4346
 8894SOL     OW27515   2.201   6.384   6.799 -0.2751  0.1468  0.2320
 8894SOL    HW127516   2.283   6.394   6.750 -1.6389  1.0519 -2.0033
 8894SOL    HW227517   2.206   6.295   6.835  1.3713 -0.0773 -0.4523
 8895SOL     OW27518   6.727   3.011   6.598 -0.3514  0.2280  0.2928
 8895SOL    HW127519   6.638   2.987   6.624 -0.5732  0.0072 -0.6433
 8895SOL    HW227520   6.719   3.098   6.559 -0.2298  0.0417 -0.1581
 8896SOL     OW27521   0.204   6.325   1.793 -0.1899  0.1729  0.7176
 8896SOL    HW127522   0.186   6.371   1.875 -1.6542 -0.5344  0.8217
 8896SOL    HW227523   0.225   6.235   1.821  0.4457  0.2097  0.3807
 8897SOL     OW27524   1.519   1.901   7.184  0.6120  0.4892 -0.1193
 8897SOL    HW127525   1.547   1.936   7.100 -0.7461 -1.6247 -1.5346
 8897SOL    HW227526   1.581   1.831   7.203 -0.5909 -0.7807 -0.7150
 8898SOL     OW27527   3.542   3.735   6.220  0.0769  0.2881 -0.0999
 8898SOL    HW127528   3.509   3.816   6.258  0.7634  0.2358  0.6220
 8898SOL    HW227529   3.552   3.676   6.295  0.0872 -0.2894 -0.5491
 8899SOL     OW27530   0.495   2.611   4.763 -0.1786  0.4779 -0.0833
 8899SOL    HW127531   0.477   2.683   4.703  0.1054  0.7449  0.1485
 8899SOL    HW227532   0.435   2.541   4.736 -0.5953  0.8719 -0.1792
 8900SOL     OW27533   0.623   1.696   0.849 -0.3837  0.2081  0.1459
 8900SOL    HW127534   0.562   1.741   0.908 -1.7271  1.2139 -1.8711
 8900SOL    HW227535   0.579   1.698   0.764  1.0769 -1.9322 -0.7447
 8901SOL     OW27536   5.989   4.706   2.494 -0.1403  0.3052  0.1673
 8901SOL    HW127537   6.061   4.764   2.470 -1.4592  1.9505  0.0010
 8901SOL    HW227538   6.032   4.629   2.532  1.7097  0.8345 -0.7511
 8902SOL     OW27539   2.552   1.548   7.665  0.3162 -0.6172  0.0501
 8902SOL    HW127540   2.475   1.505   7.627  0.0310  0.0100 -0.0838
 8902SOL    HW227541   2.535   1.641   7.657  1.7561 -0.4204 -1.3864
 8903SOL     OW27542   7.447   1.617   0.049  0.1997 -0.2744 -0.0480
 8903SOL    HW127543   7.371   1.665   0.018  2.0354  1.8503 -1.5904
 8903SOL    HW227544   7.467   1.655   0.134 -0.8605 -1.4001  0.7431
 8904SOL     OW27545   3.522   3.629   1.354  0.1628 -0.6482  0.2887
 8904SOL    HW127546   3.541   3.583   1.436  0.1883 -0.0987  0.5956
 8904SOL    HW227547   3.526   3.722   1.377 -1.3950 -0.4845  0.0289
 8905SOL     OW27548   4.890   4.137   7.048 -0.0442 -0.0856 -0.0911
 8905SOL    HW127549   4.957   4.140   7.116  0.6419  0.1607 -0.7623
 8905SOL    HW227550   4.850   4.051   7.058 -1.6081  0.7965  2.1485
 8906SOL     OW27551   6.261   3.777   6.711  0.3143  0.1819  0.3600
 8906SOL    HW127552   6.279   3.850   6.652 -0.1947  1.3408  1.5884
 8906SOL    HW227553   6.171   3.791   6.740  0.4667 -0.4905  1.2097
 8907SOL     OW27554   3.674   7.592   6.851  0.2003  0.3128 -0.0968
 8907SOL    HW127555   3.619   7.544   6.788 -0.5718  0.5820  0.3599
 8907SOL    HW227556   3.614   7.615   6.922  0.9691  0.3894  0.5386
 8908SOL     OW27557   3.687   1.068   2.571 -0.0791  0.3454  0.3645
 8908SOL    HW127558   3.592   1.062   2.564 -0.2263  1.6086  1.0662
 8908SOL    HW227559   3.705   1.062   2.664  0.5504 -0.0876  0.2187
 8909SOL     OW27560   3.472   5.296   1.376 -0.1380 -0.2094 -0.0600
 8909SOL    HW127561   3.495   5.379   1.417  0.5654  0.8880 -2.4961
 8909SOL    HW227562   3.538   5.234   1.408  0.3367  0.5815  0.5053
 8910SOL     OW27563   5.593   0.048   1.540 -0.3194  0.2999  0.3604
 8910SOL    HW127564   5.581  -0.046   1.526  0.2586  0.0835  1.2638
 8910SOL    HW227565   5.527   0.089   1.484  0.2024 -0.5971 -0.9703
 8911SOL     OW27566   6.950   0.623   0.456  0.8645 -0.1942  0.4780
 8911SOL    HW127567   6.894   0.634   0.533 -3.6004 -1.8740 -2.1786
 8911SOL    HW227568   6.973   0.530   0.456 -0.0493 -0.4314 -0.7173
 8912SOL     OW27569   5.954   3.751   3.707 -0.2202 -0.2972  0.6657
 8912SOL    HW127570   5.860   3.739   3.691 -0.2619  2.3632 -2.1049
 8912SOL    HW227571   5.959   3.836   3.752  0.8637  0.5233 -0.9170
 8913SOL     OW27572   3.271   4.357   6.030  0.1963  1.2545  0.4619
 8913SOL    HW127573   3.240   4.315   5.949  1.3807  2.4404 -0.6581
 8913SOL    HW227574   3.335   4.422   6.000  2.3239  0.2519  2.4870
 8914SOL     OW27575   0.682   1.879   2.021  0.7045  0.4165  0.1460
 8914SOL    HW127576   0.654   1.887   1.929 -0.1557 -3.7260 -0.1227
 8914SOL    HW227577   0.601   1.861   2.069  1.5039 -0.3940  1.2184
 8915SOL     OW27578   7.716   0.081   2.698  0.0982 -0.0734 -0.1472
 8915SOL    HW127579   7.775   0.100   2.771 -0.0356 -0.8442  0.1732
 8915SOL    HW227580   7.773   0.049   2.629  0.0464 -0.9651  0.2157
 8916SOL     OW27581   2.820   1.020   0.701 -0.0674 -0.2204  0.8401
 8916SOL    HW127582   2.854   0.969   0.774  0.9439 -0.3009  0.3207
 8916SOL    HW227583   2.815   0.959   0.628  1.7030  0.5056  0.0516
 8917SOL     OW27584   2.794   5.982   0.397 -0.0626  0.0764  0.6036
 8917SOL    HW127585   2.741   6.005   0.321  1.2340  1.5486  0.1104
 8917SOL    HW227586   2.771   6.048   0.463  1.1771  0.7663  0.3624
 8918SOL     OW27587   0.468   3.701   1.458 -0.0656 -0.0879  0.1744
 8918SOL    HW127588   0.500   3.677   1.371  0.1032  0.9246 -0.0477
 8918SOL    HW227589   0.379   3.664   1.462  0.4797 -1.4571  0.1675
 8919SOL     OW27590   1.982   2.135   1.726  0.8852  0.0588  0.5923
 8919SOL    HW127591   1.920   2.159   1.795 -0.0732 -0.4603 -0.0809
 8919SOL    HW227592   2.018   2.051   1.754  0.5604 -0.1090  0.5153
 8920SOL     OW27593   4.973   3.316   6.895 -0.3028 -0.0139 -0.0857
 8920SOL    HW127594   4.946   3.405   6.920 -1.6129  0.1446 -1.8480
 8920SOL    HW227595   5.036   3.290   6.962  0.5050  2.4380  0.1999
 8921SOL     OW27596   7.708   3.079   2.641  0.2787 -0.1922 -0.1734
 8921SOL    HW127597   7.722   3.100   2.734  0.3164 -0.0882 -0.2031
 8921SOL    HW227598   7.630   3.024   2.641  0.9698 -1.2237  0.0511
 8922SOL     OW27599   0.643   3.482   6.393 -0.5867 -0.5254 -0.5128
 8922SOL    HW127600   0.592   3.562   6.377  0.6503  0.7268  1.2977
 8922SOL    HW227601   0.732   3.514   6.409 -0.0696 -2.2838  0.3528
 8923SOL     OW27602   1.187   3.924   5.170  0.1846  0.3081 -0.0941
 8923SOL    HW127603   1.127   3.853   5.148  0.0848  0.3789 -0.0469
 8923SOL    HW227604   1.231   3.944   5.088  0.1260  0.2736 -0.1342
 8924SOL     OW27605   5.289   0.387   0.510 -0.3137 -0.2277 -0.0985
 8924SOL    HW127606   5.362   0.334   0.479 -0.6080 -0.9917  0.4822
 8924SOL    HW227607   5.300   0.390   0.605 -2.1421 -2.0667  0.2374
 8925SOL     OW27608   5.083   1.974   0.183 -0.3766 -0.1286  0.5118
 8925SOL    HW127609   5.035   1.937   0.257 -0.0955  1.0699  1.3088
 8925SOL    HW227610   5.103   1.898   0.128 -0.3141 -1.0891  1.8088
 8926SOL     OW27611   1.155   1.739   1.666  0.2725  0.0403 -0.1437
 8926SOL    HW127612   1.082   1.770   1.612 -0.1423 -1.7365 -0.6568
 8926SOL    HW227613   1.161   1.804   1.736 -0.3749  1.4085 -1.2820
 8927SOL     OW27614   0.633   1.728   6.127 -0.2649  0.5098 -0.1538
 8927SOL    HW127615   0.582   1.728   6.046 -2.7017  1.7171  1.2596
 8927SOL    HW227616   0.676   1.643   6.129  1.4057  1.1056 -3.5548
 8928SOL     OW27617   1.772   5.011   3.371  0.0316 -0.9571  0.6105
 8928SOL    HW127618   1.862   5.005   3.404  0.3210  0.1290  0.0694
 8928SOL    HW227619   1.761   4.934   3.316  0.8866 -0.7381  0.1148
 8929SOL     OW27620   0.598   1.845   2.395  0.2632 -0.2163 -0.2229
 8929SOL    HW127621   0.524   1.878   2.344 -0.7901  0.5206  1.6940
 8929SOL    HW227622   0.656   1.921   2.404  0.2957 -0.2608 -0.0553
 8930SOL     OW27623   6.045   3.134   6.279 -0.1014 -0.1274  0.3764
 8930SOL    HW127624   6.096   3.066   6.323  1.4647 -0.1055 -1.2756
 8930SOL    HW227625   6.062   3.214   6.330  2.5207  0.1225 -0.7438
 8931SOL     OW27626   1.522   2.683   0.659  0.6870 -0.6316 -0.4904
 8931SOL    HW127627   1.442   2.723   0.695  1.5647  0.0892  0.7374
 8931SOL    HW227628   1.501   2.667   0.567 -0.5822  0.3405 -0.4043
 8932SOL     OW27629   2.145   3.031   4.262 -0.5006  0.2566 -0.0602
 8932SOL    HW127630   2.241   3.038   4.258 -0.5398  0.6036 -0.4467
 8932SOL    HW227631   2.114   3.115   4.228 -0.9588 -0.5204 -1.6365
 8933SOL     OW27632   3.974   4.659   2.341  0.3845 -0.3153  0.0469
 8933SOL    HW127633   3.999   4.573   2.375  0.1154 -0.3087  0.2659
 8933SOL    HW227634   3.997   4.656   2.248  1.0150 -0.3784  0.2023
 8934SOL     OW27635   3.463   3.546   5.198 -0.1405  0.1105 -0.0265
 8934SOL    HW127636   3.446   3.565   5.106 -0.4499 -0.3771 -0.0786
 8934SOL    HW227637   3.550   3.507   5.199  0.7423  1.9842  0.1534
 8935SOL     OW27638   6.331   7.874   7.551  0.6302 -0.2998 -0.0091
 8935SOL    HW127639   6.262   7.931   7.584  1.2490  0.7370 -0.4471
 8935SOL    HW227640   6.380   7.929   7.490 -0.8574 -2.3293 -3.2262
 8936SOL     OW27641   7.922   1.835   4.887 -0.2130 -0.3124  0.4533
 8936SOL    HW127642   7.960   1.835   4.799 -1.1616 -0.1884  0.0358
 8936SOL    HW227643   7.832   1.866   4.875 -0.3803 -0.3716  1.4563
 8937SOL     OW27644   0.064   1.892   6.796 -0.3483  0.0300  0.0206
 8937SOL    HW127645  -0.001   1.927   6.857  0.3189  0.7598  0.3257
 8937SOL    HW227646   0.119   1.967   6.774  0.8640 -0.7282  0.3627
 8938SOL     OW27647   6.672   2.901   5.562  0.0245 -0.3227 -0.0955
 8938SOL    HW127648   6.743   2.932   5.617 -0.4729 -1.6601  1.3749
 8938SOL    HW227649   6.595   2.948   5.593 -0.3232 -1.3353  0.6222
 8939SOL     OW27650   2.496   1.376   7.911 -0.0868 -0.0572 -0.2684
 8939SOL    HW127651   2.404   1.351   7.910 -0.3832  1.0021 -0.5413
 8939SOL    HW227652   2.498   1.461   7.867  1.0788 -0.2677 -0.6422
 8940SOL     OW27653   4.454   0.367   2.523  0.1759  0.1805 -0.2762
 8940SOL    HW127654   4.542   0.331   2.515  0.0539 -0.6221  1.4671
 8940SOL    HW227655   4.469   0.460   2.542  0.6947 -0.0623  0.5961
 8941SOL     OW27656   7.485   5.528   5.120  0.8188 -0.2506  0.6913
 8941SOL    HW127657   7.400   5.554   5.086  1.1234  0.7472  0.6520
 8941SOL    HW227658   7.468   5.496   5.208  0.5919  1.5900  1.3668
 8942SOL     OW27659   3.665   7.895   0.483  0.4130  0.1176 -0.3872
 8942SOL    HW127660   3.692   7.970   0.536  1.7147 -0.7928  0.2833
 8942SOL    HW227661   3.668   7.926   0.393  0.9708  0.8630 -0.1215
 8943SOL     OW27662   7.241   6.240   1.787  0.8150 -0.4495  0.0148
 8943SOL    HW127663   7.314   6.240   1.725  0.9366 -1.5631  0.1393
 8943SOL    HW227664   7.185   6.168   1.757 -1.3897  1.7252 -1.3896
 8944SOL     OW27665   4.961   0.797   3.633 -0.0422  0.3054  0.3766
 8944SOL    HW127666   5.015   0.875   3.641  0.6410 -0.3071  2.1673
 8944SOL    HW227667   5.011   0.740   3.573 -0.0244  0.8049 -0.0896
 8945SOL     OW27668   1.583   7.557   6.043  0.3297 -0.5718 -0.5815
 8945SOL    HW127669   1.660   7.597   6.082 -0.6664 -0.8855  1.8861
 8945SOL    HW227670   1.613   7.471   6.012  1.2391 -0.1560 -0.8858
 8946SOL     OW27671   0.734   3.146   7.115  0.1427  0.1084  0.6670
 8946SOL    HW127672   0.703   3.149   7.024 -2.4187  1.2416  1.4775
 8946SOL    HW227673   0.796   3.219   7.121  1.1058 -0.5879 -0.3743
 8947SOL     OW27674   0.367   1.438   5.353  0.1965 -0.0370  0.2403
 8947SOL    HW127675   0.396   1.494   5.424  0.2851 -0.5105  0.5803
 8947SOL    HW227676   0.348   1.499   5.281 -1.1017  0.5680  1.0550
 8948SOL     OW27677   2.634   7.874   5.247  0.3863 -0.3016  0.6956
 8948SOL    HW127678   2.706   7.921   5.289  0.8763 -0.9735  0.6332
 8948SOL    HW227679   2.597   7.820   5.317  0.3730 -0.4487  0.5765
 8949SOL     OW27680   4.361   1.790   0.765  0.1879 -0.1825 -0.2915
 8949SOL    HW127681   4.309   1.835   0.698  1.7364 -1.8453 -2.8044
 8949SOL    HW227682   4.297   1.749   0.823 -1.2533  0.1854 -1.5671
 8950SOL     OW27683   4.120   0.754   6.348  0.0752  0.1007 -0.0748
 8950SOL    HW127684   4.102   0.668   6.310 -2.8555 -0.5122  2.3219
 8950SOL    HW227685   4.170   0.735   6.427 -0.1176  0.6669  0.1870
 8951SOL     OW27686   2.492   0.788   4.917 -0.1528 -0.1948 -0.0677
 8951SOL    HW127687   2.410   0.740   4.921 -0.6044  0.6513  2.5017
 8951SOL    HW227688   2.473   0.862   4.859 -0.0749 -1.8565 -2.3233
 8952SOL     OW27689   0.474   1.596   3.117  0.4864  0.1605  0.5449
 8952SOL    HW127690   0.518   1.634   3.194  0.5729 -0.3871  0.7678
 8952SOL    HW227691   0.520   1.634   3.043  1.5793 -0.6537  0.7754
 8953SOL     OW27692   4.785   7.353   2.324  0.0459  0.4597 -0.5636
 8953SOL    HW127693   4.715   7.386   2.268 -0.8412 -0.7041 -0.1728
 8953SOL    HW227694   4.854   7.420   2.317 -0.7407  1.2077 -1.6283
 8954SOL     OW27695   7.705   0.301   1.523 -0.2501 -0.1512 -0.3370
 8954SOL    HW127696   7.647   0.378   1.524 -0.0876 -0.0351  0.2755
 8954SOL    HW227697   7.791   0.336   1.499 -0.1311 -0.1091  0.1484
 8955SOL     OW27698   7.234   2.813   1.788 -0.1360  0.0660  0.4269
 8955SOL    HW127699   7.261   2.888   1.841 -0.6983  0.2229  0.4969
 8955SOL    HW227700   7.300   2.806   1.720 -1.0992  1.8233 -0.7521
 8956SOL     OW27701   7.580   2.907   2.924 -1.1050  0.1638 -0.2020
 8956SOL    HW127702   7.568   2.951   3.008 -0.7607 -0.3808  0.1417
 8956SOL    HW227703   7.602   2.817   2.948  0.2577  0.3109 -0.8490
 8957SOL     OW27704   0.280   1.591   4.927  0.0192 -0.1865 -0.3414
 8957SOL    HW127705   0.249   1.608   5.016  0.9545  1.0209 -0.2115
 8957SOL    HW227706   0.360   1.540   4.938  0.2295  0.1090 -0.4732
 8958SOL     OW27707   5.554   0.562   1.816 -0.3054  0.0937 -0.5961
 8958SOL    HW127708   5.486   0.617   1.778 -0.7532 -0.1734 -0.2013
 8958SOL    HW227709   5.633   0.583   1.766 -0.2399  1.7755  0.1544
 8959SOL     OW27710   0.208   0.699   7.078 -0.3011 -0.4502 -0.2244
 8959SOL    HW127711   0.208   0.639   7.003  0.7000  0.5698 -1.0676
 8959SOL    HW227712   0.168   0.648   7.148 -0.0357 -1.9065 -1.0770
 8960SOL     OW27713   5.622   0.573   6.225 -0.5793  0.4475 -0.1923
 8960SOL    HW127714   5.549   0.514   6.205 -1.0591  1.3912 -1.4135
 8960SOL    HW227715   5.696   0.515   6.243 -0.9488 -0.5498 -1.6704
 8961SOL     OW27716   2.375   1.565   5.798 -0.1482 -0.0828 -0.4029
 8961SOL    HW127717   2.390   1.659   5.800  0.0001 -0.0780 -1.3285
 8961SOL    HW227718   2.460   1.528   5.773 -0.1329 -0.4905  0.2167
 8962SOL     OW27719   0.624   6.247   7.157  0.2345 -0.3795 -0.4498
 8962SOL    HW127720   0.560   6.208   7.216 -0.7816  0.9452 -0.6407
 8962SOL    HW227721   0.598   6.216   7.070 -0.4839  0.5705 -0.5851
 8963SOL     OW27722   7.822   4.288   7.247 -0.1508  0.3323  0.3490
 8963SOL    HW127723   7.908   4.325   7.227  0.5829 -0.8771  1.1369
 8963SOL    HW227724   7.775   4.289   7.164  0.3309  1.7290  0.0709
 8964SOL     OW27725   5.799   2.498   0.400  0.3712  0.6882 -0.3467
 8964SOL    HW127726   5.716   2.451   0.402  0.3167  0.8140  1.3317
 8964SOL    HW227727   5.774   2.591   0.391  0.4316  0.5747 -2.0374
 8965SOL     OW27728   1.789   3.451   5.254 -0.1057 -0.9645 -0.1357
 8965SOL    HW127729   1.816   3.379   5.311 -0.1065  0.0484  1.1808
 8965SOL    HW227730   1.718   3.414   5.201 -1.5759 -1.3558  1.9820
 8966SOL     OW27731   4.662   5.071   4.937  0.7063  0.2011 -0.6273
 8966SOL    HW127732   4.640   5.043   5.027 -0.4105 -1.1368 -1.2687
 8966SOL    HW227733   4.671   4.989   4.889 -0.0413  0.9192 -2.0302
 8967SOL     OW27734   3.735   1.341   2.473 -0.2865 -0.0952 -0.1762
 8967SOL    HW127735   3.760   1.398   2.546 -1.4398  1.7113 -1.1116
 8967SOL    HW227736   3.751   1.253   2.506  1.4702  0.7160  1.3889
 8968SOL     OW27737   5.470   1.921   5.675 -0.1629  1.2758 -0.0963
 8968SOL    HW127738   5.483   2.007   5.715  1.7808  1.1695 -0.3911
 8968SOL    HW227739   5.500   1.859   5.741 -4.2481  0.5140  1.3054
 8969SOL     OW27740   3.328   6.561   4.070 -0.2715 -0.3981 -0.1426
 8969SOL    HW127741   3.262   6.512   4.121 -1.6487  0.4840 -1.0098
 8969SOL    HW227742   3.409   6.548   4.118 -1.4101 -0.0179  2.0240
 8970SOL     OW27743   2.057   5.351   5.925 -0.0108  0.6365  0.4947
 8970SOL    HW127744   2.078   5.328   6.015 -2.9541  0.5759  1.2843
 8970SOL    HW227745   1.989   5.289   5.900 -0.1774  1.4821 -1.3092
 8971SOL     OW27746   7.129   7.384   7.367 -0.2474 -0.0304  0.6159
 8971SOL    HW127747   7.162   7.403   7.279  0.1547  0.5368  0.8875
 8971SOL    HW227748   7.055   7.325   7.352  0.0150 -0.1893 -0.0833
 8972SOL     OW27749   0.328   4.178   5.588  0.5758  0.2783 -0.0672
 8972SOL    HW127750   0.287   4.257   5.551  0.9267  0.3729 -0.2662
 8972SOL    HW227751   0.355   4.127   5.511  1.1499  0.3893  0.0546
 8973SOL     OW27752   7.446   1.903   4.716 -0.6425 -0.1069 -0.4557
 8973SOL    HW127753   7.423   1.823   4.764  0.3210 -0.4185 -0.4904
 8973SOL    HW227754   7.499   1.953   4.777  0.4413 -0.4243 -1.1042
 8974SOL     OW27755   0.736   4.774   2.007 -0.0457  0.6989  0.2966
 8974SOL    HW127756   0.643   4.771   2.028  0.2658 -0.7061  1.6346
 8974SOL    HW227757   0.753   4.691   1.962  0.5971  0.8596  0.2330
 8975SOL     OW27758   7.027   6.893   0.877  0.6264 -0.0916  0.0912
 8975SOL    HW127759   7.029   6.921   0.969  0.2399  1.6767 -0.3871
 8975SOL    HW227760   7.119   6.884   0.853  0.9179  2.7893 -0.2292
 8976SOL     OW27761   4.350   2.960   1.372 -0.3997 -0.3480  0.0599
 8976SOL    HW127762   4.426   3.018   1.380  0.0452 -0.9175  0.0025
 8976SOL    HW227763   4.370   2.903   1.298 -1.5996  0.5540 -0.9916
 8977SOL     OW27764   2.351   6.756   6.129  0.1519  0.3159 -0.0067
 8977SOL    HW127765   2.278   6.811   6.159  0.8184  0.3466  1.6859
 8977SOL    HW227766   2.370   6.787   6.041 -0.6339  1.6167  0.2570
 8978SOL     OW27767   1.088   5.034   0.013  0.2783  0.0558  0.3294
 8978SOL    HW127768   1.169   5.074  -0.018 -1.5401  2.2620 -2.0106
 8978SOL    HW227769   1.088   4.946  -0.024  1.2639  0.2775 -0.2270
 8979SOL     OW27770   5.806   2.971   1.516  0.4954 -0.0418  0.6338
 8979SOL    HW127771   5.890   3.010   1.541 -1.3664  2.3763  3.9069
 8979SOL    HW227772   5.757   2.965   1.598 -2.0652 -2.7923 -0.9035
 8980SOL     OW27773   4.310   5.667   7.472 -0.3165 -0.7955 -0.0959
 8980SOL    HW127774   4.397   5.702   7.488 -0.9969  1.1336 -0.2566
 8980SOL    HW227775   4.296   5.677   7.378 -0.1840 -2.4831 -0.3255
 8981SOL     OW27776   5.987   0.465   7.512  0.5866  0.1734  0.0455
 8981SOL    HW127777   5.914   0.502   7.561  0.6910  0.9443 -0.3720
 8981SOL    HW227778   6.061   0.468   7.573  0.2082 -0.9418  0.5951
 8982SOL     OW27779   5.231   1.501   3.124  0.3163  0.0305 -0.2873
 8982SOL    HW127780   5.238   1.497   3.220  0.1144 -0.7619 -0.2996
 8982SOL    HW227781   5.254   1.413   3.095  2.2773  0.7638 -1.1172
 8983SOL     OW27782   2.663   1.233   6.409  0.5379 -0.1011  0.3548
 8983SOL    HW127783   2.595   1.298   6.423  1.3635  0.5209  1.7406
 8983SOL    HW227784   2.679   1.234   6.315  1.2599  2.5040  0.4165
 8984SOL     OW27785   5.712   6.224   5.136  0.2104 -0.5212 -0.2951
 8984SOL    HW127786   5.700   6.165   5.061  1.1437 -1.0812 -0.0245
 8984SOL    HW227787   5.794   6.269   5.118 -0.0990  0.1163 -0.1107
 8985SOL     OW27788   0.733   0.439   2.571  0.4044 -0.4838  0.3478
 8985SOL    HW127789   0.739   0.403   2.659 -1.4103  0.2787  0.8419
 8985SOL    HW227790   0.710   0.531   2.585  0.4290 -0.2682 -0.9245
 8986SOL     OW27791   1.828   7.480   7.628 -0.1803  0.1369 -0.2359
 8986SOL    HW127792   1.780   7.541   7.685  0.2151 -0.9221  1.2979
 8986SOL    HW227793   1.852   7.407   7.686  2.2006  0.0427 -1.2131
 8987SOL     OW27794   6.447   5.777   3.365  0.0668  0.1696 -0.1552
 8987SOL    HW127795   6.481   5.758   3.453  0.0516 -0.1712 -0.2194
 8987SOL    HW227796   6.512   5.739   3.306  0.1660  0.5547 -0.2925
 8988SOL     OW27797   5.352   0.692   6.321  0.6899  0.4298 -0.2237
 8988SOL    HW127798   5.267   0.722   6.291  0.8441  0.3555 -0.7505
 8988SOL    HW227799   5.415   0.752   6.280  0.9395 -0.0063 -0.4883
 8989SOL     OW27800   1.784   0.936   7.039  0.4524 -0.2362  0.1832
 8989SOL    HW127801   1.837   0.980   7.106  2.3413 -1.9524 -0.0631
 8989SOL    HW227802   1.797   0.988   6.960 -0.1439  0.6705  0.6760
 8990SOL     OW27803   4.212   2.866   6.175  0.1860  0.3979  0.0647
 8990SOL    HW127804   4.266   2.811   6.118 -0.2871 -0.9881  0.9065
 8990SOL    HW227805   4.158   2.917   6.115  2.1308  1.5710 -0.7987
 8991SOL     OW27806   4.908   7.018   4.943 -0.2556  0.1075 -0.2205
 8991SOL    HW127807   4.960   7.028   4.862 -0.8219  0.2616 -0.5707
 8991SOL    HW227808   4.974   7.005   5.011  0.2250 -0.3337 -0.7502
 8992SOL     OW27809   2.468   5.785   2.300 -0.8652 -0.7689 -0.1888
 8992SOL    HW127810   2.461   5.772   2.206  1.3142 -1.2175 -0.3341
 8992SOL    HW227811   2.530   5.719   2.330  0.1060  0.6861  1.2113
 8993SOL     OW27812   1.950   4.136   1.976  0.2657  0.2561  0.7502
 8993SOL    HW127813   2.029   4.150   1.923  0.0437 -0.4029  0.2200
 8993SOL    HW227814   1.949   4.209   2.038 -0.0579  1.7319 -0.8879
 8994SOL     OW27815   3.525   4.793   3.561 -0.6286  0.4217  0.1486
 8994SOL    HW127816   3.547   4.833   3.645  0.3849 -0.5555  0.3663
 8994SOL    HW227817   3.610   4.775   3.520 -1.1094  1.0133 -1.1593
 8995SOL     OW27818   3.324   4.387   0.321  0.2507 -0.2284 -0.2271
 8995SOL    HW127819   3.383   4.420   0.389  2.2520 -1.3699 -1.3162
 8995SOL    HW227820   3.275   4.464   0.292  1.8097  0.9579  0.1548
 8996SOL     OW27821   3.891   3.225   5.248  0.4739  0.7738 -0.2933
 8996SOL    HW127822   3.974   3.180   5.233  0.1365  0.3680 -0.9724
 8996SOL    HW227823   3.875   3.274   5.168 -0.2355  0.3770 -0.4006
 8997SOL     OW27824   3.486   2.582   0.606  0.3308 -0.1710 -0.2143
 8997SOL    HW127825   3.434   2.627   0.540 -1.0566 -1.8149 -0.3342
 8997SOL    HW227826   3.521   2.505   0.561 -1.1931 -1.6962  1.0091
 8998SOL     OW27827   6.834   4.412   5.285 -0.3364 -0.2741 -0.0031
 8998SOL    HW127828   6.800   4.335   5.331 -1.3190  0.3689  0.3851
 8998SOL    HW227829   6.929   4.409   5.299 -0.2213 -2.0094 -0.9437
 8999SOL     OW27830   7.140   7.628   2.356  0.0640  0.3799  0.1050
 8999SOL    HW127831   7.051   7.635   2.322  0.7610 -0.6413 -2.1926
 8999SOL    HW227832   7.172   7.545   2.321  3.2077  2.4786 -2.7062
 9000SOL     OW27833   6.402   1.357   3.216 -0.3304  0.3926  0.4762
 9000SOL    HW127834   6.347   1.406   3.154  1.9407 -1.4600 -3.3985
 9000SOL    HW227835   6.480   1.412   3.226  0.3627 -0.4031 -0.3856
 9001SOL     OW27836   0.015   4.841   2.425  0.1455  0.4138 -0.7397
 9001SOL    HW127837  -0.000   4.925   2.468 -0.1560  0.4758 -0.9609
 9001SOL    HW227838  -0.050   4.838   2.355 -1.4475 -1.0286  0.7044
 9002SOL     OW27839   6.605   7.315   4.255 -0.0136  0.1115  0.1870
 9002SOL    HW127840   6.590   7.312   4.350 -2.2331  2.3186  0.0056
 9002SOL    HW227841   6.664   7.241   4.238 -0.4362 -1.0447  3.1123
 9003SOL     OW27842   5.301   4.803   0.564  0.1407 -0.2044  0.7589
 9003SOL    HW127843   5.239   4.842   0.503  1.5573 -0.5134 -0.9873
 9003SOL    HW227844   5.331   4.876   0.618 -0.4577  0.2695  0.4608
 9004SOL     OW27845   3.768   3.266   2.593 -0.1793  0.3329  0.2449
 9004SOL    HW127846   3.812   3.191   2.633  0.4839 -1.1029 -2.8275
 9004SOL    HW227847   3.689   3.230   2.553 -0.5503  1.5560 -0.1929
 9005SOL     OW27848   0.349   2.982   2.036 -0.1782  0.0448 -0.8751
 9005SOL    HW127849   0.407   2.909   2.060 -0.5328  0.1955  0.5502
 9005SOL    HW227850   0.381   3.055   2.089 -1.1529  0.3421 -0.6808
 9006SOL     OW27851   2.170   0.691   6.638 -0.1725 -0.0526  0.4110
 9006SOL    HW127852   2.098   0.729   6.689  0.0145  0.6976  0.1238
 9006SOL    HW227853   2.201   0.762   6.583  1.2340 -0.1730  1.0129
 9007SOL     OW27854   0.694   2.883   5.198  0.6678 -0.7680 -0.3565
 9007SOL    HW127855   0.616   2.889   5.142 -0.0488 -0.4257  0.6559
 9007SOL    HW227856   0.746   2.813   5.158  0.0863 -0.6582 -1.3440
 9008SOL     OW27857   2.815   7.642   4.288 -0.0372 -0.6379 -0.8643
 9008SOL    HW127858   2.787   7.655   4.198 -0.2786 -0.6441 -0.7910
 9008SOL    HW227859   2.737   7.606   4.332  0.7112 -2.7563 -1.1634
 9009SOL     OW27860   5.229   5.869   2.568 -0.3160  0.0137 -0.0634
 9009SOL    HW127861   5.235   5.948   2.513  3.0349  1.6638  2.3022
 9009SOL    HW227862   5.285   5.806   2.524 -1.0531 -0.2185 -0.6937
 9010SOL     OW27863   3.507   2.946   3.946  0.3020 -0.3429 -0.3593
 9010SOL    HW127864   3.434   2.938   3.885  1.4270 -1.3851 -1.6180
 9010SOL    HW227865   3.582   2.970   3.892  0.8272  1.2389  0.9772
 9011SOL     OW27866   1.172   6.357   3.282  0.0058 -0.5215  0.3203
 9011SOL    HW127867   1.203   6.272   3.251  0.5236 -0.1427 -0.2147
 9011SOL    HW227868   1.209   6.421   3.221 -0.8192  0.0486  0.3879
 9012SOL     OW27869   2.589   4.838   2.555 -0.0494 -0.1349  0.0235
 9012SOL    HW127870   2.655   4.776   2.524 -1.1250 -0.4370 -1.7965
 9012SOL    HW227871   2.621   4.923   2.525 -0.1647 -0.2018 -0.2902
 9013SOL     OW27872   6.054   0.132   0.450 -0.0444 -0.9494  0.4428
 9013SOL    HW127873   6.124   0.083   0.494  0.9610  0.7132  0.7945
 9013SOL    HW227874   6.016   0.069   0.389  0.6296 -2.4012  1.4503
 9014SOL     OW27875   3.541   6.294   1.546  0.4976  0.2455  0.3164
 9014SOL    HW127876   3.487   6.314   1.470  1.4440  1.0508 -0.1789
 9014SOL    HW227877   3.500   6.217   1.586 -0.2771  0.0882 -0.7436
 9015SOL     OW27878   5.881   5.958   6.112  0.1495 -0.0025  0.1703
 9015SOL    HW127879   5.924   5.893   6.056  0.3247 -0.7243  1.1141
 9015SOL    HW227880   5.873   6.036   6.056  0.0998 -0.7670 -0.9247
 9016SOL     OW27881   0.248   4.250   7.077 -0.0357 -0.1557 -0.3810
 9016SOL    HW127882   0.228   4.323   7.135 -1.4933 -0.6103 -0.2827
 9016SOL    HW227883   0.173   4.245   7.018 -0.2376 -1.9357 -0.0149
 9017SOL     OW27884   7.873   4.524   1.751  0.4682  0.2979 -0.6848
 9017SOL    HW127885   7.819   4.458   1.793  0.4854  0.5842 -0.2051
 9017SOL    HW227886   7.827   4.544   1.669 -0.4929  0.9809  0.0041
 9018SOL     OW27887   4.879   1.229   3.444 -1.0476  0.1490 -0.0925
 9018SOL    HW127888   4.916   1.302   3.395 -1.2147  0.1772 -0.1774
 9018SOL    HW227889   4.790   1.220   3.410 -1.0255 -0.0971 -0.0865
 9019SOL     OW27890   2.778   7.381   1.290  0.1748 -0.2594 -0.0307
 9019SOL    HW127891   2.714   7.322   1.250  0.7723 -0.9828  0.0741
 9019SOL    HW227892   2.795   7.447   1.222 -2.2111  1.1846  0.6260
 9020SOL     OW27893   1.142   3.866   3.553  0.5878  0.9524  0.3630
 9020SOL    HW127894   1.207   3.808   3.513  0.7361  1.7446 -0.5799
 9020SOL    HW227895   1.100   3.812   3.620  0.6439 -0.2939 -0.5568
 9021SOL     OW27896   1.480   1.743   0.794  0.1849  0.0146 -0.6260
 9021SOL    HW127897   1.498   1.718   0.703  0.7904 -2.7073  0.1437
 9021SOL    HW227898   1.385   1.758   0.796  0.0867 -0.3644 -1.6296
 9022SOL     OW27899   5.471   3.784   6.866 -0.7235  0.3080  0.2607
 9022SOL    HW127900   5.376   3.798   6.863 -0.9993 -1.3616  0.0705
 9022SOL    HW227901   5.508   3.870   6.886 -2.1598  1.3508 -1.3524
 9023SOL     OW27902   6.183   7.232   2.376 -0.0189  0.0008  0.4611
 9023SOL    HW127903   6.089   7.233   2.394  0.0105  0.5655  0.5945
 9023SOL    HW227904   6.189   7.214   2.282 -0.2706  0.2473  0.3960
 9024SOL     OW27905   4.411   3.346   7.573  0.1031 -0.3221  0.7216
 9024SOL    HW127906   4.459   3.404   7.514  0.2546 -0.5076  0.6605
 9024SOL    HW227907   4.327   3.332   7.529  0.9384 -2.0622 -0.4659
 9025SOL     OW27908   5.824   4.276   3.002  0.2247 -0.4809 -0.5156
 9025SOL    HW127909   5.860   4.195   2.966  0.3845 -0.9324  0.6248
 9025SOL    HW227910   5.753   4.248   3.060  0.2928  0.1834 -0.0983
 9026SOL     OW27911   2.140   0.192   3.932  0.2134  0.2733 -0.5301
 9026SOL    HW127912   2.218   0.215   3.982  1.3250 -2.9619 -0.5876
 9026SOL    HW227913   2.080   0.155   3.996 -0.6481  1.1949 -0.7710
 9027SOL     OW27914   7.376   6.678   7.305 -0.4109  0.2607 -0.1238
 9027SOL    HW127915   7.448   6.671   7.242 -0.9120 -0.8135 -0.6145
 9027SOL    HW227916   7.405   6.627   7.380 -0.4881  0.1630 -0.1598
 9028SOL     OW27917   6.489   1.138   6.901  0.3955 -0.4623 -0.4870
 9028SOL    HW127918   6.496   1.059   6.848  1.7283  0.1950 -1.3561
 9028SOL    HW227919   6.451   1.203   6.842 -3.1015 -0.9999  0.9262
 9029SOL     OW27920   5.253   0.100   4.421  0.3701 -0.3947  0.7483
 9029SOL    HW127921   5.339   0.064   4.442  1.6942  0.3499 -2.7834
 9029SOL    HW227922   5.257   0.121   4.328 -2.7060  2.3050  1.0343
 9030SOL     OW27923   7.252   6.747   0.841  0.0451 -0.0895  0.1495
 9030SOL    HW127924   7.337   6.749   0.796 -0.0453 -0.3268 -0.0345
 9030SOL    HW227925   7.275   6.734   0.933  0.1755 -1.4977 -0.0521
 9031SOL     OW27926   5.590   4.814   3.650 -0.0648  0.6334 -0.6668
 9031SOL    HW127927   5.685   4.822   3.637  0.3701 -1.6722  0.5969
 9031SOL    HW227928   5.562   4.902   3.675  1.7621  1.3118 -0.8408
 9032SOL     OW27929   3.019   4.950   5.709 -0.6791 -0.1557 -0.1587
 9032SOL    HW127930   3.043   4.937   5.801 -1.0750  1.4483  0.2114
 9032SOL    HW227931   3.006   4.862   5.674  2.2818 -0.9850  0.5337
 9033SOL     OW27932   5.589   4.230   7.743  0.8427 -0.1508  0.4414
 9033SOL    HW127933   5.619   4.230   7.652 -0.4819  1.3282 -0.0432
 9033SOL    HW227934   5.594   4.322   7.769  0.5724 -0.4682  1.6459
 9034SOL     OW27935   3.900   0.855   6.025 -0.2523  0.1449  0.6353
 9034SOL    HW127936   3.939   0.770   6.048 -0.7873  0.1338  1.5452
 9034SOL    HW227937   3.955   0.888   5.954  0.3398 -0.6820  0.6937
 9035SOL     OW27938   4.075   4.202   4.619  0.0571 -0.0834 -0.1453
 9035SOL    HW127939   3.983   4.209   4.643 -0.2585  1.2427 -1.6063
 9035SOL    HW227940   4.115   4.284   4.647 -0.1208  1.0972 -3.0239
 9036SOL     OW27941   2.602   1.743   4.166 -0.0062  0.1938  0.6758
 9036SOL    HW127942   2.598   1.784   4.252 -0.5072  0.6947  0.4205
 9036SOL    HW227943   2.626   1.814   4.107  0.2048 -0.1185  0.3798
 9037SOL     OW27944   4.054   4.787   4.320 -0.7813  0.0267 -0.4012
 9037SOL    HW127945   4.008   4.863   4.285  0.3136  0.8505 -0.1065
 9037SOL    HW227946   4.130   4.776   4.262 -0.3643 -0.1922  0.1801
 9038SOL     OW27947   4.797   7.374   4.851 -0.0862  0.4873 -0.8567
 9038SOL    HW127948   4.774   7.371   4.944 -0.8834  1.8967 -0.9731
 9038SOL    HW227949   4.885   7.336   4.847  0.3940  1.3411  0.6386
 9039SOL     OW27950   3.069   4.562   6.889  0.3241  0.1775  0.6100
 9039SOL    HW127951   3.108   4.590   6.972 -0.0207 -1.6159  1.4314
 9039SOL    HW227952   3.141   4.522   6.841  0.3759  0.6285  0.2980
 9040SOL     OW27953   4.027   2.430   0.459  0.1903  0.0357  0.3729
 9040SOL    HW127954   4.008   2.383   0.377 -2.9719 -1.8181  1.9602
 9040SOL    HW227955   4.016   2.522   0.436 -0.6410 -0.4326 -1.3357
 9041SOL     OW27956   1.667   4.409   3.345  0.0604 -0.0528  0.1872
 9041SOL    HW127957   1.722   4.401   3.267  0.0543  1.4519  0.0020
 9041SOL    HW227958   1.692   4.334   3.399  2.5501  0.7134  0.2382
 9042SOL     OW27959   4.140   2.010   7.646  0.1384 -0.0969  0.0590
 9042SOL    HW127960   4.107   1.931   7.688  0.0576  1.0107  2.1645
 9042SOL    HW227961   4.063   2.066   7.636 -0.0043 -0.5970 -2.3575
 9043SOL     OW27962   2.062   6.720   0.924 -0.2402 -0.6541 -0.1721
 9043SOL    HW127963   2.116   6.740   1.001  2.0454  0.9758 -2.0738
 9043SOL    HW227964   2.110   6.651   0.879 -0.5826 -0.3074 -1.0806
 9044SOL     OW27965   6.044   4.678   5.451 -0.2653  0.2034 -0.0246
 9044SOL    HW127966   6.137   4.670   5.471 -0.1666  0.7532 -0.2531
 9044SOL    HW227967   6.019   4.591   5.419  0.6275  0.5626 -1.8079
 9045SOL     OW27968   2.631   7.441   2.784  0.2202  0.4480 -0.5689
 9045SOL    HW127969   2.541   7.423   2.812  0.8753 -0.7005  0.9662
 9045SOL    HW227970   2.661   7.358   2.746  1.5614 -0.2368  1.7361
 9046SOL     OW27971   1.527   0.934   1.789 -0.3880 -0.3207 -0.2542
 9046SOL    HW127972   1.579   0.949   1.868 -1.5215 -0.6772  0.5922
 9046SOL    HW227973   1.591   0.909   1.722  0.7927  1.5185  0.1049
 9047SOL     OW27974   6.650   2.547   1.120 -0.1210 -0.3104  0.0014
 9047SOL    HW127975   6.596   2.476   1.084  1.7350 -1.2738 -1.0372
 9047SOL    HW227976   6.637   2.541   1.215 -0.8800 -1.3115 -0.1502
 9048SOL     OW27977   4.801   5.537   7.810 -0.1051  0.2913 -0.3377
 9048SOL    HW127978   4.787   5.599   7.738 -0.7065 -0.9039 -1.2853
 9048SOL    HW227979   4.848   5.464   7.769  0.0882 -0.1358  0.6311
 9049SOL     OW27980   1.327   4.482   4.119 -0.1485 -0.3027 -0.5220
 9049SOL    HW127981   1.405   4.524   4.082  0.3732 -0.7867  0.0113
 9049SOL    HW227982   1.361   4.414   4.177 -0.8756  1.1313  1.7324
 9050SOL     OW27983   7.306   3.192   1.910  0.0042  0.4270  0.3444
 9050SOL    HW127984   7.233   3.134   1.930 -0.1955  0.1442 -1.0917
 9050SOL    HW227985   7.361   3.190   1.989 -0.4506 -1.0301  0.6495
 9051SOL     OW27986   6.676   1.979   6.044 -0.5463  0.5693 -0.0186
 9051SOL    HW127987   6.654   1.904   5.989 -1.3816 -0.3160  1.4419
 9051SOL    HW227988   6.655   1.950   6.133  3.3152  0.8850  1.1742
 9052SOL     OW27989   0.382   7.741   1.147  0.2814 -0.6255 -0.4431
 9052SOL    HW127990   0.348   7.663   1.190 -0.3090 -0.0214  0.2029
 9052SOL    HW227991   0.333   7.746   1.065  0.8960 -1.3686 -0.8766
 9053SOL     OW27992   7.662   0.984   1.237  0.1197 -0.0651 -0.1595
 9053SOL    HW127993   7.572   0.999   1.209 -0.3924 -1.9910  0.3265
 9053SOL    HW227994   7.701   1.071   1.241 -2.2645  1.0158  1.4658
 9054SOL     OW27995   1.012   7.466   2.734 -0.3016  0.0121 -0.0072
 9054SOL    HW127996   0.960   7.386   2.741  1.9154 -1.5490 -0.2235
 9054SOL    HW227997   1.101   7.435   2.716  0.3074  2.5918 -2.0377
 9055SOL     OW27998   4.382   6.502   5.127 -0.2740  0.0961  0.1587
 9055SOL    HW127999   4.351   6.589   5.151 -1.2665  0.0202 -0.8103
 9055SOL    HW228000   4.450   6.483   5.192 -0.0863  1.5509  0.4300
 9056SOL     OW28001   7.116   0.692   3.140  0.1552 -0.7949  0.3780
 9056SOL    HW128002   7.029   0.722   3.168  0.7706  1.6094 -0.1121
 9056SOL    HW228003   7.100   0.604   3.106 -2.1087 -0.4027  0.2290
 9057SOL     OW28004   4.741   5.885   5.530  0.0799  0.3683  0.2032
 9057SOL    HW128005   4.730   5.874   5.624  0.5529 -0.2818  0.1911
 9057SOL    HW228006   4.651   5.889   5.495 -0.1033  2.0317  0.8253
 9058SOL     OW28007   4.535   4.490   2.062  0.4995  0.1073  0.9824
 9058SOL    HW128008   4.447   4.471   2.093  0.7529 -0.6054  1.2872
 9058SOL    HW228009   4.561   4.569   2.110 -0.0711  0.4743  0.6899
 9059SOL     OW28010   1.583   7.571   6.452 -0.1038  0.3796 -0.6820
 9059SOL    HW128011   1.628   7.541   6.531 -0.2443  1.9403  0.0368
 9059SOL    HW228012   1.622   7.656   6.433 -2.8466  1.9269  0.1092
 9060SOL     OW28013   4.105   1.283   3.704  0.5887  0.2165  0.4010
 9060SOL    HW128014   4.186   1.240   3.677  2.2200  3.7442 -0.9847
 9060SOL    HW228015   4.124   1.315   3.793 -0.4145 -1.3004  1.2080
 9061SOL     OW28016   5.580   5.736   5.637  0.3236  0.0723  0.0977
 9061SOL    HW128017   5.623   5.730   5.722 -0.0192  1.1209  0.3574
 9061SOL    HW228018   5.488   5.722   5.656  0.2312  0.4355 -0.0776
 9062SOL     OW28019   1.673   7.732   6.877  0.3307  0.2925 -0.2836
 9062SOL    HW128020   1.753   7.770   6.912  0.8016 -0.7991 -0.1602
 9062SOL    HW228021   1.702   7.662   6.819 -0.5387 -0.7252  0.4793
 9063SOL     OW28022   2.033   1.267   2.338  0.2183  0.2294  0.4319
 9063SOL    HW128023   1.953   1.297   2.382 -0.8074 -1.7387  0.0139
 9063SOL    HW228024   2.037   1.320   2.259  1.0671  2.4952  1.8700
 9064SOL     OW28025   2.003   7.062   0.471 -0.1491 -0.0626  0.1477
 9064SOL    HW128026   1.938   7.065   0.401  0.5268  1.6492 -0.4684
 9064SOL    HW228027   2.031   7.153   0.482  3.3539 -0.8673 -0.8089
 9065SOL     OW28028   7.106   1.698   3.989 -0.6455 -0.0312  0.0491
 9065SOL    HW128029   7.155   1.780   3.979  0.1072 -0.6283 -1.4632
 9065SOL    HW228030   7.079   1.674   3.901 -0.1970 -1.7891  0.3312
 9066SOL     OW28031   3.492   6.782   3.223 -0.4183  0.3665 -0.5277
 9066SOL    HW128032   3.453   6.695   3.210  1.0745 -0.4933  0.4110
 9066SOL    HW228033   3.474   6.828   3.141 -1.1426 -0.8655 -1.1014
 9067SOL     OW28034   0.404   0.030   7.289 -0.1751  0.4838 -0.3882
 9067SOL    HW128035   0.480   0.061   7.240 -0.9849  3.1274 -0.1322
 9067SOL    HW228036   0.333   0.089   7.264 -1.4251 -0.0982  1.5551
 9068SOL     OW28037   1.595   5.362   3.608 -0.1182 -0.0209 -0.3319
 9068SOL    HW128038   1.667   5.413   3.571  0.7101  0.3694  1.7162
 9068SOL    HW228039   1.633   5.277   3.628 -1.1324 -1.0223 -2.3626
 9069SOL     OW28040   7.055   7.422   0.624  0.1203 -0.1831  0.2283
 9069SOL    HW128041   6.980   7.415   0.682  0.5643  0.4734  0.9045
 9069SOL    HW228042   7.028   7.378   0.544 -0.9810  0.0446  0.4615
 9070SOL     OW28043   1.399   1.857   3.627  0.2963 -0.1611 -0.2218
 9070SOL    HW128044   1.475   1.893   3.583  0.2385 -2.1001 -2.0637
 9070SOL    HW228045   1.428   1.772   3.660 -0.0531  0.6511  2.4547
 9071SOL     OW28046   2.920   4.073   4.147 -0.1400 -0.1164 -0.3806
 9071SOL    HW128047   2.835   4.035   4.123 -0.6493  0.2313  0.8110
 9071SOL    HW228048   2.972   3.999   4.178 -0.4072 -0.1535 -0.0254
 9072SOL     OW28049   6.326   5.847   2.069 -0.0173  0.6472 -0.6188
 9072SOL    HW128050   6.406   5.844   2.122 -1.1144 -1.5378  1.0615
 9072SOL    HW228051   6.318   5.938   2.042  2.0384  1.2800  0.7288
 9073SOL     OW28052   4.402   1.416   1.651  0.2738 -0.5558 -0.3023
 9073SOL    HW128053   4.447   1.414   1.567 -0.3825  0.2620 -0.6791
 9073SOL    HW228054   4.464   1.460   1.710  0.5813 -0.7939 -0.4422
 9074SOL     OW28055   6.946   5.045   6.038  0.6764  0.1832 -0.2626
 9074SOL    HW128056   6.858   5.081   6.031  1.2979  1.5655 -1.3995
 9074SOL    HW228057   6.967   5.015   5.950  1.4491  0.0889 -0.0566
 9075SOL     OW28058   4.370   0.581   7.532  0.1092 -0.2997 -0.9965
 9075SOL    HW128059   4.381   0.526   7.454  1.6744  0.4398 -1.3385
 9075SOL    HW228060   4.409   0.665   7.507  0.4834  0.0052  0.5269
 9076SOL     OW28061   0.804   1.571   4.964  0.5147  0.2372 -0.7511
 9076SOL    HW128062   0.796   1.612   4.878 -0.8677  1.6142  0.0075
 9076SOL    HW228063   0.825   1.642   5.024 -0.8628 -0.2801  0.4193
 9077SOL     OW28064   5.812   6.148   7.040  0.3824 -0.6606  0.6312
 9077SOL    HW128065   5.795   6.240   7.023  1.4551 -0.4392  0.7391
 9077SOL    HW228066   5.823   6.142   7.135 -0.9199 -1.1258  0.7864
 9078SOL     OW28067   2.869   4.601   1.483  0.0192 -0.4360 -0.0003
 9078SOL    HW128068   2.942   4.657   1.508  0.2770 -1.1280  0.8210
 9078SOL    HW228069   2.791   4.650   1.512  0.1598  0.1033 -0.4989
 9079SOL     OW28070   6.820   3.661   3.790 -0.0869  0.0407  0.0582
 9079SOL    HW128071   6.887   3.717   3.829  0.6247 -0.8050  0.0993
 9079SOL    HW228072   6.849   3.648   3.700  0.0519 -0.6939  0.2020
 9080SOL     OW28073   3.185   4.658   5.358  0.2545 -0.2921  0.2677
 9080SOL    HW128074   3.138   4.586   5.316 -2.3107  0.9856  0.7818
 9080SOL    HW228075   3.238   4.696   5.287 -0.5707 -0.9184 -0.7156
 9081SOL     OW28076   6.547   5.229   1.963  0.5346  0.4015 -0.5940
 9081SOL    HW128077   6.498   5.154   1.996  1.4694 -0.1156 -0.3496
 9081SOL    HW228078   6.495   5.305   1.989  0.5503 -0.0633  0.8459
 9082SOL     OW28079   7.144   7.649   1.242  0.2524 -0.8794  0.6000
 9082SOL    HW128080   7.184   7.615   1.322  1.0918 -2.0639 -0.2949
 9082SOL    HW228081   7.158   7.581   1.177  0.0437  0.2738 -0.7052
 9083SOL     OW28082   1.029   7.233   0.514 -0.0120  0.3820 -0.2074
 9083SOL    HW128083   1.071   7.281   0.586 -0.4350  0.4726 -0.0173
 9083SOL    HW228084   1.092   7.164   0.491 -0.5313 -0.6487  1.3151
 9084SOL     OW28085   0.661   4.103   5.933 -0.0113 -0.1652  0.2537
 9084SOL    HW128086   0.604   4.135   5.863 -1.0615 -1.3066  0.5553
 9084SOL    HW228087   0.615   4.027   5.969  1.6929 -1.1065  0.5408
 9085SOL     OW28088   3.376   2.591   4.244  0.0556  0.2447  0.4545
 9085SOL    HW128089   3.318   2.541   4.186 -1.1026  3.0909 -1.0281
 9085SOL    HW228090   3.464   2.571   4.213 -0.4030 -0.3875 -0.4799
 9086SOL     OW28091   2.836   3.227   5.351  0.4852 -0.2819  0.1465
 9086SOL    HW128092   2.896   3.184   5.412  2.0806  1.3371 -0.1991
 9086SOL    HW228093   2.837   3.319   5.377 -0.3101  0.1126 -1.1319
 9087SOL     OW28094   6.570   0.414   7.836  0.6237  0.7963  0.3355
 9087SOL    HW128095   6.660   0.380   7.835  0.5415  0.5983 -1.0396
 9087SOL    HW228096   6.568   0.471   7.914  1.6146 -0.0346  1.0047
 9088SOL     OW28097   0.631   7.700   3.052  0.6182 -0.5071  0.0246
 9088SOL    HW128098   0.563   7.665   3.110  0.1798 -1.6725 -1.1533
 9088SOL    HW228099   0.586   7.717   2.970  1.4535  0.1240 -0.3120
 9089SOL     OW28100   4.293   1.355   0.445  0.0884 -0.2645 -0.3444
 9089SOL    HW128101   4.344   1.347   0.525 -0.7515 -0.7191  0.1676
 9089SOL    HW228102   4.347   1.407   0.386  0.0779  1.4499  1.0749
 9090SOL     OW28103   5.925   4.241   7.703 -0.3526  0.2295  0.0145
 9090SOL    HW128104   5.890   4.201   7.623 -0.6541  1.0487 -0.2756
 9090SOL    HW228105   5.975   4.316   7.672  2.0082 -1.1111  0.4033
 9091SOL     OW28106   6.050   4.029   2.345  0.3455 -0.1933  0.3117
 9091SOL    HW128107   5.991   4.102   2.328 -1.2567 -1.3370  0.7810
 9091SOL    HW228108   6.075   4.039   2.437  0.2627 -0.1259  0.3270
 9092SOL     OW28109   5.944   6.839   5.836  0.1045 -0.6132  0.3664
 9092SOL    HW128110   5.992   6.884   5.766 -2.0286 -0.1132 -0.8675
 9092SOL    HW228111   5.898   6.908   5.883 -0.4020 -1.1691  0.7128
 9093SOL     OW28112   4.008   3.904   7.681  0.2552  0.1983  0.3715
 9093SOL    HW128113   3.973   3.993   7.686  1.4829  0.6986  0.3947
 9093SOL    HW228114   4.054   3.902   7.597  1.2139 -0.0437  0.8959
 9094SOL     OW28115   6.437   6.523   6.184 -0.0576 -0.0441 -0.4204
 9094SOL    HW128116   6.499   6.451   6.185  2.1858  1.5570 -3.6196
 9094SOL    HW228117   6.435   6.552   6.092 -2.5811  2.5137  0.2638
 9095SOL     OW28118   6.538   5.865   2.262  0.3014  0.4399  0.1092
 9095SOL    HW128119   6.556   5.883   2.354  0.5828 -0.5640  0.2613
 9095SOL    HW228120   6.593   5.927   2.214  0.5849  0.5807  0.6164
 9096SOL     OW28121   0.364   7.787   3.680  0.4462 -0.6374  0.1198
 9096SOL    HW128122   0.419   7.708   3.682  0.6897 -0.4794 -0.2691
 9096SOL    HW228123   0.329   7.790   3.591  3.0811  1.4688 -1.0037
 9097SOL     OW28124   7.611   6.998   1.180 -0.2030  0.7620 -0.0187
 9097SOL    HW128125   7.557   6.969   1.253  1.0623  1.1001  1.0821
 9097SOL    HW228126   7.676   6.928   1.169 -0.5177  0.6042 -0.9800
 9098SOL     OW28127   6.472   5.934   1.391 -0.1744  0.2253 -0.1485
 9098SOL    HW128128   6.489   6.025   1.367 -0.5736  0.2650 -0.3015
 9098SOL    HW228129   6.426   5.897   1.315 -1.0041  0.2128  0.3395
 9099SOL     OW28130   1.185   1.734   0.184  0.1135  0.0381 -0.2591
 9099SOL    HW128131   1.252   1.666   0.196 -0.9054 -0.9813 -0.2151
 9099SOL    HW228132   1.104   1.686   0.172 -0.4894  1.2369 -1.2219
 9100SOL     OW28133   3.797   4.032   0.984  0.1617 -0.0789 -0.2428
 9100SOL    HW128134   3.730   4.036   0.916  0.9695 -0.1073 -1.0573
 9100SOL    HW228135   3.863   4.096   0.956 -0.7579  1.9317  1.9112
 9101SOL     OW28136   3.314   7.223   2.558 -0.0680  0.1556  0.1114
 9101SOL    HW128137   3.236   7.276   2.573 -0.2078  0.6468 -2.0581
 9101SOL    HW228138   3.351   7.257   2.477  1.5763 -1.0543  0.3022
 9102SOL     OW28139   7.557   7.271   4.616  0.0451  0.2570  0.0446
 9102SOL    HW128140   7.645   7.234   4.625 -0.0487  0.2037  0.8200
 9102SOL    HW228141   7.571   7.366   4.612  0.1628  0.2295 -0.2179
 9103SOL     OW28142   1.094   1.173   0.764 -0.0119  0.8985  0.1632
 9103SOL    HW128143   1.011   1.150   0.723 -0.3928  0.6846  1.0345
 9103SOL    HW228144   1.120   1.095   0.813 -0.2610  1.5858  1.4354
 9104SOL     OW28145   6.228   0.612   7.914  0.4964  0.0876 -0.2811
 9104SOL    HW128146   6.290   0.548   7.949 -0.3244  0.7164  2.6191
 9104SOL    HW228147   6.171   0.632   7.988 -0.4442  2.7871 -1.6129
 9105SOL     OW28148   5.580   2.624   0.272  0.2344 -0.2233 -0.7139
 9105SOL    HW128149   5.561   2.587   0.186  1.5441  0.2939 -1.2414
 9105SOL    HW228150   5.637   2.699   0.254 -1.7275  1.6720  0.3634
 9106SOL     OW28151   1.565   4.257   4.046  0.3516  0.2979  0.2978
 9106SOL    HW128152   1.614   4.227   4.123 -0.4990  0.2621  0.8496
 9106SOL    HW228153   1.628   4.306   3.995  1.2049 -0.5501  0.4982
 9107SOL     OW28154   2.962   0.436   5.923 -0.2372  0.0132  0.4444
 9107SOL    HW128155   3.033   0.487   5.885  1.4582 -0.2835  2.9275
 9107SOL    HW228156   2.960   0.355   5.872  1.0790  0.1284  0.1737
 9108SOL     OW28157   0.537   3.023   0.773  0.1813  0.0493  0.5916
 9108SOL    HW128158   0.552   3.088   0.841 -0.5462  1.7790 -0.8372
 9108SOL    HW228159   0.623   2.987   0.755  0.9223  1.9786  0.1058
 9109SOL     OW28160   4.756   5.027   6.095  0.0865  0.2238 -0.2332
 9109SOL    HW128161   4.721   4.957   6.040  0.0712  0.2235 -0.2232
 9109SOL    HW228162   4.719   5.107   6.057 -0.4436  0.1756  0.1727
 9110SOL     OW28163   6.825   4.020   0.140  0.2346  0.4648  0.8777
 9110SOL    HW128164   6.742   4.008   0.186  0.7082  1.2906  1.9899
 9110SOL    HW228165   6.814   4.101   0.091 -0.7807 -1.1143 -1.7216
 9111SOL     OW28166   3.956   2.856   5.351 -0.2239 -0.1246  0.4132
 9111SOL    HW128167   3.999   2.939   5.330  0.9413 -0.4640  1.3093
 9111SOL    HW228168   3.906   2.833   5.272  1.5714  0.1133 -0.8522
 9112SOL     OW28169   6.642   5.204   4.376 -0.3074  0.0416  0.7220
 9112SOL    HW128170   6.583   5.162   4.314  1.7158  0.6223 -1.7249
 9112SOL    HW228171   6.725   5.158   4.366  0.4103  0.9213  2.1770
 9113SOL     OW28172   2.298   0.650   5.611  0.0265 -0.3595  0.4973
 9113SOL    HW128173   2.332   0.561   5.627 -0.4230 -0.5742  0.2781
 9113SOL    HW228174   2.328   0.671   5.522 -1.6902 -1.1703 -0.3172
 9114SOL     OW28175   5.433   5.763   1.107 -0.0380  0.1457 -0.3489
 9114SOL    HW128176   5.344   5.730   1.093 -0.8296  1.4082  1.4236
 9114SOL    HW228177   5.469   5.706   1.175 -0.5490  1.3856  0.9939
 9115SOL     OW28178   6.558   6.267   3.580 -0.3489 -0.5517  0.2252
 9115SOL    HW128179   6.613   6.340   3.607  0.2200 -1.1353  0.6925
 9115SOL    HW228180   6.490   6.263   3.647  0.4364 -1.3182  1.0026
 9116SOL     OW28181   6.858   1.453   6.638 -0.4214 -0.5360  0.0979
 9116SOL    HW128182   6.870   1.544   6.665  0.1389 -1.2618  2.5380
 9116SOL    HW228183   6.932   1.435   6.581 -0.3760  0.4210 -0.1721
 9117SOL     OW28184   7.393   2.818   0.236  0.0396  0.3264 -0.2536
 9117SOL    HW128185   7.334   2.747   0.210  0.8051 -0.9586  1.3008
 9117SOL    HW228186   7.352   2.857   0.313  0.6256  0.2074  0.1241
 9118SOL     OW28187   7.028   6.499   7.368 -0.3982  0.4111  0.3664
 9118SOL    HW128188   7.035   6.564   7.297  2.1773 -0.3041 -0.1479
 9118SOL    HW228189   6.969   6.432   7.333  0.8979  0.0303 -1.2014
 9119SOL     OW28190   0.642   6.657   7.616  0.4473  0.3269 -0.2609
 9119SOL    HW128191   0.614   6.744   7.587 -0.9695 -0.6545 -1.9720
 9119SOL    HW228192   0.606   6.597   7.552  1.6490 -1.5400  0.7202
 9120SOL     OW28193   5.760   4.169   6.879 -0.3622  0.3690  0.1554
 9120SOL    HW128194   5.840   4.124   6.850  0.9525 -0.4485  4.4162
 9120SOL    HW228195   5.790   4.254   6.910 -1.5348  0.8821 -0.0484
 9121SOL     OW28196   3.223   2.614   1.846  0.3081 -0.4309  0.0069
 9121SOL    HW128197   3.258   2.604   1.757  0.7018  1.7853 -0.1301
 9121SOL    HW228198   3.165   2.689   1.841  0.3005 -0.2994  1.6200
 9122SOL     OW28199   0.025   3.498   1.890  0.1847  0.1874 -0.1519
 9122SOL    HW128200  -0.050   3.468   1.838  0.0485 -0.1832  0.2552
 9122SOL    HW228201   0.101   3.463   1.844  0.1362  0.9152 -0.8009
 9123SOL     OW28202   0.572   6.650   6.116 -0.0442  0.0046 -0.5777
 9123SOL    HW128203   0.630   6.680   6.047 -1.4850 -0.8925 -2.2564
 9123SOL    HW228204   0.503   6.716   6.120  0.3482  0.3894  0.5121
 9124SOL     OW28205   5.277   6.260   4.309 -0.2539  0.1005  0.7470
 9124SOL    HW128206   5.349   6.299   4.259 -0.1300 -0.8227  0.1851
 9124SOL    HW228207   5.257   6.179   4.262 -0.4616 -0.5468  1.9344
 9125SOL     OW28208   4.033   5.065   2.583 -0.1278  0.9719 -0.3140
 9125SOL    HW128209   4.069   5.139   2.631  0.5052  1.5453 -1.6370
 9125SOL    HW228210   3.945   5.054   2.618  0.8869  0.2140  2.2486
 9126SOL     OW28211   3.405   1.046   1.550  0.1147 -0.2486 -0.2510
 9126SOL    HW128212   3.441   1.134   1.542 -0.8325  0.1627 -0.1383
 9126SOL    HW228213   3.480   0.990   1.569  0.4942  0.7864  1.4869
 9127SOL     OW28214   3.638   1.002   7.093  0.0222 -0.8059  0.1689
 9127SOL    HW128215   3.587   1.050   7.028  0.7112  0.3040  0.4282
 9127SOL    HW228216   3.699   0.949   7.042  1.0554  0.6071 -0.0977
 9128SOL     OW28217   6.983   6.210   6.252  0.0239 -0.1479  0.2628
 9128SOL    HW128218   7.054   6.193   6.190 -1.0702 -1.1982 -0.7394
 9128SOL    HW228219   6.950   6.124   6.275 -0.6679  0.3142  1.0307
 9129SOL     OW28220   4.943   5.217   3.819 -0.0250 -0.1322  0.3297
 9129SOL    HW128221   5.013   5.154   3.798 -0.3635  0.3310 -2.5790
 9129SOL    HW228222   4.909   5.244   3.734 -1.5469  2.1782  1.5784
 9130SOL     OW28223   7.917   2.682   7.939  0.1986 -0.0250 -0.2692
 9130SOL    HW128224   7.832   2.720   7.918 -0.5318  0.1125  2.5665
 9130SOL    HW228225   7.968   2.754   7.976  0.4316 -0.7810  0.9222
 9131SOL     OW28226   0.020   4.276   0.867 -0.0970 -0.4903  0.7461
 9131SOL    HW128227   0.070   4.272   0.949 -0.0872 -0.4850  0.7401
 9131SOL    HW228228   0.028   4.188   0.830  0.8400 -0.1873  0.1891
 9132SOL     OW28229   0.027   7.024   1.174  0.1061  0.1930 -0.2703
 9132SOL    HW128230  -0.016   6.939   1.171 -0.8579  0.6736 -0.2577
 9132SOL    HW228231   0.100   7.011   1.235  0.7393 -0.9489 -1.2161
 9133SOL     OW28232   1.421   0.228   0.633  0.0017  0.3292  0.1772
 9133SOL    HW128233   1.494   0.201   0.689 -1.6676 -2.5252  1.1946
 9133SOL    HW228234   1.391   0.147   0.593 -1.4009  1.7204 -1.7520
 9134SOL     OW28235   7.629   6.514   7.346 -0.2132  0.0490 -0.2447
 9134SOL    HW128236   7.627   6.421   7.325 -2.3898  0.3009 -1.4481
 9134SOL    HW228237   7.581   6.521   7.428  0.8018  0.0459  0.3745
 9135SOL     OW28238   1.932   5.734   0.409 -0.2718 -0.0966  0.4307
 9135SOL    HW128239   1.873   5.771   0.475  1.0925 -0.0222  1.6752
 9135SOL    HW228240   2.017   5.732   0.453  0.7975  0.4119 -1.5224
 9136SOL     OW28241   6.415   3.505   6.202 -0.5322 -0.4794 -0.0949
 9136SOL    HW128242   6.371   3.546   6.277 -0.3754  0.0438 -0.2865
 9136SOL    HW228243   6.461   3.577   6.159  1.5579 -1.1760  0.8105
 9137SOL     OW28244   6.563   0.356   0.638 -0.4906 -0.1552 -0.4858
 9137SOL    HW128245   6.627   0.287   0.623  0.2736  0.1865  0.9635
 9137SOL    HW228246   6.484   0.309   0.667 -0.3816 -0.4909 -0.7295
 9138SOL     OW28247   0.191   7.821   7.539 -0.0545 -0.2152 -0.0159
 9138SOL    HW128248   0.166   7.848   7.450 -3.4338  1.2338  1.1959
 9138SOL    HW228249   0.173   7.727   7.541 -0.5707 -0.1455 -0.7167
 9139SOL     OW28250   1.401   0.176   3.475  0.2200  0.4750 -0.3930
 9139SOL    HW128251   1.392   0.179   3.570  1.2600  0.4105 -0.2767
 9139SOL    HW228252   1.474   0.234   3.456  0.5003 -0.0800 -1.0801
 9140SOL     OW28253   7.524   1.796   1.969 -0.0143 -0.4377  0.2370
 9140SOL    HW128254   7.463   1.784   1.897  0.1190  1.2914 -0.2080
 9140SOL    HW228255   7.533   1.709   2.008 -2.6233 -0.7692  0.2224
 9141SOL     OW28256   3.705   6.589   6.880 -0.9229  0.2106 -0.5335
 9141SOL    HW128257   3.615   6.619   6.871 -1.2000 -0.4333  0.0196
 9141SOL    HW228258   3.743   6.645   6.947 -0.4853  1.3930 -1.7212
 9142SOL     OW28259   0.575   3.144   1.306 -0.2983 -0.2486 -0.7726
 9142SOL    HW128260   0.548   3.188   1.225  1.0434 -0.1931 -1.2155
 9142SOL    HW228261   0.500   3.153   1.364 -2.6076 -2.9741 -2.9880
 9143SOL     OW28262   0.147   4.943   3.023  0.1418  0.0897  0.2184
 9143SOL    HW128263   0.212   4.874   3.034 -1.4775 -1.6913 -0.7758
 9143SOL    HW228264   0.172   4.987   2.941  0.4783 -0.1299  0.2006
 9144SOL     OW28265   5.188   7.020   0.394  0.2887  0.5902  0.9028
 9144SOL    HW128266   5.111   7.026   0.337  0.0389  1.7979  1.3417
 9144SOL    HW228267   5.153   7.028   0.483  0.7636 -0.4724  1.1960
 9145SOL     OW28268   6.015   7.445   2.782 -0.1256  0.1912  0.2780
 9145SOL    HW128269   6.005   7.373   2.845  0.5504  0.6235  0.8851
 9145SOL    HW228270   6.073   7.507   2.824 -0.9413  1.2639 -0.1108
 9146SOL     OW28271   6.127   3.814   1.904  0.0605  0.1275 -0.8278
 9146SOL    HW128272   6.065   3.886   1.918 -0.5060 -0.6780  1.0874
 9146SOL    HW228273   6.197   3.830   1.968 -0.2684 -1.2109 -0.1066
 9147SOL     OW28274   3.404   6.381   0.920 -0.3260 -0.0684  0.1664
 9147SOL    HW128275   3.489   6.336   0.924  0.6464  1.5589 -0.7915
 9147SOL    HW228276   3.362   6.346   0.841 -0.5931 -0.8992  0.6582
 9148SOL     OW28277   5.557   2.933   1.668 -0.2988  0.1078  0.1701
 9148SOL    HW128278   5.541   3.027   1.675 -0.3447  0.2188 -1.1747
 9148SOL    HW228279   5.553   2.901   1.758  0.1510  1.4640  0.6958
 9149SOL     OW28280   5.105   7.863   2.732  0.2762  0.3034 -0.1853
 9149SOL    HW128281   5.155   7.792   2.693  0.9182 -0.0372  1.1859
 9149SOL    HW228282   5.126   7.940   2.679  1.5896 -0.0189 -0.1716
 9150SOL     OW28283   4.337   3.721   1.771  0.1479  0.4078 -0.3878
 9150SOL    HW128284   4.289   3.764   1.842  0.5642  0.4694 -0.1388
 9150SOL    HW228285   4.419   3.771   1.765  1.0153 -0.8604  0.4670
 9151SOL     OW28286   7.827   3.150   6.676 -0.3880  0.3511  0.0248
 9151SOL    HW128287   7.819   3.209   6.602 -0.0928  0.4085  0.0369
 9151SOL    HW228288   7.846   3.065   6.637  4.2415  1.1018  0.0805
 9152SOL     OW28289   7.229   2.446   5.335  1.2365 -0.0784  0.4663
 9152SOL    HW128290   7.217   2.359   5.371  1.3657 -1.1532 -1.8893
 9152SOL    HW228291   7.322   2.451   5.312  1.0807  0.3559 -0.1299
 9153SOL     OW28292   3.095   5.910   1.555  0.1158 -0.3908 -0.4931
 9153SOL    HW128293   3.180   5.953   1.558 -0.2696  0.5287 -2.0439
 9153SOL    HW228294   3.037   5.973   1.514 -1.4880 -0.7890  1.0269
 9154SOL     OW28295   1.338   4.991   5.089  0.2012 -0.2618  0.6453
 9154SOL    HW128296   1.246   4.977   5.066  0.3700 -0.4433  0.0692
 9154SOL    HW228297   1.337   5.064   5.150 -0.3204 -0.2226  0.5916
 9155SOL     OW28298   7.781   2.910   6.500 -0.3505  0.1112 -0.3888
 9155SOL    HW128299   7.739   2.912   6.414 -0.6263  0.4423 -0.2520
 9155SOL    HW228300   7.823   2.824   6.505 -1.1077 -0.2700 -0.4826
 9156SOL     OW28301   6.637   3.542   2.555  0.5224  0.5763  0.3362
 9156SOL    HW128302   6.624   3.516   2.463  1.4250  1.6363 -0.1037
 9156SOL    HW228303   6.619   3.462   2.604  0.6709 -0.1887 -0.8028
 9157SOL     OW28304   4.699   7.238   1.648  0.3931 -0.4011 -0.1722
 9157SOL    HW128305   4.789   7.229   1.680  0.5667 -0.4226 -0.6674
 9157SOL    HW228306   4.698   7.323   1.604 -0.6295  1.1033  2.4876
 9158SOL     OW28307   7.942   3.355   4.068  0.2323  0.1641 -0.2739
 9158SOL    HW128308   8.035   3.346   4.089  0.2954 -0.6632 -0.8408
 9158SOL    HW228309   7.937   3.438   4.021  0.9169 -0.3582 -1.3372
 9159SOL     OW28310   1.674   1.836   1.309 -0.4761  0.2292 -0.2402
 9159SOL    HW128311   1.641   1.805   1.394 -2.2933  1.2009 -0.5385
 9159SOL    HW228312   1.609   1.806   1.246 -0.1907  1.2154 -1.0280
 9160SOL     OW28313   1.023   0.395   6.592 -0.6068  0.1830 -0.3535
 9160SOL    HW128314   1.101   0.386   6.537  0.0854  1.4470  0.3663
 9160SOL    HW228315   0.998   0.487   6.582 -0.4142  0.4669  1.4641
 9161SOL     OW28316   5.090   4.278   4.657  0.8253  0.3549 -0.2593
 9161SOL    HW128317   5.095   4.354   4.600  2.4335 -0.1143 -0.7811
 9161SOL    HW228318   5.023   4.222   4.617 -0.1394  1.3268 -0.0406
 9162SOL     OW28319   0.292   2.753   4.930 -0.2444 -0.1925  0.1011
 9162SOL    HW128320   0.309   2.663   4.958  0.0275 -0.0333  0.4637
 9162SOL    HW228321   0.344   2.764   4.851 -0.5636 -0.4661 -0.1510
 9163SOL     OW28322   2.493   2.064   5.542 -0.1867 -0.4212 -0.4709
 9163SOL    HW128323   2.433   1.991   5.527 -0.4458 -0.0435 -1.3416
 9163SOL    HW228324   2.563   2.051   5.479 -0.2527  0.0960 -0.6599
 9164SOL     OW28325   5.840   1.286   5.086  0.3514  0.2852  0.5038
 9164SOL    HW128326   5.862   1.290   4.993  0.3848 -0.5352  0.4661
 9164SOL    HW228327   5.840   1.192   5.106  0.0703  0.4434  1.2641
 9165SOL     OW28328   6.885   4.353   6.341  0.3555  0.2112 -0.1555
 9165SOL    HW128329   6.939   4.432   6.346  1.1853 -0.3563  0.0241
 9165SOL    HW228330   6.822   4.363   6.412  2.0751 -0.4390  1.5480
 9166SOL     OW28331   7.733   4.940   5.908 -0.3084  0.3265 -0.0518
 9166SOL    HW128332   7.823   4.909   5.906  0.4803  2.4482 -0.5409
 9166SOL    HW228333   7.685   4.879   5.851  1.5436  1.0842 -2.6219
 9167SOL     OW28334   4.173   3.714   0.308 -0.0761  0.2389 -0.0555
 9167SOL    HW128335   4.235   3.707   0.235 -1.0529 -0.5878 -0.8563
 9167SOL    HW228336   4.096   3.756   0.270 -0.5401 -0.0526  0.5436
 9168SOL     OW28337   1.585   2.069   1.978  0.3183 -0.0736  0.3248
 9168SOL    HW128338   1.615   1.981   1.954 -0.2987 -0.8145  2.0945
 9168SOL    HW228339   1.655   2.127   1.949  1.0953 -1.2262 -0.1842
 9169SOL     OW28340   1.499   2.828   0.354 -0.6216 -0.0117  0.6191
 9169SOL    HW128341   1.511   2.914   0.396 -0.3615  0.1731  0.1708
 9169SOL    HW228342   1.405   2.823   0.338 -0.6565  0.1285  0.7787
 9170SOL     OW28343   7.382   0.197   7.058  0.5678  0.0065 -0.2905
 9170SOL    HW128344   7.394   0.117   7.109 -0.8004 -1.1354 -1.6643
 9170SOL    HW228345   7.464   0.244   7.067  0.4882 -0.2252  2.7630
 9171SOL     OW28346   4.952   5.705   4.614  0.2943 -0.6138  0.4703
 9171SOL    HW128347   5.040   5.721   4.578  0.0637  0.0155  0.1783
 9171SOL    HW228348   4.937   5.778   4.673 -0.2396 -0.4553  0.1387
 9172SOL     OW28349   5.722   1.236   0.321  0.2946  0.2591 -0.1036
 9172SOL    HW128350   5.773   1.208   0.397  1.0901  0.3566 -0.5887
 9172SOL    HW228351   5.661   1.164   0.305  0.5573 -0.0397  0.2346
 9173SOL     OW28352   6.469   3.952   6.266  0.0805  0.7191  0.7254
 9173SOL    HW128353   6.525   4.027   6.247  1.0996 -0.1423  0.1936
 9173SOL    HW228354   6.452   3.913   6.181  0.7245 -0.4310  1.0929
 9174SOL     OW28355   1.518   3.631   1.143  0.2974 -0.2570  0.5981
 9174SOL    HW128356   1.464   3.556   1.120  0.0145 -0.1121  0.7794
 9174SOL    HW228357   1.560   3.605   1.225  0.5321 -0.3855  0.4364
 9175SOL     OW28358   5.920   4.995   2.086  0.2784  0.0750  0.2014
 9175SOL    HW128359   5.877   5.050   2.021  0.0176 -0.2660  0.0844
 9175SOL    HW228360   5.850   4.968   2.145  0.7342  1.6055  1.5277
 9176SOL     OW28361   4.590   0.018   4.599  0.2703  0.2366 -0.0192
 9176SOL    HW128362   4.564   0.015   4.691  0.0749  0.1973 -0.0762
 9176SOL    HW228363   4.655  -0.052   4.590 -0.1513 -0.1504 -0.0515
 9177SOL     OW28364   4.847   0.555   4.383 -0.0856  0.5846 -0.7325
 9177SOL    HW128365   4.891   0.591   4.460  0.1843  1.1128 -1.1278
 9177SOL    HW228366   4.851   0.625   4.319  0.5152 -0.1796 -1.5491
 9178SOL     OW28367   0.570   2.148   6.008 -0.3372  0.1932 -0.8505
 9178SOL    HW128368   0.575   2.096   5.928  0.5092  0.4420 -0.9754
 9178SOL    HW228369   0.485   2.191   6.004 -0.6329 -0.4177 -1.2198
 9179SOL     OW28370   5.678   7.320   4.909 -0.3267  0.1206  0.1651
 9179SOL    HW128371   5.628   7.401   4.920  1.0789  0.6609  4.6191
 9179SOL    HW228372   5.744   7.342   4.843 -0.8213  2.1353  0.2517
 9180SOL     OW28373   3.622   3.139   6.709  0.6281 -0.5094 -0.2248
 9180SOL    HW128374   3.715   3.123   6.721  0.6615  1.0726  2.5065
 9180SOL    HW228375   3.593   3.177   6.792 -3.0979 -3.5278  0.1399
 9181SOL     OW28376   4.851   1.522   6.447  0.0365  0.2304  0.0150
 9181SOL    HW128377   4.889   1.609   6.432  2.8191 -0.5874  1.5672
 9181SOL    HW228378   4.776   1.539   6.504  1.5047  1.5723  1.6874
 9182SOL     OW28379   1.767   0.359   2.417 -0.5503 -0.5560  0.1836
 9182SOL    HW128380   1.694   0.397   2.464 -0.0841 -0.6133  0.9723
 9182SOL    HW228381   1.742   0.268   2.404  0.5224 -1.3574  2.9715
 9183SOL     OW28382   3.126   3.214   3.759 -0.3726 -0.3760 -0.8808
 9183SOL    HW128383   3.045   3.228   3.808 -0.8712  0.9488 -2.0377
 9183SOL    HW228384   3.175   3.295   3.768  1.0317 -1.2810  0.0932
 9184SOL     OW28385   1.593   2.074   5.999 -0.6712  0.0219 -0.2890
 9184SOL    HW128386   1.639   2.068   5.915  0.1443 -0.2710  0.1662
 9184SOL    HW228387   1.514   2.124   5.979  0.0176  0.8553 -1.0295
 9185SOL     OW28388   3.445   4.433   4.740 -0.3990  0.4010  0.5113
 9185SOL    HW128389   3.416   4.348   4.707  1.0036  0.4500 -0.9950
 9185SOL    HW228390   3.382   4.496   4.704  1.0891  0.4559 -2.3293
 9186SOL     OW28391   2.092   2.505   2.691 -0.0635  0.5266 -0.2848
 9186SOL    HW128392   2.049   2.488   2.607  0.3458 -1.7426 -0.0798
 9186SOL    HW228393   2.166   2.561   2.667  0.8295 -1.1416 -1.7132
 9187SOL     OW28394   4.145   3.046   5.249 -0.0722 -0.2697  0.9693
 9187SOL    HW128395   4.188   3.026   5.166 -0.2624 -2.0236  1.2603
 9187SOL    HW228396   4.216   3.063   5.310  0.0650  3.1949  0.0298
 9188SOL     OW28397   5.551   4.025   6.937 -0.2505 -0.1913 -0.0790
 9188SOL    HW128398   5.613   4.088   6.899 -1.4361  0.1615 -1.5696
 9188SOL    HW228399   5.515   4.071   7.013 -0.4722  0.6239 -0.6516
 9189SOL     OW28400   7.772   0.820   1.074  0.1544 -0.4924 -0.3342
 9189SOL    HW128401   7.737   0.879   1.140  1.3540  3.3260 -2.7393
 9189SOL    HW228402   7.732   0.850   0.992  1.4398 -2.6135 -1.8393
 9190SOL     OW28403   6.691   0.616   3.542  0.1466 -0.1549  0.0302
 9190SOL    HW128404   6.622   0.556   3.569  1.7323 -2.4256 -0.6762
 9190SOL    HW228405   6.728   0.649   3.624 -1.1801  0.4310  0.4173
 9191SOL     OW28406   7.488   2.016   7.256  0.2222  0.2686 -0.5638
 9191SOL    HW128407   7.572   2.002   7.299 -0.5535  0.7889  1.2069
 9191SOL    HW228408   7.423   1.993   7.323 -1.0490  0.5342 -1.6684
 9192SOL     OW28409   5.753   1.657   5.997  0.2928 -0.1533  0.1581
 9192SOL    HW128410   5.756   1.594   5.926 -0.6155  0.1359 -0.1576
 9192SOL    HW228411   5.831   1.711   5.985 -0.7864  1.0981 -1.7918
 9193SOL     OW28412   6.133   5.349   1.380 -0.0487  0.1535 -0.8201
 9193SOL    HW128413   6.089   5.273   1.419 -2.1567  1.0909 -1.2536
 9193SOL    HW228414   6.213   5.312   1.342 -0.4376 -1.6511 -0.0098
 9194SOL     OW28415   2.689   3.686   3.968  0.7244 -0.0103 -0.4967
 9194SOL    HW128416   2.778   3.691   3.934  0.6572 -0.3166 -0.7273
 9194SOL    HW228417   2.634   3.718   3.896  0.7148  1.0860 -0.0174
 9195SOL     OW28418   5.286   1.007   4.692  0.2310  0.1975 -0.6874
 9195SOL    HW128419   5.288   0.984   4.599 -0.7464 -1.5733 -0.3054
 9195SOL    HW228420   5.314   0.928   4.737 -2.2342  0.0058  0.6563
 9196SOL     OW28421   4.231   5.337   4.024 -0.1007  0.9373 -0.0704
 9196SOL    HW128422   4.136   5.343   4.025 -0.2214 -0.5787  0.1325
 9196SOL    HW228423   4.259   5.409   3.968 -1.1735  3.1667  2.0993
 9197SOL     OW28424   6.530   0.780   1.393 -0.0653  0.1944 -0.0010
 9197SOL    HW128425   6.508   0.719   1.463  0.1878  1.0471  0.8465
 9197SOL    HW228426   6.535   0.726   1.314  1.0650 -1.0275  0.8747
 9198SOL     OW28427   7.050   1.855   0.721  0.1391  0.2821  0.5405
 9198SOL    HW128428   7.087   1.863   0.809  0.8286  3.1225  0.0689
 9198SOL    HW228429   6.976   1.915   0.721  0.1009  0.2572 -0.8140
 9199SOL     OW28430   6.173   2.157   1.325 -0.1285 -0.5901 -0.2392
 9199SOL    HW128431   6.150   2.203   1.244 -1.2093 -1.1291 -0.2628
 9199SOL    HW228432   6.202   2.227   1.384 -0.8000  0.0185 -0.6017
 9200SOL     OW28433   7.740   6.938   0.885  0.2975  0.4311 -0.1248
 9200SOL    HW128434   7.694   6.863   0.846  1.0074  0.3244 -0.7807
 9200SOL    HW228435   7.778   6.903   0.966  1.4487 -0.1990 -0.9142
 9201SOL     OW28436   3.253   2.219   4.937  0.1218 -0.6250  0.5777
 9201SOL    HW128437   3.338   2.225   4.894 -0.0306 -0.7824  0.2487
 9201SOL    HW228438   3.189   2.238   4.868 -0.0977 -0.1507  0.9021
 9202SOL     OW28439   5.255   5.299   2.548  0.0366  0.0711 -0.0276
 9202SOL    HW128440   5.284   5.384   2.515  0.8955  0.4403  1.5503
 9202SOL    HW228441   5.304   5.235   2.497  1.8925  0.6384  0.9256
 9203SOL     OW28442   6.078   3.756   7.856  0.1826  0.3253  0.0187
 9203SOL    HW128443   6.044   3.674   7.820 -1.0314  0.8568 -0.1096
 9203SOL    HW228444   6.000   3.811   7.865  0.5919  0.6269  2.3707
 9204SOL     OW28445   6.864   7.640   2.274 -0.1282  0.0992  0.5535
 9204SOL    HW128446   6.833   7.560   2.317 -0.9206 -0.9354 -1.8034
 9204SOL    HW228447   6.804   7.708   2.306 -1.4205 -0.8520  0.2448
 9205SOL     OW28448   7.076   6.654   1.194 -0.0534 -0.2120  0.6610
 9205SOL    HW128449   6.997   6.705   1.213 -1.6728 -1.9067 -1.0733
 9205SOL    HW228450   7.062   6.621   1.106  2.2568 -1.2754  0.6326
 9206SOL     OW28451   6.500   1.771   0.225  0.4668  0.4148  0.5621
 9206SOL    HW128452   6.512   1.732   0.312 -0.3286 -0.0610  0.4704
 9206SOL    HW228453   6.427   1.723   0.187  0.7978  0.6290 -0.3748
 9207SOL     OW28454   0.009   6.124   0.601  0.2637 -0.5099  0.7254
 9207SOL    HW128455  -0.019   6.144   0.512  0.7901 -0.6053  0.5320
 9207SOL    HW228456   0.105   6.133   0.599  0.1799  0.7813  1.6103
 9208SOL     OW28457   7.001   1.291   0.718 -0.0442  0.0326 -0.4394
 9208SOL    HW128458   6.924   1.312   0.667 -0.3231 -1.0383 -0.4948
 9208SOL    HW228459   6.967   1.252   0.799  0.3980 -2.7186 -1.4720
 9209SOL     OW28460   3.996   7.046   3.782  0.0675 -0.5420  0.5490
 9209SOL    HW128461   3.923   7.002   3.739  1.0475  0.4323 -2.3628
 9209SOL    HW228462   4.020   7.117   3.723  1.4855  1.0661  2.8603
 9210SOL     OW28463   5.008   1.963   1.906  0.0453 -0.0035  0.0267
 9210SOL    HW128464   5.096   2.001   1.907  0.3926 -0.6801  2.8030
 9210SOL    HW228465   4.962   2.012   1.838  1.8175  2.1360  0.2592
 9211SOL     OW28466   3.210   3.622   4.023 -0.4230  0.6513 -0.6923
 9211SOL    HW128467   3.157   3.581   3.955  0.2243 -0.0424 -0.7845
 9211SOL    HW228468   3.277   3.557   4.045 -0.3332  1.0423  0.2728
 9212SOL     OW28469   5.797   5.099   5.200  0.6453  0.2675  0.4556
 9212SOL    HW128470   5.783   5.018   5.248  0.2867  0.0609  0.0055
 9212SOL    HW228471   5.879   5.134   5.235  1.3545 -0.8102 -0.0789
 9213SOL     OW28472   5.612   3.619   2.064  0.5835  0.5438 -0.4215
 9213SOL    HW128473   5.524   3.592   2.091  0.5151  1.1331 -0.0262
 9213SOL    HW228474   5.625   3.704   2.106  1.0767  0.7838 -1.0367
 9214SOL     OW28475   2.696   1.025   6.772 -0.4013 -0.2895 -0.3543
 9214SOL    HW128476   2.763   0.970   6.733 -3.0891 -2.9032 -1.7307
 9214SOL    HW228477   2.698   1.107   6.722  1.2556 -0.5645 -0.7770
 9215SOL     OW28478   6.121   5.575   6.383 -0.3205 -0.1861  0.0358
 9215SOL    HW128479   6.037   5.540   6.353  0.2276 -1.9454  0.4250
 9215SOL    HW228480   6.103   5.667   6.400 -1.9842 -0.3480 -0.5903
 9216SOL     OW28481   1.339   2.466   6.941  0.1573 -0.1969  0.2373
 9216SOL    HW128482   1.306   2.556   6.943 -1.1271 -0.6505  1.0106
 9216SOL    HW228483   1.403   2.465   6.870 -0.0052  1.2618  0.0448
 9217SOL     OW28484   1.070   1.277   7.776  0.2634  0.3420  0.2083
 9217SOL    HW128485   1.115   1.298   7.694 -1.5950  1.1149 -0.6807
 9217SOL    HW228486   1.074   1.182   7.783  1.5086  0.3576 -0.1234
 9218SOL     OW28487   0.737   7.550   7.271 -0.5664  0.5431  0.1575
 9218SOL    HW128488   0.674   7.545   7.343 -0.5477  0.4126  0.1661
 9218SOL    HW228489   0.691   7.509   7.197  0.0571 -0.9688  0.5617
 9219SOL     OW28490   1.475   3.573   2.790 -0.5354 -0.0049  0.3512
 9219SOL    HW128491   1.557   3.623   2.789 -0.0187 -0.8126  1.0136
 9219SOL    HW228492   1.487   3.507   2.722 -0.5032 -0.3311  0.6745
 9220SOL     OW28493   6.879   1.400   1.946  0.3157  0.0998 -0.5444
 9220SOL    HW128494   6.909   1.438   2.029 -0.0256  1.7116 -1.1226
 9220SOL    HW228495   6.800   1.450   1.925 -0.0967 -0.8970 -1.4037
 9221SOL     OW28496   1.003   1.698   1.385 -0.5269  0.2192 -0.5896
 9221SOL    HW128497   0.949   1.667   1.313  1.4853 -0.8362 -1.7390
 9221SOL    HW228498   1.066   1.758   1.345  1.0665 -0.9057  0.0911
 9222SOL     OW28499   0.779   6.400   3.215 -0.1381 -0.1606 -0.0948
 9222SOL    HW128500   0.854   6.416   3.273  0.3445 -1.3028 -0.3762
 9222SOL    HW228501   0.762   6.485   3.174 -0.1701  0.5605  1.3173
 9223SOL     OW28502   6.154   7.888   4.923  0.2731  0.0027 -0.6525
 9223SOL    HW128503   6.067   7.855   4.946  0.4042  0.9780  1.5356
 9223SOL    HW228504   6.205   7.810   4.902 -0.1492 -1.0150  1.7059
 9224SOL     OW28505   5.092   0.188   1.299  0.4219  0.3543 -0.5813
 9224SOL    HW128506   5.057   0.230   1.378 -1.1057 -0.6824 -0.6626
 9224SOL    HW228507   5.071   0.095   1.310 -0.9149  0.3482 -2.7496
 9225SOL     OW28508   1.641   0.017   1.228 -0.2626 -0.4114  0.1317
 9225SOL    HW128509   1.639   0.054   1.139 -1.0859 -2.4073 -0.7414
 9225SOL    HW228510   1.615  -0.075   1.216  1.8820 -1.3603  2.1495
 9226SOL     OW28511   0.172   2.439   0.670 -0.0566  0.2051 -0.2267
 9226SOL    HW128512   0.138   2.526   0.650  0.2167  0.0162 -1.6457
 9226SOL    HW228513   0.101   2.395   0.716 -0.9405  0.5228 -1.2532
 9227SOL     OW28514   2.905   4.008   2.385 -0.2716  0.1531  0.3748
 9227SOL    HW128515   2.899   4.047   2.298  2.2026  1.0048  0.5050
 9227SOL    HW228516   2.947   4.075   2.438  0.0655 -1.0879  1.7289
 9228SOL     OW28517   1.032   1.827   2.346  0.4927  0.6705  0.0128
 9228SOL    HW128518   1.109   1.814   2.290  0.8728  0.9298  0.4759
 9228SOL    HW228519   1.015   1.921   2.343  0.1283  0.6020 -0.1679
 9229SOL     OW28520   7.739   0.562   0.806 -1.0742  0.0923 -0.0857
 9229SOL    HW128521   7.657   0.513   0.809 -0.0573 -1.6453  1.1081
 9229SOL    HW228522   7.796   0.511   0.749 -0.4787  0.7188 -0.0730
 9230SOL     OW28523   1.493   3.328   2.638  0.4385 -0.1418  0.0181
 9230SOL    HW128524   1.555   3.321   2.565  0.8467 -2.6076  0.5224
 9230SOL    HW228525   1.533   3.277   2.708 -0.3991  1.3971  1.7045
 9231SOL     OW28526   7.920   5.351   3.304  0.1865  0.5673 -0.1737
 9231SOL    HW128527   7.983   5.422   3.290  3.7687 -2.3801 -0.4595
 9231SOL    HW228528   7.955   5.303   3.379 -2.5135 -0.5827  0.4657
 9232SOL     OW28529   2.341   6.319   3.016 -0.3144  0.1116  0.6555
 9232SOL    HW128530   2.426   6.285   2.988  0.2502  1.8146  0.1667
 9232SOL    HW228531   2.296   6.244   3.055  1.3171 -0.8679  0.7196
 9233SOL     OW28532   3.289   5.601   6.763 -0.0475  0.1911 -0.2813
 9233SOL    HW128533   3.238   5.682   6.764  0.1015  0.3018 -0.9840
 9233SOL    HW228534   3.365   5.619   6.818  0.6118  0.9503 -1.4143
 9234SOL     OW28535   3.338   4.388   2.926  0.6340 -0.5555  0.1814
 9234SOL    HW128536   3.261   4.436   2.957  1.8195  0.5879  1.4690
 9234SOL    HW228537   3.344   4.313   2.985  0.6853 -0.4802  0.2711
 9235SOL     OW28538   6.071   1.668   0.238 -0.2209  0.0884  0.3083
 9235SOL    HW128539   6.109   1.669   0.150  0.1502  1.8147  0.4423
 9235SOL    HW228540   6.006   1.598   0.235  1.4626 -1.5227 -0.5771
 9236SOL     OW28541   0.564   4.097   2.227  0.3064 -0.0219  0.0127
 9236SOL    HW128542   0.578   4.073   2.319  2.0363  0.8814  0.0175
 9236SOL    HW228543   0.585   4.017   2.179  0.1791 -0.2644  0.3523
 9237SOL     OW28544   1.817   4.603   5.537 -0.1405 -0.1568  0.0377
 9237SOL    HW128545   1.809   4.639   5.449  1.3052  0.5278  0.1616
 9237SOL    HW228546   1.737   4.631   5.581  0.1406  1.4374 -0.3937
 9238SOL     OW28547   0.915   1.758   6.276  0.4122  0.1790 -1.1037
 9238SOL    HW128548   0.962   1.706   6.341  2.7131  0.1841 -2.6452
 9238SOL    HW228549   0.858   1.696   6.231 -2.6580  0.4774  1.9480
 9239SOL     OW28550   4.805   1.044   1.552  0.2767  0.4672  0.4048
 9239SOL    HW128551   4.746   1.071   1.622 -0.8879  1.0606 -0.7660
 9239SOL    HW228552   4.869   0.988   1.595  0.1723  1.5925  2.1111
 9240SOL     OW28553   2.820   3.184   6.013  0.5398 -0.1167  0.0091
 9240SOL    HW128554   2.764   3.174   6.089 -2.1900  1.2092 -1.6682
 9240SOL    HW228555   2.818   3.097   5.971 -0.0932 -0.1590  0.1092
 9241SOL     OW28556   3.261   5.565   5.097 -0.3710  0.0761  0.7575
 9241SOL    HW128557   3.345   5.607   5.115 -0.1945 -0.4289  1.1509
 9241SOL    HW228558   3.199   5.609   5.156 -0.4094  0.5344  0.3776
 9242SOL     OW28559   4.429   4.363   7.098 -0.3647 -0.1353  0.2519
 9242SOL    HW128560   4.489   4.298   7.135  2.2087 -0.2751 -3.6054
 9242SOL    HW228561   4.377   4.314   7.034  0.3810  1.1885 -1.4513
 9243SOL     OW28562   1.377   1.406   0.522 -0.1358  0.2249  0.6950
 9243SOL    HW128563   1.462   1.444   0.501  0.5371  0.1807  3.0764
 9243SOL    HW228564   1.314   1.469   0.486  0.8900  0.7874 -0.1985
 9244SOL     OW28565   0.718   0.937   6.119 -0.0859 -0.1184  0.3857
 9244SOL    HW128566   0.660   1.013   6.124  0.2086  0.0403  1.8252
 9244SOL    HW228567   0.696   0.896   6.036 -1.0150  0.9319  0.0838
 9245SOL     OW28568   1.849   2.249   7.744  0.0669 -0.0825  0.5001
 9245SOL    HW128569   1.933   2.230   7.788  0.7449  1.7320  0.0771
 9245SOL    HW228570   1.802   2.304   7.807 -1.5886 -2.4177  1.4478
 9246SOL     OW28571   4.685   2.724   6.304  0.6627  0.1985  0.0263
 9246SOL    HW128572   4.693   2.632   6.277  0.2074 -0.2637  1.3862
 9246SOL    HW228573   4.775   2.758   6.299  0.9561 -0.5249  0.1826
 9247SOL     OW28574   1.044   5.060   0.284  0.1055  0.0443 -0.0714
 9247SOL    HW128575   1.119   5.114   0.257 -0.3524  0.7605  0.0519
 9247SOL    HW228576   1.017   5.015   0.203  1.2785 -1.0038  0.0992
 9248SOL     OW28577   6.492   4.733   2.666 -0.0958  0.2541 -0.8590
 9248SOL    HW128578   6.499   4.821   2.703 -2.1650  0.2287 -0.2940
 9248SOL    HW228579   6.582   4.707   2.650  0.6801  1.7108  0.7688
 9249SOL     OW28580   4.347   5.623   2.060  0.5624 -0.1156 -0.3400
 9249SOL    HW128581   4.308   5.700   2.102 -0.2593 -1.1209  0.8396
 9249SOL    HW228582   4.426   5.656   2.018  0.0674  1.4252 -0.1328
 9250SOL     OW28583   6.247   3.201   6.494 -0.2611  0.2331  0.0160
 9250SOL    HW128584   6.263   3.232   6.583 -0.7200  1.7336 -0.3983
 9250SOL    HW228585   6.194   3.269   6.454 -2.7022 -1.8269 -0.4866
 9251SOL     OW28586   0.660   2.585   2.395  0.3229  0.2018  0.9304
 9251SOL    HW128587   0.676   2.577   2.489  0.4501 -1.3653  0.8013
 9251SOL    HW228588   0.595   2.517   2.376 -0.5735  1.2523  0.0645
 9252SOL     OW28589   0.082   0.125   6.452 -0.0206  0.3345 -0.4512
 9252SOL    HW128590   0.092   0.045   6.503 -3.4983  0.0330  0.0103
 9252SOL    HW228591   0.116   0.194   6.509  0.5889 -0.5160  0.2457
 9253SOL     OW28592   5.040   3.161   0.277 -0.0368  0.2693 -0.0116
 9253SOL    HW128593   5.033   3.074   0.316 -1.4752  1.0747  1.6567
 9253SOL    HW228594   5.025   3.221   0.350 -1.3842  1.8982 -1.5535
 9254SOL     OW28595   2.154   5.394   4.126 -0.4613 -0.4212  0.3705
 9254SOL    HW128596   2.143   5.457   4.198 -1.7679 -0.2487  0.0435
 9254SOL    HW228597   2.151   5.448   4.047  0.8951 -0.6215  0.1486
 9255SOL     OW28598   1.167   6.149   2.891  0.5995 -0.3276  0.4416
 9255SOL    HW128599   1.114   6.150   2.971  0.0417 -0.0401  0.0741
 9255SOL    HW228600   1.212   6.233   2.891  0.5013 -0.2740  0.3951
 9256SOL     OW28601   6.919   5.163   3.520 -0.1948 -0.1116  0.0258
 9256SOL    HW128602   6.940   5.070   3.519  0.0680 -0.0546 -1.3630
 9256SOL    HW228603   6.827   5.167   3.546 -0.1045 -0.7220  0.4540
 9257SOL     OW28604   6.280   7.051   6.129 -0.2229  0.0795  0.9035
 9257SOL    HW128605   6.304   7.014   6.214  0.4488  0.1073  0.7352
 9257SOL    HW228606   6.345   7.120   6.114 -0.7097  0.4896  0.6446
 9258SOL     OW28607   5.255   1.283   4.107 -0.0645 -0.3040  0.2888
 9258SOL    HW128608   5.303   1.331   4.175 -0.7785  0.2393  0.4187
 9258SOL    HW228609   5.185   1.342   4.081  0.1279 -0.5598 -0.8449
 9259SOL     OW28610   4.044   3.324   2.257  0.0302  0.1991  0.7024
 9259SOL    HW128611   4.054   3.234   2.226 -1.2916  0.2692 -0.0200
 9259SOL    HW228612   4.044   3.377   2.178  0.0717  0.7550  1.0718
 9260SOL     OW28613   2.928   4.207   3.656  0.7221  0.4669 -0.2758
 9260SOL    HW128614   2.939   4.289   3.703  1.1648  0.7567 -0.8731
 9260SOL    HW228615   3.010   4.195   3.608  0.3215  0.1320 -0.8933
 9261SOL     OW28616   7.394   1.096   2.814  0.3123  0.2998 -0.2909
 9261SOL    HW128617   7.480   1.107   2.856  0.2425  1.2423 -0.3624
 9261SOL    HW228618   7.386   1.002   2.801  2.2757  0.3183 -2.2339
 9262SOL     OW28619   3.173   7.218   1.142 -0.3653 -0.0687  0.6423
 9262SOL    HW128620   3.179   7.171   1.225 -1.1054 -0.6257  0.3890
 9262SOL    HW228621   3.175   7.311   1.167  0.7380 -0.2132  1.1735
 9263SOL     OW28622   3.749   2.145   0.706 -0.0382  0.1397 -0.3715
 9263SOL    HW128623   3.728   2.118   0.795 -2.2617 -0.2729 -0.9364
 9263SOL    HW228624   3.839   2.177   0.710 -0.2074  0.5042  2.0923
 9264SOL     OW28625   5.456   4.688   5.177 -0.3653 -0.1269  0.3713
 9264SOL    HW128626   5.549   4.710   5.172 -0.2139 -0.9165 -0.8522
 9264SOL    HW228627   5.411   4.758   5.130 -0.2347 -0.4646 -0.2768
 9265SOL     OW28628   4.525   6.335   1.719 -0.4018 -0.0286 -0.0132
 9265SOL    HW128629   4.479   6.326   1.635  0.7570  0.2460 -0.6956
 9265SOL    HW228630   4.610   6.373   1.696  1.0026 -2.3953  0.9476
 9266SOL     OW28631   0.878   0.748   2.413 -0.5868 -1.3261  0.0333
 9266SOL    HW128632   0.915   0.709   2.334  1.0948 -0.6595  0.4510
 9266SOL    HW228633   0.953   0.780   2.461 -1.6794 -0.6040  1.3246
 9267SOL     OW28634   2.600   6.310   5.521  0.3709 -1.1568  1.1766
 9267SOL    HW128635   2.639   6.269   5.599  2.8573 -1.8343 -0.2943
 9267SOL    HW228636   2.594   6.239   5.457 -1.8351 -0.6592  0.7828
 9268SOL     OW28637   6.406   5.886   3.867 -0.2826 -0.7629  0.1034
 9268SOL    HW128638   6.458   5.812   3.900  0.4412 -1.0173 -1.5254
 9268SOL    HW228639   6.348   5.909   3.940  1.5271 -1.0070  1.7045
 9269SOL     OW28640   7.924   4.835   7.574 -0.1406  0.5711  0.4177
 9269SOL    HW128641   7.865   4.792   7.512  1.1191 -1.0680  0.2781
 9269SOL    HW228642   7.866   4.873   7.640 -1.4297  0.9214 -0.8673
 9270SOL     OW28643   2.269   4.836   5.845 -0.2759 -0.6213 -0.0681
 9270SOL    HW128644   2.282   4.832   5.940 -2.1686  0.6051  0.2745
 9270SOL    HW228645   2.223   4.755   5.824  1.5593 -1.6886 -0.2565
 9271SOL     OW28646   0.506   3.319   0.783  0.2263  0.0429 -0.8163
 9271SOL    HW128647   0.515   3.331   0.878  0.7178  0.1265 -0.8747
 9271SOL    HW228648   0.414   3.339   0.766 -0.1542 -1.0697 -0.1914
 9272SOL     OW28649   3.158   1.784   3.841  0.1128  0.4635 -0.3901
 9272SOL    HW128650   3.170   1.725   3.766 -0.8743 -0.8707  0.4421
 9272SOL    HW228651   3.244   1.787   3.884  0.3090  0.0405 -0.7466
 9273SOL     OW28652   5.933   2.252   2.607 -0.0800  0.3010 -0.1896
 9273SOL    HW128653   5.930   2.171   2.557  0.9381  1.3018 -1.9912
 9273SOL    HW228654   5.842   2.281   2.611 -0.6685 -1.5369  1.6549
 9274SOL     OW28655   4.202   4.599   6.694  0.0170 -0.3748  0.3984
 9274SOL    HW128656   4.170   4.560   6.613 -1.0174 -1.5749  1.3553
 9274SOL    HW228657   4.293   4.569   6.701  0.2727  0.1521 -0.5555
 9275SOL     OW28658   1.446   3.062   7.738  0.1982  0.1622  0.0442
 9275SOL    HW128659   1.420   2.978   7.702 -1.5100  0.5414  0.2822
 9275SOL    HW228660   1.427   3.055   7.832 -0.4246  0.9462 -0.0078
 9276SOL     OW28661   7.086   0.711   6.385 -0.2883  0.0384  0.0947
 9276SOL    HW128662   7.094   0.700   6.290 -0.7694  1.2821 -0.1103
 9276SOL    HW228663   6.994   0.691   6.403 -0.7416  1.7997 -0.0401
 9277SOL     OW28664   3.071   2.428   5.212 -0.6615  0.7726  0.5513
 9277SOL    HW128665   3.143   2.367   5.228 -0.8708  0.3178 -0.1675
 9277SOL    HW228666   3.043   2.408   5.122 -2.3901  0.2024  1.1886
 9278SOL     OW28667   0.806   4.164   1.344  0.5250 -0.0187  0.7155
 9278SOL    HW128668   0.808   4.258   1.326 -0.4865  0.2472  1.8451
 9278SOL    HW228669   0.761   4.156   1.428 -0.4465 -1.5846  0.1037
 9279SOL     OW28670   3.972   6.941   4.892 -0.4242  0.1096  0.7590
 9279SOL    HW128671   3.999   6.997   4.819 -1.4116  0.3927  0.5997
 9279SOL    HW228672   4.053   6.898   4.920 -0.0655 -0.2676 -0.7238
 9280SOL     OW28673   7.273   4.865   2.991 -0.3132 -0.3916 -0.1206
 9280SOL    HW128674   7.290   4.946   3.039 -0.6494 -0.4214  0.0558
 9280SOL    HW228675   7.291   4.795   3.054 -0.6171 -0.4345 -0.0787
 9281SOL     OW28676   6.385   4.693   1.138  0.1357  0.5958 -0.0208
 9281SOL    HW128677   6.320   4.730   1.078  1.6777  1.7686 -1.0480
 9281SOL    HW228678   6.333   4.658   1.211 -1.6574  1.0121 -1.0268
 9282SOL     OW28679   6.911   6.629   3.483 -0.1960 -0.8345 -0.3792
 9282SOL    HW128680   6.916   6.652   3.575  0.1276  1.7399 -0.9543
 9282SOL    HW228681   6.956   6.545   3.476  0.3343 -0.7737  1.6911
 9283SOL     OW28682   0.374   5.331   3.839  0.8962  0.1631 -0.2995
 9283SOL    HW128683   0.289   5.323   3.796  1.0337 -1.0117 -0.3885
 9283SOL    HW228684   0.438   5.326   3.768  1.0604  0.3967 -0.1702
 9284SOL     OW28685   2.519   0.323   1.808 -0.4004  0.2871  0.1690
 9284SOL    HW128686   2.508   0.266   1.732 -1.4727  0.3038  0.2873
 9284SOL    HW228687   2.496   0.410   1.776 -1.3179  0.2208  0.6043
 9285SOL     OW28688   1.553   6.644   4.398 -0.2141 -0.3617 -0.4837
 9285SOL    HW128689   1.586   6.682   4.317  0.2807 -0.5146 -0.3585
 9285SOL    HW228690   1.609   6.567   4.413 -1.8236 -1.7395 -1.2645
 9286SOL     OW28691   3.082   7.837   3.535  0.4364 -0.0200  0.1171
 9286SOL    HW128692   3.104   7.861   3.445  0.2008 -1.3602 -0.3233
 9286SOL    HW228693   3.070   7.921   3.580 -0.2296  0.6778 -1.2989
 9287SOL     OW28694   5.806   5.385   5.976 -0.3361  0.2703  0.8879
 9287SOL    HW128695   5.763   5.310   5.934 -1.6977  0.8055  1.2853
 9287SOL    HW228696   5.843   5.436   5.904 -0.2992 -0.2328  0.5460
 9288SOL     OW28697   4.404   4.821   2.246  0.1861 -0.2219 -0.6232
 9288SOL    HW128698   4.484   4.769   2.240  1.0281  1.1147 -2.0970
 9288SOL    HW228699   4.415   4.889   2.178 -1.7080  0.6654 -0.1161
 9289SOL     OW28700   4.645   3.390   4.002 -0.0750 -0.7769 -0.3106
 9289SOL    HW128701   4.643   3.429   3.914  1.1784  0.1362  0.0469
 9289SOL    HW228702   4.566   3.425   4.045  0.1717  0.0984 -0.5380
 9290SOL     OW28703   7.642   1.202   7.786  0.1777  0.0793  0.6936
 9290SOL    HW128704   7.657   1.115   7.823  2.7550  0.4250  0.6890
 9290SOL    HW228705   7.624   1.257   7.862  1.3935  0.0288  1.0476
 9291SOL     OW28706   0.960   4.644   4.863 -0.0547 -0.0527 -0.3173
 9291SOL    HW128707   0.924   4.566   4.906  1.0481 -1.7650 -2.3352
 9291SOL    HW228708   0.883   4.697   4.843 -0.6424  0.8619  3.6031
 9292SOL     OW28709   2.048   0.330   0.023 -0.1497  0.0989 -0.3798
 9292SOL    HW128710   2.005   0.245   0.032 -0.0029  0.1857  1.5910
 9292SOL    HW228711   2.067   0.338  -0.071 -0.0415 -2.0932 -0.5896
 9293SOL     OW28712   6.014   6.084   4.696  0.0487  0.1517  0.1134
 9293SOL    HW128713   5.929   6.123   4.717 -0.5491 -1.7438  1.4397
 9293SOL    HW228714   6.029   6.020   4.765  2.4289  0.1824 -0.2892
 9294SOL     OW28715   1.444   4.073   6.355  0.1424  0.0594 -0.7035
 9294SOL    HW128716   1.438   4.115   6.269 -1.1817 -1.5873 -1.4510
 9294SOL    HW228717   1.359   4.089   6.396 -0.2432 -1.5304 -0.8475
 9295SOL     OW28718   5.492   1.204   7.871  0.0638 -0.0817  0.2298
 9295SOL    HW128719   5.515   1.278   7.815  0.4429  0.2056  0.7579
 9295SOL    HW228720   5.524   1.127   7.824 -1.4891 -0.0414 -0.9451
 9296SOL     OW28721   7.928   5.762   1.258 -0.5381  0.0058  0.0542
 9296SOL    HW128722   7.948   5.843   1.212  0.2205  0.5780  1.3643
 9296SOL    HW228723   8.009   5.712   1.256 -1.0388 -0.8113 -0.8681
 9297SOL     OW28724   6.297   4.592   5.124 -0.0683  0.9086  0.4750
 9297SOL    HW128725   6.385   4.560   5.145  0.1170  0.7674 -0.4450
 9297SOL    HW228726   6.290   4.582   5.029 -0.3303  2.7653  0.2476
 9298SOL     OW28727   5.658   7.798   5.039  0.1453  0.0233 -0.4050
 9298SOL    HW128728   5.573   7.772   5.005 -0.3915  0.2457  0.7071
 9298SOL    HW228729   5.642   7.884   5.080  0.6353 -0.4171  0.7673
 9299SOL     OW28730   4.058   1.082   4.969  0.9104 -0.2795 -0.1845
 9299SOL    HW128731   4.134   1.112   4.919  1.2405  0.9670  1.0083
 9299SOL    HW228732   4.007   1.030   4.907  0.6049  2.2863 -2.2560
 9300SOL     OW28733   1.568   6.971   0.119 -0.2605  0.0048  0.4739
 9300SOL    HW128734   1.508   6.999   0.189 -0.2219  1.6629 -0.1052
 9300SOL    HW228735   1.590   7.052   0.073  2.8778 -0.4519  0.9782
 9301SOL     OW28736   3.424   1.991   0.643 -0.1428  0.1808 -0.0969
 9301SOL    HW128737   3.338   2.019   0.611 -0.2903 -0.4206 -0.2277
 9301SOL    HW228738   3.411   1.902   0.673  0.3288  0.2532  0.3342
 9302SOL     OW28739   0.669   4.000   3.875  0.0501  0.0516 -0.1697
 9302SOL    HW128740   0.702   4.089   3.886  1.9120 -0.6765  0.4690
 9302SOL    HW228741   0.658   3.968   3.964 -2.1856  0.1418 -0.3543
 9303SOL     OW28742   0.866   7.277   3.720 -0.4103  0.6503  0.0006
 9303SOL    HW128743   0.957   7.258   3.698  0.2609  0.1940  2.8306
 9303SOL    HW228744   0.816   7.244   3.645  1.6097 -0.5998 -0.8750
 9304SOL     OW28745   4.330   2.018   1.012  0.0204 -0.3557 -0.3816
 9304SOL    HW128746   4.403   1.967   1.048  1.5758  0.4525 -2.2233
 9304SOL    HW228747   4.252   1.972   1.042  1.2733 -1.5401  1.2579
 9305SOL     OW28748   2.542   7.793   4.728 -0.2217  0.0721 -0.4751
 9305SOL    HW128749   2.593   7.875   4.724 -0.0687 -0.0412 -0.8947
 9305SOL    HW228750   2.491   7.793   4.647  0.5566 -0.7475 -0.9852
 9306SOL     OW28751   2.045   3.022   5.242 -0.3370 -0.3834  0.4809
 9306SOL    HW128752   2.114   2.963   5.212 -1.5485 -0.8822 -1.4778
 9306SOL    HW228753   2.071   3.045   5.331  2.2356 -0.6988 -0.1132
 9307SOL     OW28754   5.869   2.122   3.304 -0.0001 -0.2070 -0.0329
 9307SOL    HW128755   5.814   2.131   3.382 -0.4254  0.1358 -0.3662
 9307SOL    HW228756   5.895   2.030   3.303 -0.8926 -0.4668 -0.0790
 9308SOL     OW28757   4.605   7.039   3.161 -0.6306  0.1685 -0.5371
 9308SOL    HW128758   4.589   7.012   3.252  0.3711  0.9498 -0.1052
 9308SOL    HW228759   4.553   7.119   3.151  2.1186  2.2300  0.5985
 9309SOL     OW28760   0.615   7.395   2.090 -0.1857  0.0499 -0.2089
 9309SOL    HW128761   0.697   7.439   2.070 -1.2544  2.3128  0.0341
 9309SOL    HW228762   0.555   7.422   2.020 -0.6787 -1.7999 -0.5612
 9310SOL     OW28763   0.466   6.469   2.221  0.6696  0.1321  0.1655
 9310SOL    HW128764   0.485   6.562   2.203  0.5472  0.1446  0.1002
 9310SOL    HW228765   0.551   6.431   2.242  0.6827  0.3213  0.4667
 9311SOL     OW28766   4.047   4.150   5.426 -0.0727 -0.0859 -0.1984
 9311SOL    HW128767   3.964   4.157   5.379  0.9037  3.3333 -1.6760
 9311SOL    HW228768   4.029   4.185   5.513 -0.0320  1.5298 -0.8153
 9312SOL     OW28769   0.760   0.222   6.802  0.2217  0.1405  0.3033
 9312SOL    HW128770   0.734   0.310   6.830  0.3065 -0.3229  1.9158
 9312SOL    HW228771   0.811   0.188   6.875 -0.3336 -1.4906 -0.0348
 9313SOL     OW28772   1.638   4.397   5.649  0.3030  0.0320  0.5921
 9313SOL    HW128773   1.592   4.315   5.631  0.1629 -0.1524  1.7110
 9313SOL    HW228774   1.715   4.395   5.592 -0.0011 -0.6055  0.1943
 9314SOL     OW28775   4.146   7.049   6.762  0.3069 -0.1601  0.9938
 9314SOL    HW128776   4.196   6.996   6.701  0.4907  1.1318 -0.0269
 9314SOL    HW228777   4.056   7.047   6.728  0.5664  1.2527  0.1370
 9315SOL     OW28778   2.670   2.523   2.730  0.0764 -0.0955  0.0872
 9315SOL    HW128779   2.685   2.613   2.701  0.1679 -0.0935  0.1404
 9315SOL    HW228780   2.719   2.516   2.812  2.0403 -0.9166 -1.1032
 9316SOL     OW28781   6.695   6.982   6.792  0.0006 -0.3489  0.2916
 9316SOL    HW128782   6.665   6.899   6.757 -0.1896  0.3296 -1.2495
 9316SOL    HW228783   6.782   6.994   6.754 -0.1381  0.3228  0.1654
 9317SOL     OW28784   5.967   4.556   4.295  0.2057  0.4499  0.1096
 9317SOL    HW128785   5.936   4.646   4.290  1.1787  0.7873 -0.0785
 9317SOL    HW228786   6.012   4.550   4.380 -0.4017 -0.0472  0.4080
 9318SOL     OW28787   2.421   1.355   3.697  0.1681 -0.2460  0.1653
 9318SOL    HW128788   2.445   1.338   3.788 -0.0580 -1.5027  0.0138
 9318SOL    HW228789   2.325   1.345   3.696  0.0777  0.6126 -0.0423
 9319SOL     OW28790   5.737   7.873   0.838 -0.3967  0.7595 -0.0905
 9319SOL    HW128791   5.674   7.818   0.885 -0.8337  1.0879 -0.2879
 9319SOL    HW228792   5.762   7.940   0.902 -0.8557  1.0998 -0.2576
 9320SOL     OW28793   5.859   6.477   6.658  0.0079  0.0607  0.1164
 9320SOL    HW128794   5.936   6.527   6.632  0.0747 -0.5299 -0.8858
 9320SOL    HW228795   5.793   6.543   6.680 -0.3661  0.6858 -2.4978
 9321SOL     OW28796   0.886   3.765   0.213  0.4039 -0.0285  0.1296
 9321SOL    HW128797   0.826   3.715   0.268 -0.0221  0.2456 -0.0829
 9321SOL    HW228798   0.853   3.753   0.124  1.8697 -1.5911 -0.2639
 9322SOL     OW28799   5.096   7.127   4.497  0.5380 -0.3175 -0.1876
 9322SOL    HW128800   5.036   7.200   4.508 -0.2191 -0.5728 -2.2311
 9322SOL    HW228801   5.051   7.052   4.536 -1.1509 -0.7826 -2.7880
 9323SOL     OW28802   4.478   4.438   4.991  0.0395  0.1409 -0.3022
 9323SOL    HW128803   4.442   4.349   4.996 -3.3560  1.2928 -1.4685
 9323SOL    HW228804   4.490   4.465   5.082 -2.1867 -0.3570  0.1918
 9324SOL     OW28805   0.913   0.489   4.945 -0.6223 -0.1826 -0.2955
 9324SOL    HW128806   0.901   0.424   4.877  2.6238  0.4714 -1.6882
 9324SOL    HW228807   0.969   0.447   5.010 -0.5844  0.4003  0.0632
 9325SOL     OW28808   1.723   3.802   1.019 -0.3305 -0.1402 -0.3698
 9325SOL    HW128809   1.676   3.730   1.060 -0.1276 -0.5841 -0.8921
 9325SOL    HW228810   1.669   3.827   0.945  0.1451 -0.5233 -0.8584
 9326SOL     OW28811   1.325   4.979   3.593 -0.1401 -0.4393 -0.6107
 9326SOL    HW128812   1.322   5.050   3.529  0.5080 -0.1195 -0.3014
 9326SOL    HW228813   1.412   4.986   3.633  0.0376 -1.5650 -0.7507
 9327SOL     OW28814   0.995   2.815   2.639 -0.4810  0.4286 -0.1341
 9327SOL    HW128815   0.964   2.727   2.620  0.2861  0.2334 -0.5171
 9327SOL    HW228816   0.966   2.867   2.564 -0.1163  0.3024 -0.3637
 9328SOL     OW28817   7.355   6.444   5.700 -0.5041  0.4043  0.6685
 9328SOL    HW128818   7.397   6.529   5.688  1.0707 -0.3714  0.4605
 9328SOL    HW228819   7.388   6.413   5.785 -0.6315 -0.2407  0.4867
 9329SOL     OW28820   3.430   7.764   5.280 -0.1149 -0.3438 -0.0192
 9329SOL    HW128821   3.387   7.700   5.337 -2.9231  0.9648 -0.4975
 9329SOL    HW228822   3.453   7.714   5.201  0.2986 -1.3218  0.6933
 9330SOL     OW28823   2.129   7.090   7.516 -0.6798  0.0324 -0.6684
 9330SOL    HW128824   2.214   7.119   7.482 -0.4643  0.8065  0.4912
 9330SOL    HW228825   2.135   7.102   7.610 -1.3542 -1.8527 -0.3430
 9331SOL     OW28826   7.864   2.633   2.853 -0.0984 -0.6067 -0.3700
 9331SOL    HW128827   7.844   2.693   2.782  1.9589 -0.3043 -0.7427
 9331SOL    HW228828   7.958   2.616   2.846  0.0341 -1.1594  1.8153
 9332SOL     OW28829   6.737   7.384   4.894  0.4569  0.5914 -0.1126
 9332SOL    HW128830   6.773   7.315   4.949  1.2048  0.5022 -0.6940
 9332SOL    HW228831   6.662   7.418   4.943  0.0743 -0.6309  0.1774
 9333SOL     OW28832   5.911   1.844   3.307 -0.4860 -0.5462 -0.0224
 9333SOL    HW128833   5.890   1.831   3.215 -1.4260 -0.0682  0.1112
 9333SOL    HW228834   5.980   1.780   3.325 -0.1145 -0.4743 -1.1082
 9334SOL     OW28835   1.114   7.462   6.833 -0.5743 -0.2472  0.0789
 9334SOL    HW128836   1.146   7.389   6.779 -1.8455 -0.7834  0.0116
 9334SOL    HW228837   1.168   7.536   6.807 -0.3177 -0.7965 -1.0258
 9335SOL     OW28838   5.889   7.787   2.583 -0.2701 -0.6118 -0.2851
 9335SOL    HW128839   5.847   7.760   2.665  1.1929  2.3868  1.6262
 9335SOL    HW228840   5.965   7.729   2.575 -0.0333 -0.4815  0.8832
 9336SOL     OW28841   4.230   3.374   0.703 -0.5714  0.7709 -0.2109
 9336SOL    HW128842   4.181   3.292   0.702  1.0697 -0.3137  1.4416
 9336SOL    HW228843   4.296   3.361   0.771  0.5299  3.0160 -0.7697
 9337SOL     OW28844   6.706   5.575   2.582  0.2357 -0.1040  0.6705
 9337SOL    HW128845   6.707   5.546   2.491  1.9002  1.1059  0.2552
 9337SOL    HW228846   6.692   5.495   2.632  1.2723 -1.1003 -0.5613
 9338SOL     OW28847   3.292   4.357   3.351 -0.6058 -0.6779 -0.7061
 9338SOL    HW128848   3.343   4.423   3.398 -0.8050 -1.5463  0.8087
 9338SOL    HW228849   3.356   4.311   3.296 -0.0720 -0.6082 -0.1473
 9339SOL     OW28850   4.394   1.524   5.996 -0.2378 -0.0595  0.0912
 9339SOL    HW128851   4.306   1.485   5.998  0.9426 -2.9210  0.5104
 9339SOL    HW228852   4.415   1.541   6.088  0.0259 -0.2693  0.0691
 9340SOL     OW28853   6.145   0.404   0.741 -0.0267 -0.4147 -0.0940
 9340SOL    HW128854   6.112   0.390   0.830 -1.1483 -1.4733 -0.6459
 9340SOL    HW228855   6.196   0.485   0.747 -0.5404 -0.1660  1.3881
 9341SOL     OW28856   7.226   0.595   0.702  0.0174 -0.2972 -0.4016
 9341SOL    HW128857   7.136   0.571   0.678 -2.1142  2.8451  3.3486
 9341SOL    HW228858   7.249   0.536   0.774  0.4667 -0.2880 -0.5325
 9342SOL     OW28859   6.245   0.771   7.689  0.7873 -0.2017 -0.3992
 9342SOL    HW128860   6.325   0.722   7.672  0.1154 -1.5290  0.1456
 9342SOL    HW228861   6.221   0.748   7.778  0.3660  1.0269 -0.1726
 9343SOL     OW28862   0.846   6.873   6.190  0.5380 -0.4718  0.5640
 9343SOL    HW128863   0.788   6.861   6.115  0.8032 -0.9523  0.4332
 9343SOL    HW228864   0.787   6.900   6.261  0.4688  1.4563 -0.1740
 9344SOL     OW28865   5.852   4.934   0.684  0.4478  0.6192  0.4647
 9344SOL    HW128866   5.909   4.895   0.618  2.3502  2.7849  0.6982
 9344SOL    HW228867   5.912   4.965   0.752 -0.9508  2.9607  0.7609
 9345SOL     OW28868   1.627   3.914   7.474  0.3317  0.0888 -0.1681
 9345SOL    HW128869   1.576   3.841   7.438 -1.6876  0.1393  2.3104
 9345SOL    HW228870   1.634   3.895   7.567  5.0297  0.1289 -0.2731
 9346SOL     OW28871   7.443   2.921   1.571 -0.0340  0.0755  0.0256
 9346SOL    HW128872   7.384   2.877   1.509  1.2578 -0.4715 -0.8641
 9346SOL    HW228873   7.529   2.919   1.528  1.2041 -1.4109  2.3397
 9347SOL     OW28874   4.023   2.647   6.845  0.0317  0.5102 -0.2135
 9347SOL    HW128875   4.026   2.691   6.930  0.7499 -0.4478  0.2601
 9347SOL    HW228876   3.950   2.690   6.800 -1.6154 -0.2387  1.5817
 9348SOL     OW28877   4.215   6.053   2.479  0.0744 -0.0683 -0.3136
 9348SOL    HW128878   4.294   6.049   2.533  0.4356  1.5546 -0.6856
 9348SOL    HW228879   4.241   6.101   2.401 -0.9158 -0.8128 -1.1373
 9349SOL     OW28880   5.786   3.643   0.537  0.0153 -0.0974  0.4142
 9349SOL    HW128881   5.774   3.699   0.461 -0.0619 -2.3294 -1.3292
 9349SOL    HW228882   5.860   3.681   0.583 -0.3703  1.7121 -0.3608
 9350SOL     OW28883   0.869   2.525   0.689 -0.3526  0.1215 -0.2733
 9350SOL    HW128884   0.859   2.430   0.687 -1.2083  0.2080 -1.5952
 9350SOL    HW228885   0.928   2.542   0.762  1.1686 -1.5474 -1.0467
 9351SOL     OW28886   4.183   0.485   1.168 -0.9055 -0.2421  0.2368
 9351SOL    HW128887   4.278   0.468   1.165 -0.6677  0.9811  0.3123
 9351SOL    HW228888   4.145   0.402   1.195  0.1970 -0.6133  0.7227
 9352SOL     OW28889   6.919   3.372   0.327 -0.1320 -0.7667 -0.0571
 9352SOL    HW128890   6.958   3.438   0.270  1.5648 -1.7384 -0.0892
 9352SOL    HW228891   6.858   3.421   0.383 -0.0583  0.5616 -1.0796
 9353SOL     OW28892   0.157   7.523   5.104  0.7387 -0.0048  0.1830
 9353SOL    HW128893   0.237   7.522   5.157  0.7204  3.6512  0.5445
 9353SOL    HW228894   0.188   7.526   5.014  0.8755 -1.5209  0.1542
 9354SOL     OW28895   5.706   2.756   0.676  0.3205  0.2137  0.2083
 9354SOL    HW128896   5.648   2.743   0.752 -0.3613  0.5045 -0.2564
 9354SOL    HW228897   5.782   2.801   0.712 -0.3452  1.0653  0.5866
 9355SOL     OW28898   6.478   1.868   6.694  0.6673 -0.5597 -0.3153
 9355SOL    HW128899   6.543   1.815   6.646 -0.6675  0.6250 -3.7270
 9355SOL    HW228900   6.518   1.955   6.700  0.7426 -0.6480  0.6764
 9356SOL     OW28901   6.907   4.136   7.437 -0.5786 -0.1781 -0.2216
 9356SOL    HW128902   6.819   4.115   7.469 -0.5680 -0.2689 -0.2525
 9356SOL    HW228903   6.938   4.203   7.498 -0.5093 -0.4434  0.0424
 9357SOL     OW28904   5.554   0.354   4.921  0.0079 -0.0489 -0.1989
 9357SOL    HW128905   5.641   0.333   4.955 -0.6414 -2.1542  0.3343
 9357SOL    HW228906   5.559   0.336   4.827  0.1716 -0.1411 -0.1719
 9358SOL     OW28907   0.473   5.231   2.063  0.2292  0.1561  0.2581
 9358SOL    HW128908   0.550   5.177   2.044  1.7427  2.2332  0.0977
 9358SOL    HW228909   0.433   5.246   1.977  0.1520 -0.2024  0.2297
 9359SOL     OW28910   5.578   1.354   3.310  0.3977 -0.6572 -0.0215
 9359SOL    HW128911   5.633   1.278   3.289  0.9215 -0.5191  0.8087
 9359SOL    HW228912   5.545   1.336   3.398  0.1535 -0.1373 -0.0065
 9360SOL     OW28913   6.997   2.973   2.836  0.1402  0.2870 -0.8727
 9360SOL    HW128914   7.027   3.056   2.872  0.1691  0.0914 -0.4463
 9360SOL    HW228915   6.902   2.980   2.833  0.0284 -0.2292  0.5794
 9361SOL     OW28916   2.934   6.745   6.195 -0.5399 -0.2437  0.3407
 9361SOL    HW128917   3.012   6.736   6.140 -0.9941  0.5580 -0.4714
 9361SOL    HW228918   2.862   6.746   6.132 -1.0018  1.7663  0.8384
 9362SOL     OW28919   6.419   5.489   7.809  0.2565 -0.1761  0.0140
 9362SOL    HW128920   6.347   5.548   7.831 -0.9737 -1.0813 -1.4245
 9362SOL    HW228921   6.465   5.534   7.737 -1.1425 -1.2383 -1.6144
 9363SOL     OW28922   0.834   1.443   5.346 -0.1001  0.1187  0.1785
 9363SOL    HW128923   0.853   1.379   5.415 -2.9001 -0.5368  0.4480
 9363SOL    HW228924   0.892   1.517   5.365 -0.3384 -0.3002  2.8675
 9364SOL     OW28925   7.917   5.209   5.730  0.4848 -0.0859  0.1981
 9364SOL    HW128926   7.995   5.153   5.727  1.2308  0.9611 -1.0810
 9364SOL    HW228927   7.924   5.256   5.813 -0.2633 -1.9871  1.3930
 9365SOL     OW28928   7.656   7.762   1.268  0.4717 -0.4751  0.1405
 9365SOL    HW128929   7.695   7.698   1.328 -0.5110 -2.6357 -1.3579
 9365SOL    HW228930   7.569   7.778   1.305  0.7261  0.0230  0.5291
 9366SOL     OW28931   4.936   6.719   0.645  0.3440 -0.6707  0.2903
 9366SOL    HW128932   5.020   6.698   0.604  0.6379 -0.7183  0.9145
 9366SOL    HW228933   4.887   6.764   0.576  0.3533 -1.8524 -0.5146
 9367SOL     OW28934   3.387   0.102   3.052 -0.2481 -0.2946  0.3737
 9367SOL    HW128935   3.368   0.170   2.988  0.4458 -0.9021 -0.4940
 9367SOL    HW228936   3.482   0.094   3.052 -0.2395 -0.3435  1.4490
 9368SOL     OW28937   7.753   4.089   7.768 -0.0779 -0.2008 -0.1709
 9368SOL    HW128938   7.671   4.074   7.720  1.1077  1.6696 -3.0394
 9368SOL    HW228939   7.739   4.172   7.815  0.0963  0.0001 -0.4744
 9369SOL     OW28940   6.518   7.926   1.474 -0.5378 -0.1269 -0.0282
 9369SOL    HW128941   6.533   7.831   1.476  0.6334  0.0512  0.0993
 9369SOL    HW228942   6.596   7.962   1.431 -0.6338  0.8401  0.5750
 9370SOL     OW28943   6.779   3.793   5.302  0.0740  0.6567  0.3985
 9370SOL    HW128944   6.788   3.715   5.247  0.5330  0.6620  0.4630
 9370SOL    HW228945   6.693   3.783   5.343 -1.7972  2.2186 -2.7248
 9371SOL     OW28946   2.663   6.620   4.755 -0.0235  0.0422  0.5465
 9371SOL    HW128947   2.723   6.564   4.804 -0.5005 -0.3015  0.7407
 9371SOL    HW228948   2.708   6.634   4.671  1.4935  1.8700  1.5831
 9372SOL     OW28949   1.819   4.621   3.591 -0.3450 -0.0896  0.0369
 9372SOL    HW128950   1.860   4.630   3.505  0.0511 -0.0852  0.2258
 9372SOL    HW228951   1.747   4.560   3.577 -0.1148 -0.3004 -0.2385
 9373SOL     OW28952   3.657   5.641   0.857  0.1032  0.0165  0.2985
 9373SOL    HW128953   3.726   5.641   0.923 -0.9175  1.3015  1.4439
 9373SOL    HW228954   3.653   5.732   0.827  0.2760 -0.4676 -1.2754
 9374SOL     OW28955   2.827   7.637   2.478  0.2715 -0.6209 -0.4821
 9374SOL    HW128956   2.838   7.557   2.529  0.0031 -0.9986 -1.0184
 9374SOL    HW228957   2.869   7.705   2.532 -1.7003 -0.6328  1.1715
 9375SOL     OW28958   7.596   6.964   1.983 -0.3232 -0.1576 -0.4006
 9375SOL    HW128959   7.627   7.025   1.916 -3.1301 -0.0390 -1.7066
 9375SOL    HW228960   7.639   6.881   1.961 -1.1650 -0.1215 -2.4179
 9376SOL     OW28961   4.289   4.180   2.822  0.8497 -0.5651 -0.2275
 9376SOL    HW128962   4.316   4.105   2.768  0.2031 -0.9042 -0.0860
 9376SOL    HW228963   4.218   4.220   2.773 -0.1066 -1.1880  0.6128
 9377SOL     OW28964   4.321   5.880   1.843 -0.0202 -0.0032 -0.0497
 9377SOL    HW128965   4.410   5.907   1.867 -0.3360  0.6668  0.4077
 9377SOL    HW228966   4.321   5.785   1.854  0.4320  0.0717  0.6399
 9378SOL     OW28967   4.864   6.978   6.364 -0.1142 -0.5596 -0.3248
 9378SOL    HW128968   4.914   7.060   6.367 -1.5607  0.3783 -0.8484
 9378SOL    HW228969   4.925   6.912   6.396  0.7826  0.8760  1.0836
 9379SOL     OW28970   7.836   0.360   2.570 -0.1317  0.3578  0.1305
 9379SOL    HW128971   7.917   0.410   2.565 -0.9075  1.7679  0.8401
 9379SOL    HW228972   7.842   0.313   2.653  0.4043 -0.3760 -0.3198
 9380SOL     OW28973   5.530   2.213   5.786  0.5006  0.0735  0.1673
 9380SOL    HW128974   5.617   2.175   5.779  0.9302  0.8298  1.1332
 9380SOL    HW228975   5.520   2.234   5.879 -1.7501 -2.3462  0.5691
 9381SOL     OW28976   5.268   2.577   0.219  0.5185  0.3895 -0.3989
 9381SOL    HW128977   5.182   2.617   0.227  1.0029  1.2240  1.2893
 9381SOL    HW228978   5.296   2.597   0.129 -0.1263  2.1019 -0.2672
 9382SOL     OW28979   1.839   0.646   3.711  0.1523  0.3415  0.0391
 9382SOL    HW128980   1.814   0.715   3.773 -1.0871  0.6534 -0.7787
 9382SOL    HW228981   1.762   0.633   3.657  0.8620 -0.6808 -0.7703
 9383SOL     OW28982   3.792   3.371   7.246 -0.0445  0.4551 -0.4773
 9383SOL    HW128983   3.781   3.463   7.268 -0.0210  1.0226 -2.6055
 9383SOL    HW228984   3.825   3.331   7.326  1.7213  2.6607  0.0103
 9384SOL     OW28985   6.924   7.935   5.025 -0.6587 -0.8424 -0.2440
 9384SOL    HW128986   6.953   7.977   4.944 -0.0507 -0.8757 -0.0474
 9384SOL    HW228987   6.831   7.957   5.032 -0.8348 -1.2537 -1.2072
 9385SOL     OW28988   4.791   3.191   0.729  0.7720  0.5592  0.3210
 9385SOL    HW128989   4.710   3.190   0.781  0.7748  0.8981  0.3383
 9385SOL    HW228990   4.761   3.200   0.639  0.7281 -1.0631  0.1578
 9386SOL     OW28991   3.713   3.622   0.740 -0.3430 -0.1363 -0.6348
 9386SOL    HW128992   3.765   3.683   0.687 -1.0043 -0.9637 -2.2891
 9386SOL    HW228993   3.658   3.678   0.794  1.0342  0.7386 -0.0699
 9387SOL     OW28994   7.777   4.220   1.570  0.5003 -0.0643  0.6126
 9387SOL    HW128995   7.786   4.150   1.505 -0.8419  1.4452 -1.3373
 9387SOL    HW228996   7.701   4.194   1.623  1.7941 -1.4590  1.8536
 9388SOL     OW28997   3.229   7.114   2.909  0.1078  0.0611 -0.5663
 9388SOL    HW128998   3.305   7.172   2.901 -1.4081  2.2501  0.0177
 9388SOL    HW228999   3.237   7.077   2.997  0.2513  0.6991 -0.3038
 9389SOL     OW29000   0.814   2.900   3.008  0.4056  0.5520 -0.1918
 9389SOL    HW129001   0.787   2.810   3.020  2.9113 -0.3709 -0.8341
 9389SOL    HW229002   0.812   2.939   3.095  1.1073 -0.7007  0.3954
 9390SOL     OW29003   0.429   2.436   2.396  0.7278 -0.3019 -0.4028
 9390SOL    HW129004   0.405   2.513   2.345 -2.0090 -1.0017 -0.3113
 9390SOL    HW229005   0.355   2.422   2.455 -0.3865 -4.6899 -2.4352
 9391SOL     OW29006   6.903   1.970   7.872  0.0032 -0.4633 -0.0639
 9391SOL    HW129007   6.855   2.013   7.943  0.2016  0.3864 -0.4280
 9391SOL    HW229008   6.991   2.008   7.876  0.5949 -1.8070  0.4330
 9392SOL     OW29009   6.748   6.080   1.197 -0.3191  0.0526 -0.5358
 9392SOL    HW129010   6.678   6.084   1.132  0.9021  0.4074 -1.8916
 9392SOL    HW229011   6.770   6.172   1.215  0.3574 -0.0502 -0.7823
 9393SOL     OW29012   3.464   6.237   4.099  0.1940 -0.0765 -0.6849
 9393SOL    HW129013   3.503   6.276   4.177 -0.0147  1.4018 -1.2666
 9393SOL    HW229014   3.523   6.165   4.076  0.1501 -0.6680  0.9185
 9394SOL     OW29015   6.121   3.636   2.996  0.2684 -0.4962  0.1944
 9394SOL    HW129016   6.201   3.630   3.049  0.0008 -1.8921  0.4973
 9394SOL    HW229017   6.150   3.672   2.912  1.2911 -1.3020  0.1821
 9395SOL     OW29018   5.851   7.930   2.067  0.3817 -0.0043  0.1115
 9395SOL    HW129019   5.940   7.960   2.048 -0.4948  2.2054 -0.8705
 9395SOL    HW229020   5.799   8.010   2.068 -1.4243 -1.1174  1.8248
 9396SOL     OW29021   1.871   6.423   0.093  0.3332  0.2259  0.1901
 9396SOL    HW129022   1.961   6.425   0.060  0.4183 -0.5313  0.3559
 9396SOL    HW229023   1.817   6.421   0.013  0.3333  3.2454  0.0262
 9397SOL     OW29024   0.138   0.052   2.814  1.1302  0.2941  0.1456
 9397SOL    HW129025   0.082   0.104   2.872 -0.2501 -0.1335 -0.7437
 9397SOL    HW229026   0.211   0.110   2.791  1.0145  0.8984  1.2686
 9398SOL     OW29027   7.354   1.362   1.225  0.0917  0.0112 -0.0896
 9398SOL    HW129028   7.384   1.449   1.199  0.0080  0.2939  0.7563
 9398SOL    HW229029   7.389   1.304   1.156  0.3222  0.6748 -0.5456
 9399SOL     OW29030   5.838   0.626   0.474  0.2722  0.3853 -0.0506
 9399SOL    HW129031   5.919   0.586   0.443 -0.0011 -0.7433  0.6405
 9399SOL    HW229032   5.790   0.648   0.394 -0.4217 -2.4611 -0.5158
 9400SOL     OW29033   6.210   2.987   5.422 -0.8340 -0.6388  0.7560
 9400SOL    HW129034   6.149   3.010   5.493 -0.7598 -0.0954  0.6467
 9400SOL    HW229035   6.287   3.041   5.439 -1.4499  0.7360 -0.6830
 9401SOL     OW29036   6.842   4.901   7.388 -0.0695  0.1820 -0.5730
 9401SOL    HW129037   6.784   4.977   7.378 -1.5006 -0.6572  0.8077
 9401SOL    HW229038   6.927   4.938   7.410 -1.1145  1.4289  1.8132
 9402SOL     OW29039   1.896   1.069   1.086 -0.2794 -0.1892  0.0732
 9402SOL    HW129040   1.867   0.984   1.120  0.3618 -0.3633  0.1892
 9402SOL    HW229041   1.968   1.049   1.027 -2.5567 -0.0790 -2.9954
 9403SOL     OW29042   5.347   7.562   7.709 -0.0915  0.2184 -0.1107
 9403SOL    HW129043   5.437   7.533   7.723 -0.6023 -2.7824 -2.2489
 9403SOL    HW229044   5.341   7.575   7.614 -1.9464  0.2066 -0.0217
 9404SOL     OW29045   0.056   1.387   5.666 -0.4367 -0.0633  0.3193
 9404SOL    HW129046   0.058   1.301   5.709 -0.4994  0.2790  1.0239
 9404SOL    HW229047  -0.027   1.388   5.618 -1.1079  0.1208  1.4364
 9405SOL     OW29048   2.292   4.968   3.000 -0.4675  0.0620 -0.4244
 9405SOL    HW129049   2.275   4.878   3.028 -1.0654 -0.6119 -2.7233
 9405SOL    HW229050   2.249   4.974   2.914  1.3281  1.8997 -1.2538
 9406SOL     OW29051   1.008   4.873   2.065  0.0394 -0.2580 -0.5293
 9406SOL    HW129052   1.014   4.945   2.127  0.0975  1.0372 -2.0039
 9406SOL    HW229053   0.915   4.848   2.066  0.2328 -1.1050  0.9491
 9407SOL     OW29054   1.045   7.321   2.453 -0.5240 -0.0686  0.3089
 9407SOL    HW129055   1.015   7.238   2.489 -0.7498  0.0664  0.4431
 9407SOL    HW229056   0.997   7.387   2.504 -1.3036  0.1212 -0.6270
 9408SOL     OW29057   5.462   1.983   0.212 -0.3808  0.1187 -0.7896
 9408SOL    HW129058   5.423   2.065   0.243  1.8031  1.0059 -0.2116
 9408SOL    HW229059   5.519   2.009   0.139 -1.7151 -1.2972 -2.4322
 9409SOL     OW29060   0.130   2.188   3.019 -0.1299  0.1180  0.1519
 9409SOL    HW129061   0.138   2.227   2.932 -3.7046  2.4886  0.7132
 9409SOL    HW229062   0.209   2.216   3.065  1.8331 -1.1684 -2.1827
 9410SOL     OW29063   4.012   4.750   6.164  0.1251 -0.2082  0.6304
 9410SOL    HW129064   4.082   4.803   6.202 -0.2833 -0.7574  2.2231
 9410SOL    HW229065   3.939   4.758   6.225 -0.7011 -0.8445 -0.2319
 9411SOL     OW29066   3.716   2.642   4.573  0.3490  0.4154  0.0121
 9411SOL    HW129067   3.680   2.690   4.498  0.0878 -0.2511 -0.3005
 9411SOL    HW229068   3.657   2.663   4.645 -1.1654 -1.2281 -0.6528
 9412SOL     OW29069   2.113   6.396   6.375  0.4193  0.2339 -0.2869
 9412SOL    HW129070   2.193   6.433   6.338  0.0742 -1.1586 -2.5988
 9412SOL    HW229071   2.042   6.440   6.328 -0.0525 -1.1199 -0.8873
 9413SOL     OW29072   0.895   6.862   2.724  0.0520 -0.1071 -0.2913
 9413SOL    HW129073   0.820   6.822   2.767  0.4189 -0.0203  0.4434
 9413SOL    HW229074   0.938   6.790   2.678 -0.2304 -0.2420 -0.3415
 9414SOL     OW29075   5.641   0.101   6.868 -0.0904  0.6856  0.2480
 9414SOL    HW129076   5.667   0.180   6.821 -0.2345  0.4652 -0.2061
 9414SOL    HW229077   5.720   0.046   6.868 -0.4197  0.1998 -0.7510
 9415SOL     OW29078   7.626   4.799   3.671 -0.0840 -0.0867  0.4794
 9415SOL    HW129079   7.627   4.840   3.584  1.1487 -0.0311  0.5104
 9415SOL    HW229080   7.576   4.860   3.726  1.5724  1.3265  0.4830
 9416SOL     OW29081   4.541   4.787   5.672  0.5688 -0.1856  0.6570
 9416SOL    HW129082   4.632   4.800   5.645  0.7192 -1.6450  0.3796
 9416SOL    HW229083   4.539   4.818   5.763  1.0354  0.9775  0.2911
 9417SOL     OW29084   3.821   0.306   0.266  0.1181  0.0388  0.4904
 9417SOL    HW129085   3.888   0.257   0.314  0.1490  1.7882  2.3085
 9417SOL    HW229086   3.741   0.256   0.279  0.3058  0.0250  1.6423
 9418SOL     OW29087   2.795   2.309   0.811 -0.1300 -0.5288 -0.2671
 9418SOL    HW129088   2.715   2.272   0.850 -0.4806  0.0879 -0.3696
 9418SOL    HW229089   2.763   2.360   0.736  0.2579  0.4027  0.1783
 9419SOL     OW29090   5.983   4.358   2.227  0.0087 -0.4774  0.1700
 9419SOL    HW129091   5.902   4.309   2.239  0.5621 -1.2203  1.0746
 9419SOL    HW229092   6.017   4.369   2.316  0.1224  1.1975 -0.0530
 9420SOL     OW29093   0.793   7.227   4.277 -0.1863 -0.3577  0.1170
 9420SOL    HW129094   0.766   7.146   4.321  0.7316 -1.2819 -0.9743
 9420SOL    HW229095   0.801   7.202   4.185  1.9991  0.4786  0.0368
 9421SOL     OW29096   0.545   1.750   2.831 -0.2860 -0.3923 -0.2638
 9421SOL    HW129097   0.611   1.687   2.801  0.3500 -0.5520  1.3689
 9421SOL    HW229098   0.496   1.773   2.752  2.9334  1.2392 -1.9386
 9422SOL     OW29099   2.471   3.524   0.099  0.2558 -0.0445  0.4350
 9422SOL    HW129100   2.400   3.522   0.163 -0.1217  0.9326  0.0553
 9422SOL    HW229101   2.441   3.467   0.028 -0.2107  0.4557  0.2232
 9423SOL     OW29102   5.671   6.755   2.159 -0.0796  0.4300 -0.4565
 9423SOL    HW129103   5.711   6.826   2.209  1.5973 -0.8711  0.1464
 9423SOL    HW229104   5.702   6.768   2.069  1.3886 -0.3035 -0.0795
 9424SOL     OW29105   7.750   1.728   7.786  0.8784 -0.5101 -0.1288
 9424SOL    HW129106   7.690   1.771   7.847  0.6749 -0.4590 -0.3647
 9424SOL    HW229107   7.812   1.681   7.843  1.2958  0.3389  0.1488
 9425SOL     OW29108   1.479   1.764   2.913  0.6970  0.3112  0.1021
 9425SOL    HW129109   1.416   1.828   2.948  1.0656  1.7624 -1.7390
 9425SOL    HW229110   1.424   1.691   2.885  0.0529  0.6567  0.4230
 9426SOL     OW29111   4.295   3.284   2.384 -0.7127 -0.6666  0.4624
 9426SOL    HW129112   4.212   3.298   2.337 -1.1042 -2.1885  0.6456
 9426SOL    HW229113   4.361   3.278   2.315 -0.5291  1.6404  0.3532
 9427SOL     OW29114   2.882   7.296   1.651  0.5591 -0.6866  0.2353
 9427SOL    HW129115   2.897   7.222   1.593  2.0264  0.6396 -1.1757
 9427SOL    HW229116   2.886   7.373   1.594  0.3857  0.5690  1.8361
 9428SOL     OW29117   5.318   4.684   4.165  0.5004  0.4902  0.3420
 9428SOL    HW129118   5.379   4.711   4.096  1.5681 -2.3218  0.0283
 9428SOL    HW229119   5.266   4.762   4.184  2.4754  2.2920 -1.2077
 9429SOL     OW29120   4.174   7.315   4.541  0.2429 -0.3011 -0.0071
 9429SOL    HW129121   4.259   7.322   4.498  0.1495  0.1957 -0.1285
 9429SOL    HW229122   4.121   7.262   4.481  0.3447 -0.2634 -0.1307
 9430SOL     OW29123   0.517   3.194   7.776 -0.2754  0.1352  0.9150
 9430SOL    HW129124   0.451   3.147   7.726  0.0772 -0.5810  1.1092
 9430SOL    HW229125   0.537   3.137   7.850  1.4783 -0.2863  0.1825
 9431SOL     OW29126   1.081   2.392   2.947 -0.5148  0.4455 -0.2590
 9431SOL    HW129127   1.039   2.366   3.029 -0.4711  1.3421  0.0506
 9431SOL    HW229128   1.141   2.319   2.928 -1.5251 -0.4218 -0.2373
 9432SOL     OW29129   5.626   5.735   5.120  0.0854 -0.1272 -0.3389
 9432SOL    HW129130   5.533   5.750   5.134  0.4123  3.1716 -0.9200
 9432SOL    HW229131   5.667   5.762   5.203  0.6895  1.7392 -1.1920
 9433SOL     OW29132   0.462   3.138   7.179  0.1350 -0.2267  0.4071
 9433SOL    HW129133   0.440   3.070   7.242 -0.4735 -1.3059 -0.9249
 9433SOL    HW229134   0.555   3.125   7.161 -0.0156 -0.8226  0.0384
 9434SOL     OW29135   1.004   0.035   0.476 -0.5181  0.2853  0.0446
 9434SOL    HW129136   1.065   0.032   0.403 -3.5998 -0.8530 -2.7347
 9434SOL    HW229137   1.014  -0.049   0.520  0.8395  0.6776  0.5144
 9435SOL     OW29138   7.795   3.431   1.707  0.1322  0.0606  0.1564
 9435SOL    HW129139   7.755   3.372   1.643 -1.4410 -0.2006  1.3154
 9435SOL    HW229140   7.765   3.518   1.681  1.1687  0.2030 -0.6280
 9436SOL     OW29141   5.080   5.498   0.560  0.4217 -0.5021  0.1272
 9436SOL    HW129142   4.986   5.496   0.577  0.3025 -0.2515 -0.4585
 9436SOL    HW229143   5.121   5.481   0.645 -0.1191  0.9932  0.7095
 9437SOL     OW29144   0.441   0.708   4.104 -0.1011 -0.7658  0.2291
 9437SOL    HW129145   0.477   0.674   4.023 -0.3445 -2.8697  0.9540
 9437SOL    HW229146   0.425   0.631   4.159 -1.4600  0.4386  1.6593
 9438SOL     OW29147   2.498   4.042   1.825  0.2244 -0.5613 -0.3396
 9438SOL    HW129148   2.549   4.021   1.747  0.0600  0.5695 -0.7688
 9438SOL    HW229149   2.526   4.130   1.849 -1.1891 -0.0819 -0.3277
 9439SOL     OW29150   1.650   0.624   7.114 -0.3962  0.7409 -0.0720
 9439SOL    HW129151   1.565   0.583   7.129 -0.1261 -0.1853 -0.9660
 9439SOL    HW229152   1.629   0.707   7.071 -0.9125  1.2396  1.1104
 9440SOL     OW29153   1.368   7.696   2.305 -0.3260 -0.5848 -0.4902
 9440SOL    HW129154   1.359   7.601   2.311  0.6616 -0.6731 -0.3804
 9440SOL    HW229155   1.382   7.725   2.395  0.5280 -0.4575 -0.6629
 9441SOL     OW29156   1.810   2.925   4.532 -0.1814 -0.4315  0.2905
 9441SOL    HW129157   1.723   2.888   4.549 -0.0538 -1.1911 -0.6446
 9441SOL    HW229158   1.833   2.969   4.614  0.1032 -3.3236  1.9262
 9442SOL     OW29159   5.386   3.443   2.972 -0.1456  0.4756 -0.3196
 9442SOL    HW129160   5.442   3.520   2.979  1.0245 -0.0968 -2.4737
 9442SOL    HW229161   5.448   3.370   2.966 -1.1290 -0.2788 -1.7448
 9443SOL     OW29162   4.147   5.429   7.790  0.1553 -0.0245 -0.4250
 9443SOL    HW129163   4.223   5.419   7.731  1.7012  1.3406  1.2087
 9443SOL    HW229164   4.154   5.355   7.850  1.3119  1.0480  0.8297
 9444SOL     OW29165   1.069   6.418   0.527 -0.5070  0.4556  0.1837
 9444SOL    HW129166   1.076   6.325   0.503 -0.9440  0.5038 -0.1595
 9444SOL    HW229167   0.978   6.440   0.509 -0.8857  0.4866  2.0150
 9445SOL     OW29168   2.516   7.295   1.894 -0.7050 -0.2433  0.3613
 9445SOL    HW129169   2.457   7.366   1.871 -1.3919 -0.9558 -0.1011
 9445SOL    HW229170   2.460   7.228   1.933 -0.2530 -1.0213 -0.2922
 9446SOL     OW29171   7.167   7.635   3.737 -0.0233 -0.0169  0.3109
 9446SOL    HW129172   7.211   7.625   3.653  0.4133  1.9361  0.2634
 9446SOL    HW229173   7.225   7.591   3.800  0.7090  0.3107 -0.1239
 9447SOL     OW29174   3.497   3.444   2.856 -0.4274  1.0193 -0.1740
 9447SOL    HW129175   3.468   3.353   2.850 -0.6325  1.1134 -0.6506
 9447SOL    HW229176   3.433   3.487   2.912 -0.6893  1.0183 -0.4744
 9448SOL     OW29177   4.079   4.483   5.529 -0.1734  0.1803  0.0494
 9448SOL    HW129178   4.173   4.470   5.540 -0.2829 -0.6111  0.1097
 9448SOL    HW229179   4.039   4.430   5.598 -0.6567  0.7554  0.2170
 9449SOL     OW29180   0.582   4.476   6.803  0.0034  0.0348  0.6412
 9449SOL    HW129181   0.519   4.406   6.822  0.5343 -1.0185 -1.1738
 9449SOL    HW229182   0.529   4.555   6.794 -0.7223 -0.3001  1.7580
 9450SOL     OW29183   6.351   0.191   2.198 -0.5960  0.2452  0.0516
 9450SOL    HW129184   6.322   0.102   2.215 -2.6677  0.7291 -0.6869
 9450SOL    HW229185   6.352   0.233   2.284  0.1123 -0.3795  0.3635
 9451SOL     OW29186   3.984   7.800   0.974  0.1425  0.0755 -0.0756
 9451SOL    HW129187   3.969   7.729   1.036 -0.6613  0.5056  0.2382
 9451SOL    HW229188   3.904   7.803   0.922  0.8505 -0.3496 -1.2219
 9452SOL     OW29189   6.426   1.452   5.999 -0.5574 -0.0557  0.2635
 9452SOL    HW129190   6.404   1.537   6.037 -1.9868 -1.9347  4.0940
 9452SOL    HW229191   6.522   1.448   6.002 -0.5106  1.1274  0.6435
 9453SOL     OW29192   1.139   2.201   4.316  0.5286 -0.0803 -0.0727
 9453SOL    HW129193   1.110   2.289   4.341 -1.1832 -0.9813  1.2575
 9453SOL    HW229194   1.201   2.176   4.385 -0.1555 -0.5037  0.3933
 9454SOL     OW29195   1.657   5.277   2.838 -0.3504 -0.2324 -0.9850
 9454SOL    HW129196   1.738   5.324   2.815 -0.7150  0.8251 -0.1712
 9454SOL    HW229197   1.682   5.185   2.835  1.2668  0.1014  0.5336
 9455SOL     OW29198   6.992   5.953   7.931  0.0963 -0.2273 -0.0329
 9455SOL    HW129199   6.917   5.964   7.872  0.9748  1.2889 -0.9058
 9455SOL    HW229200   7.038   5.876   7.897 -1.1937 -1.3947  0.7148
 9456SOL     OW29201   5.540   0.929   6.419 -0.4117 -0.0535 -0.1810
 9456SOL    HW129202   5.619   0.958   6.374 -0.2932 -1.1217 -0.6847
 9456SOL    HW229203   5.475   0.997   6.400  0.5571  1.2033  0.8259
 9457SOL     OW29204   7.104   5.152   6.258 -0.3432  0.4689  0.3272
 9457SOL    HW129205   7.032   5.134   6.198  0.9355 -1.9546 -0.6010
 9457SOL    HW229206   7.147   5.229   6.221 -1.7972  1.2967  0.3010
 9458SOL     OW29207   1.602   1.414   2.846  0.3285 -0.1737 -0.0565
 9458SOL    HW129208   1.657   1.404   2.923 -0.9518 -0.8478  0.7964
 9458SOL    HW229209   1.655   1.379   2.774  1.9999  1.5234  0.2636
 9459SOL     OW29210   3.809   5.857   6.699  0.4552 -0.1349 -0.5274
 9459SOL    HW129211   3.786   5.773   6.739 -0.0516  0.4969  0.5518
 9459SOL    HW229212   3.896   5.843   6.662 -0.0210 -1.4133 -1.2087
 9460SOL     OW29213   7.206   0.896   7.208 -0.1832  0.0375 -0.3760
 9460SOL    HW129214   7.242   0.812   7.180 -2.3010 -1.5851  1.4456
 9460SOL    HW229215   7.198   0.888   7.303 -1.3738  1.9316 -0.2784
 9461SOL     OW29216   0.277   6.253   5.193  0.9207 -0.2347  0.1198
 9461SOL    HW129217   0.339   6.285   5.127 -0.1492  1.8690  0.0473
 9461SOL    HW229218   0.230   6.331   5.222  1.5964 -0.9790  3.6932
 9462SOL     OW29219   3.701   4.855   1.453 -0.6983 -0.5583  0.1380
 9462SOL    HW129220   3.695   4.761   1.470 -2.8334 -0.5464 -0.3250
 9462SOL    HW229221   3.668   4.896   1.533 -1.6609 -0.2699 -0.3943
 9463SOL     OW29222   0.627   7.560   6.888  0.1448  0.1955  0.0824
 9463SOL    HW129223   0.614   7.595   6.801 -1.3415  0.5133  0.4076
 9463SOL    HW229224   0.707   7.508   6.882  0.8479  1.3732 -1.0926
 9464SOL     OW29225   1.146   0.914   0.874  0.0260  0.1633 -0.2563
 9464SOL    HW129226   1.146   0.819   0.874 -0.1936  0.1490  0.6713
 9464SOL    HW229227   1.138   0.938   0.966 -0.6080  1.0801 -0.5325
 9465SOL     OW29228   5.093   1.080   2.419 -0.5967  0.0914  0.1973
 9465SOL    HW129229   5.129   0.995   2.444 -1.6970 -0.1031  1.2405
 9465SOL    HW229230   5.103   1.134   2.498 -1.8757  0.2492  0.2693
 9466SOL     OW29231   0.551   5.183   7.394 -0.7457  0.1643  0.2814
 9466SOL    HW129232   0.634   5.153   7.356 -0.2373  1.1597  0.5533
 9466SOL    HW229233   0.525   5.256   7.338 -1.3512 -0.0358  0.3021
 9467SOL     OW29234   6.177   6.619   6.877 -0.0120 -0.4582  0.4706
 9467SOL    HW129235   6.094   6.666   6.883 -0.7638 -1.1945 -2.5935
 9467SOL    HW229236   6.155   6.528   6.899  0.2322 -0.4464  0.7705
 9468SOL     OW29237   1.719   0.944   6.579  0.1073 -0.2577  0.3930
 9468SOL    HW129238   1.779   0.966   6.650  1.7866 -0.6199 -0.8654
 9468SOL    HW229239   1.632   0.962   6.615  1.0085  1.5209  1.8241
 9469SOL     OW29240   1.548   6.989   0.725 -0.0551 -0.8615  0.7714
 9469SOL    HW129241   1.495   6.926   0.773  0.9912 -1.5011  1.1409
 9469SOL    HW229242   1.636   6.979   0.762  0.5360 -0.5607 -0.4883
 9470SOL     OW29243   3.141   7.428   2.879  0.2681 -0.4866  0.1613
 9470SOL    HW129244   3.228   7.458   2.854  0.9306 -1.1601  1.5303
 9470SOL    HW229245   3.088   7.508   2.882  1.7300  0.5270  2.6975
 9471SOL     OW29246   1.790   2.789   2.366 -0.7215  0.1616  0.1804
 9471SOL    HW129247   1.762   2.874   2.331 -1.0992  0.0132  0.1269
 9471SOL    HW229248   1.717   2.730   2.349  0.3491 -0.7079 -1.7284
 9472SOL     OW29249   3.346   7.334   3.304  0.4873  0.2083  0.1374
 9472SOL    HW129250   3.271   7.321   3.247  1.4245 -0.4056 -0.9904
 9472SOL    HW229251   3.400   7.256   3.292  2.1953  1.4285 -0.4835
 9473SOL     OW29252   1.250   1.327   1.472  0.0904 -0.7817  0.3400
 9473SOL    HW129253   1.282   1.417   1.475  0.3326 -0.8050 -0.9906
 9473SOL    HW229254   1.239   1.302   1.564  0.6535  0.3742  0.7350
 9474SOL     OW29255   5.547   0.338   4.632 -0.1606  0.3155 -0.1134
 9474SOL    HW129256   5.544   0.255   4.585 -1.3311 -0.5934  1.4763
 9474SOL    HW229257   5.459   0.373   4.624  0.5413  1.8999 -1.5221
 9475SOL     OW29258   0.577   7.384   1.039 -0.0206 -0.2510  0.5574
 9475SOL    HW129259   0.610   7.324   1.105 -0.2048 -0.2064  0.6921
 9475SOL    HW229260   0.489   7.352   1.020 -0.4164  0.4329  1.1968
 9476SOL     OW29261   7.228   6.334   0.218  0.1767 -0.1303  0.3092
 9476SOL    HW129262   7.161   6.369   0.276  1.5686  2.9542  0.2553
 9476SOL    HW229263   7.241   6.401   0.152  2.2887 -1.2431 -0.5320
 9477SOL     OW29264   4.081   5.773   4.027  0.6608  0.4373 -0.3200
 9477SOL    HW129265   4.091   5.857   3.981  0.6471  0.3449 -0.4945
 9477SOL    HW229266   4.023   5.722   3.970  0.9316  0.1887 -0.3744
 9478SOL     OW29267   1.410   3.951   6.087  0.3283 -0.0171  0.0651
 9478SOL    HW129268   1.342   4.018   6.093  1.4019  1.0999  0.1441
 9478SOL    HW229269   1.387   3.901   6.009 -0.0353  0.9846 -0.4928
 9479SOL     OW29270   0.365   3.157   1.469  0.5713 -0.0962 -0.3314
 9479SOL    HW129271   0.308   3.082   1.487  0.1761  0.5210  1.1652
 9479SOL    HW229272   0.323   3.230   1.514  1.9491  0.6226 -0.1663
 9480SOL     OW29273   7.753   2.492   5.242 -0.5550  0.4156  0.0339
 9480SOL    HW129274   7.726   2.460   5.156 -1.4229  1.5782 -0.1468
 9480SOL    HW229275   7.776   2.583   5.228  0.7289  0.2226  0.7708
 9481SOL     OW29276   3.062   2.267   0.672  0.0095  0.7458 -0.4098
 9481SOL    HW129277   3.086   2.349   0.629  1.1305  1.0614  0.7686
 9481SOL    HW229278   2.970   2.279   0.696 -0.4938  0.7696 -2.1704
 9482SOL     OW29279   1.264   5.896   5.938  0.4066  0.2370  0.4904
 9482SOL    HW129280   1.245   5.821   5.995  0.3017  0.6740  1.0367
 9482SOL    HW229281   1.276   5.857   5.851  0.3482 -0.4137  0.7650
 9483SOL     OW29282   3.663   1.844   0.169  0.1084 -0.4036 -0.1447
 9483SOL    HW129283   3.696   1.823   0.081 -1.6158 -2.2553 -0.4020
 9483SOL    HW229284   3.697   1.774   0.224  0.9628  0.6143  0.6707
 9484SOL     OW29285   6.922   5.103   7.133 -0.0859  0.9711 -0.4396
 9484SOL    HW129286   6.953   5.163   7.065 -0.0698  1.7504  0.2254
 9484SOL    HW229287   6.968   5.021   7.116  0.1220  1.2370 -1.1958
 9485SOL     OW29288   5.768   7.021   5.524  0.2957 -0.5533 -0.1817
 9485SOL    HW129289   5.692   6.972   5.556 -0.5033 -0.0300 -1.2277
 9485SOL    HW229290   5.736   7.110   5.513  1.2753 -0.1664  0.0750
 9486SOL     OW29291   2.570   2.753   4.413  0.0510 -0.0104  0.1633
 9486SOL    HW129292   2.501   2.807   4.374 -0.7964 -1.1051  0.1088
 9486SOL    HW229293   2.646   2.811   4.417 -1.2967  1.7909  1.7515
 9487SOL     OW29294   0.312   6.415   7.307  0.0666 -0.8494 -0.2244
 9487SOL    HW129295   0.323   6.431   7.213 -1.0997 -0.0718 -0.2433
 9487SOL    HW229296   0.275   6.327   7.313  0.7955 -1.1843 -0.4355
 9488SOL     OW29297   0.327   5.772   5.329  0.1814  0.6175  0.2315
 9488SOL    HW129298   0.338   5.860   5.293 -2.2962  0.5558 -0.8490
 9488SOL    HW229299   0.235   5.767   5.354  0.4073 -1.4828  0.8173
 9489SOL     OW29300   3.778   6.384   1.442 -0.2167 -0.5705  0.0955
 9489SOL    HW129301   3.689   6.380   1.475  0.4407 -0.9968  1.9092
 9489SOL    HW229302   3.795   6.297   1.406 -0.6689 -0.3465 -0.6796
 9490SOL     OW29303   1.656   2.048   6.979  0.4061  0.4072  0.3479
 9490SOL    HW129304   1.594   2.121   6.988 -0.0268 -0.2027  3.0732
 9490SOL    HW229305   1.738   2.082   7.015  0.1841 -0.4272  1.7002
 9491SOL     OW29306   1.065   6.129   0.470  0.3022 -0.5283 -0.0393
 9491SOL    HW129307   1.096   6.068   0.538  0.5408 -0.9822 -0.5543
 9491SOL    HW229308   1.039   6.073   0.397 -0.4650 -0.0655 -0.1224
 9492SOL     OW29309   3.184   7.311   2.248 -0.1400 -0.3848  0.0498
 9492SOL    HW129310   3.179   7.389   2.302  1.3610 -0.8232  0.8886
 9492SOL    HW229311   3.098   7.270   2.256 -0.5295  0.5170  0.6158
 9493SOL     OW29312   2.111   0.219   1.978 -0.0319  0.0764  0.5909
 9493SOL    HW129313   2.088   0.239   2.069 -0.8874  0.4889  0.2972
 9493SOL    HW229314   2.057   0.279   1.927  0.6540  0.0414 -0.1817
 9494SOL     OW29315   1.277   7.459   0.920 -0.5972  0.6497  0.5239
 9494SOL    HW129316   1.260   7.410   0.840 -1.3237  0.9596  0.4800
 9494SOL    HW229317   1.368   7.440   0.941 -1.7665 -3.7765  2.5829
 9495SOL     OW29318   3.440   6.730   6.829 -0.6471 -0.2719 -0.7094
 9495SOL    HW129319   3.347   6.733   6.807 -0.6614 -0.5903 -0.6997
 9495SOL    HW229320   3.458   6.816   6.868 -0.5656  0.4066 -2.1573
 9496SOL     OW29321   5.347   5.130   1.092 -0.1311  0.3091  0.5458
 9496SOL    HW129322   5.278   5.191   1.066 -1.2768 -0.8738  0.7038
 9496SOL    HW229323   5.371   5.086   1.010 -0.4582 -0.1614  0.7006
 9497SOL     OW29324   0.921   4.690   4.245  0.0142 -0.5965 -0.1599
 9497SOL    HW129325   0.905   4.739   4.164  0.4200 -0.0783  0.0714
 9497SOL    HW229326   0.896   4.600   4.223  1.2368 -0.7031 -1.2265
 9498SOL     OW29327   1.614   5.677   0.050 -0.2733 -1.2416  0.0013
 9498SOL    HW129328   1.582   5.733  -0.021 -0.8927 -1.6528 -0.0497
 9498SOL    HW229329   1.703   5.708   0.066 -1.1683  0.9290  1.1608
 9499SOL     OW29330   3.595   3.679   2.046 -0.0785 -0.8203  0.0706
 9499SOL    HW129331   3.683   3.644   2.028  1.1886  1.3660  1.6464
 9499SOL    HW229332   3.545   3.658   1.967  2.4908 -0.1304 -1.8713
 9500SOL     OW29333   0.308   0.149   5.557  0.3530 -0.1546  0.0875
 9500SOL    HW129334   0.240   0.128   5.621  0.4705  0.2475  0.3481
 9500SOL    HW229335   0.321   0.068   5.508  0.2932 -0.4781  0.6028
 9501SOL     OW29336   1.435   2.076   0.322 -0.3022  0.1146  0.7556
 9501SOL    HW129337   1.469   2.122   0.400 -0.0899  0.4964  0.4411
 9501SOL    HW229338   1.394   1.997   0.357 -1.5117  1.0057  1.4040
 9502SOL     OW29339   1.888   7.868   0.388 -0.0655  0.0379 -0.2753
 9502SOL    HW129340   1.959   7.804   0.396 -0.6572 -0.4851  0.9325
 9502SOL    HW229341   1.862   7.887   0.478 -1.6106  0.0645 -0.7049
 9503SOL     OW29342   3.140   2.735   4.044  0.0966 -0.7265 -0.3339
 9503SOL    HW129343   3.080   2.668   4.009 -1.3259 -0.8465  2.1184
 9503SOL    HW229344   3.222   2.689   4.057 -0.6305 -1.8276  0.5518
 9504SOL     OW29345   5.475   2.682   5.226  0.0187 -0.2008  0.2257
 9504SOL    HW129346   5.405   2.647   5.171 -0.1352 -0.7751  0.7796
 9504SOL    HW229347   5.448   2.662   5.316  1.0852 -0.7916  0.4322
 9505SOL     OW29348   6.849   2.489   6.224  0.7122  0.3338 -0.1397
 9505SOL    HW129349   6.835   2.583   6.217 -0.0873  0.1524 -1.3962
 9505SOL    HW229350   6.857   2.472   6.318 -1.4399  1.3697  0.3001
 9506SOL     OW29351   6.938   2.158   5.983  0.4123  0.0186  0.4349
 9506SOL    HW129352   6.970   2.088   5.926  0.4845 -0.2562  0.8092
 9506SOL    HW229353   6.855   2.125   6.017  1.0589 -0.4356  1.6140
 9507SOL     OW29354   6.841   0.532   5.280 -0.0593 -0.1751  0.0371
 9507SOL    HW129355   6.911   0.517   5.343 -0.1247 -0.4058  0.0582
 9507SOL    HW229356   6.766   0.558   5.333 -0.0922 -0.2926  0.0499
 9508SOL     OW29357   1.268   5.647   1.067 -0.7760  0.1734  0.9754
 9508SOL    HW129358   1.265   5.558   1.032 -1.7645  0.9076 -0.9556
 9508SOL    HW229359   1.194   5.651   1.128 -0.7865 -0.2838  1.0003
 9509SOL     OW29360   3.523   6.940   0.241 -0.3986 -0.0646 -0.4928
 9509SOL    HW129361   3.494   7.012   0.297  0.0771 -0.1603 -0.1180
 9509SOL    HW229362   3.605   6.971   0.203  0.3792 -0.8194  0.5187
 9510SOL     OW29363   5.097   1.263   4.660  0.3144 -0.0987  0.0867
 9510SOL    HW129364   5.059   1.207   4.592  0.1210  0.1366 -0.0023
 9510SOL    HW229365   5.114   1.204   4.733 -1.4982  0.0003  0.6457
 9511SOL     OW29366   3.617   2.715   5.363  0.3517  0.8329 -0.5133
 9511SOL    HW129367   3.538   2.709   5.417  0.6716  1.6823  0.0714
 9511SOL    HW229368   3.600   2.655   5.290  0.3043 -1.1129  0.9926
 9512SOL     OW29369   6.161   3.209   4.348  0.0039  0.3425  0.0129
 9512SOL    HW129370   6.105   3.146   4.393  1.4540 -0.7301  0.3880
 9512SOL    HW229371   6.154   3.185   4.255  0.7608 -0.5911  0.1778
 9513SOL     OW29372   4.028   5.915   4.477  0.0269  0.2627  1.0209
 9513SOL    HW129373   4.089   5.885   4.408  0.9573  0.4321  1.7473
 9513SOL    HW229374   4.011   6.007   4.456 -0.4262  0.0656  0.5038
 9514SOL     OW29375   4.713   3.698   1.679 -0.0341  0.1317  0.5157
 9514SOL    HW129376   4.711   3.708   1.774  0.7189 -2.2260  0.8418
 9514SOL    HW229377   4.805   3.704   1.656 -0.1050 -0.3413  0.0801
 9515SOL     OW29378   5.626   7.654   3.607 -0.3334  0.1753 -0.3134
 9515SOL    HW129379   5.557   7.719   3.600 -0.9632 -0.3127  1.0380
 9515SOL    HW229380   5.705   7.704   3.626 -1.1387  0.4911  2.6052
 9516SOL     OW29381   0.047   1.858   7.362  0.0178  0.4558  0.1379
 9516SOL    HW129382   0.062   1.897   7.276 -1.2025 -0.5060 -0.5437
 9516SOL    HW229383  -0.049   1.854   7.371  0.1223  0.0059  1.2842
 9517SOL     OW29384   6.821   6.247   2.479  0.5326 -0.1259  0.1502
 9517SOL    HW129385   6.828   6.151   2.480  1.4831 -0.1150  2.9728
 9517SOL    HW229386   6.848   6.272   2.390 -1.9281 -2.5288 -1.4617
 9518SOL     OW29387   7.096   4.906   4.535  0.8151  0.7062  0.0584
 9518SOL    HW129388   7.093   4.904   4.631  1.2682 -0.4906  0.0745
 9518SOL    HW229389   7.116   4.815   4.510 -0.6471  0.7037 -1.2314
 9519SOL     OW29390   7.494   5.833   1.266  0.0813 -0.0606 -0.1131
 9519SOL    HW129391   7.517   5.829   1.173  0.8339  0.3276  0.0416
 9519SOL    HW229392   7.567   5.790   1.311 -0.9979 -1.6280  0.2152
 9520SOL     OW29393   2.420   4.971   0.544 -0.2693  0.3635  0.4462
 9520SOL    HW129394   2.460   4.885   0.561 -0.6514  0.2685  0.8914
 9520SOL    HW229395   2.373   4.991   0.625 -1.1345  0.4734 -0.0722
 9521SOL     OW29396   5.607   5.011   0.820 -0.0013 -0.3336 -0.0255
 9521SOL    HW129397   5.692   5.043   0.848 -0.6454  0.0038  1.6692
 9521SOL    HW229398   5.616   4.916   0.818  0.4200 -0.2974  0.1254
 9522SOL     OW29399   4.439   0.247   6.229  0.2612  0.1912 -0.2144
 9522SOL    HW129400   4.501   0.315   6.255  0.7023 -0.3505  0.1658
 9522SOL    HW229401   4.386   0.232   6.307 -0.0798  0.3616 -0.4126
 9523SOL     OW29402   5.916   6.493   3.864 -0.4025  0.1996 -0.1567
 9523SOL    HW129403   5.855   6.510   3.792 -0.5395  1.8594  0.2977
 9523SOL    HW229404   5.862   6.497   3.942  0.0795  0.4442  0.1673
 9524SOL     OW29405   6.471   4.970   5.296  0.4218 -0.4983 -0.1677
 9524SOL    HW129406   6.563   4.985   5.319  0.7910 -0.2855 -1.6934
 9524SOL    HW229407   6.459   4.875   5.303  1.0486 -0.6413 -0.9490
 9525SOL     OW29408   6.943   4.873   3.350  0.1658  0.2182 -0.5227
 9525SOL    HW129409   6.926   4.800   3.291  1.1733  0.3966 -1.0572
 9525SOL    HW229410   6.965   4.946   3.292 -2.3946  1.4393 -0.0963
 9526SOL     OW29411   6.452   7.934   1.754  0.5801 -0.3647  0.3109
 9526SOL    HW129412   6.464   7.887   1.672 -1.4449 -1.8837  0.8179
 9526SOL    HW229413   6.484   7.874   1.821  2.2639  0.8790  0.6887
 9527SOL     OW29414   5.133   6.837   1.707  0.6144  0.1167 -0.2637
 9527SOL    HW129415   5.139   6.812   1.800  0.3978 -1.4176 -0.6298
 9527SOL    HW229416   5.040   6.825   1.686  0.4545  1.4760 -0.4377
 9528SOL     OW29417   7.439   4.079   6.084  0.3144  0.2293 -0.2732
 9528SOL    HW129418   7.439   4.009   6.019  1.8937 -0.4790  0.4139
 9528SOL    HW229419   7.512   4.135   6.059  0.0054  0.7852  0.0507
 9529SOL     OW29420   1.817   0.195   6.125  0.2093  0.5595  0.3559
 9529SOL    HW129421   1.835   0.288   6.119  0.2766  0.6031  1.2010
 9529SOL    HW229422   1.898   0.153   6.097 -0.3328  0.7235 -1.6398
 9530SOL     OW29423   7.537   0.915   2.398 -0.4634 -0.1629  0.2815
 9530SOL    HW129424   7.549   0.878   2.485  1.4449  1.3399  0.7187
 9530SOL    HW229425   7.625   0.915   2.359 -0.2702  3.8042  0.3481
 9531SOL     OW29426   4.754   7.279   2.575 -0.0089 -0.5151 -0.0559
 9531SOL    HW129427   4.788   7.279   2.485 -1.5100 -1.5791 -0.6604
 9531SOL    HW229428   4.830   7.300   2.629  1.6162 -2.7327 -1.3256
 9532SOL     OW29429   7.658   3.676   0.359 -0.1824  0.3112  0.4724
 9532SOL    HW129430   7.720   3.647   0.292  1.5728 -0.2903  2.2425
 9532SOL    HW229431   7.577   3.631   0.337 -0.8449  2.8982 -3.2691
 9533SOL     OW29432   3.553   7.015   1.810 -0.4483  0.6970  0.2381
 9533SOL    HW129433   3.484   7.061   1.762  1.4702  0.3223 -3.1885
 9533SOL    HW229434   3.525   6.923   1.809 -0.3630  0.6717 -0.3489
 9534SOL     OW29435   0.791   5.800   2.607  0.0157  0.0331  0.2220
 9534SOL    HW129436   0.844   5.879   2.614  0.4494 -0.2963  0.6955
 9534SOL    HW229437   0.792   5.763   2.695 -1.8236  0.5435  0.5143
 9535SOL     OW29438   7.124   1.741   3.222 -0.0059 -0.0040  0.4424
 9535SOL    HW129439   7.072   1.739   3.142  2.8286  1.1410 -1.6163
 9535SOL    HW229440   7.190   1.673   3.209  2.0254  1.8347  0.5933
 9536SOL     OW29441   6.471   5.754   6.099  0.2245 -0.1454 -0.0935
 9536SOL    HW129442   6.495   5.671   6.141 -0.7172 -0.2421  0.2900
 9536SOL    HW229443   6.554   5.797   6.080  0.6940 -0.5316  1.0112
 9537SOL     OW29444   0.157   6.138   7.324 -0.2600 -0.0001 -0.1920
 9537SOL    HW129445   0.111   6.099   7.399 -1.4097  0.1555 -0.7848
 9537SOL    HW229446   0.137   6.079   7.251  1.6949 -0.7247 -0.2024
 9538SOL     OW29447   6.455   2.648   4.264  0.0558  0.3166  0.2762
 9538SOL    HW129448   6.395   2.574   4.277  1.0042 -0.4369  0.5251
 9538SOL    HW229449   6.415   2.720   4.313 -0.1179 -0.4602  1.3341
 9539SOL     OW29450   1.000   1.948   7.814 -0.1131  0.3109  0.1223
 9539SOL    HW129451   1.027   2.039   7.807 -1.4915  0.7233 -0.1668
 9539SOL    HW229452   0.997   1.930   7.908  0.1330  0.5662  0.1776
 9540SOL     OW29453   4.364   7.340   6.863 -0.0752  0.1201  0.6144
 9540SOL    HW129454   4.449   7.297   6.851  0.0154  0.1209  1.2517
 9540SOL    HW229455   4.317   7.283   6.924 -0.2327  0.5376  0.8856
 9541SOL     OW29456   1.696   2.082   5.760  0.4120  0.0653 -0.3538
 9541SOL    HW129457   1.746   2.164   5.758  0.6889 -0.1023 -1.8988
 9541SOL    HW229458   1.735   2.028   5.691  0.5694 -1.5914  0.9756
 9542SOL     OW29459   6.979   5.376   1.915 -0.2580 -0.3330 -0.7055
 9542SOL    HW129460   6.993   5.424   1.834  1.4050  2.0927  0.8781
 9542SOL    HW229461   7.062   5.331   1.931  0.3899  1.2698  0.8222
 9543SOL     OW29462   2.363   6.863   6.519  0.5578 -0.2994  0.3822
 9543SOL    HW129463   2.319   6.913   6.588 -2.0077  1.6160 -2.3813
 9543SOL    HW229464   2.329   6.774   6.528  1.4636 -0.4964  2.4244
 9544SOL     OW29465   2.202   7.615   2.643 -0.7337  0.4299 -0.6455
 9544SOL    HW129466   2.175   7.523   2.651  0.7909 -0.2403 -2.3417
 9544SOL    HW229467   2.249   7.634   2.724  0.2728 -0.8243 -0.8960
 9545SOL     OW29468   0.240   1.639   2.792 -0.2283 -0.3816 -0.0631
 9545SOL    HW129469   0.266   1.706   2.729 -2.2703 -0.2381 -0.8066
 9545SOL    HW229470   0.245   1.557   2.743 -2.1030 -0.2395 -0.5532
 9546SOL     OW29471   0.236   5.565   7.440  0.4424 -0.4847 -0.2079
 9546SOL    HW129472   0.226   5.479   7.480  0.1623  0.2207  1.3268
 9546SOL    HW229473   0.180   5.622   7.493 -0.2804  0.4501 -1.8800
 9547SOL     OW29474   4.714   0.309   2.436 -0.2562  0.0502 -0.4059
 9547SOL    HW129475   4.773   0.266   2.498 -0.6137  0.4565  0.2204
 9547SOL    HW229476   4.770   0.372   2.390 -0.2054  0.4931  0.2429
 9548SOL     OW29477   6.735   0.420   6.717 -0.8736 -0.3344 -0.5936
 9548SOL    HW129478   6.827   0.444   6.728 -1.1593 -0.1417  2.2005
 9548SOL    HW229479   6.737   0.325   6.705 -0.3308 -0.3967 -0.0692
 9549SOL     OW29480   6.497   4.937   4.455 -0.4880  0.1056 -0.1260
 9549SOL    HW129481   6.524   4.939   4.363 -1.0833  0.3905 -0.2949
 9549SOL    HW229482   6.467   5.026   4.474 -4.1766 -0.8292 -0.8044
 9550SOL     OW29483   6.059   6.453   4.315 -0.1761 -0.7723 -0.4364
 9550SOL    HW129484   6.083   6.391   4.384  1.3247 -1.4902 -1.5639
 9550SOL    HW229485   6.136   6.507   4.303 -0.9785  0.3954 -0.4708
 9551SOL     OW29486   1.960   6.581   6.247 -0.1958 -0.2785  0.5280
 9551SOL    HW129487   1.978   6.669   6.281 -0.8180 -0.2341  0.7538
 9551SOL    HW229488   1.968   6.589   6.152 -0.4111  0.0576  0.5399
 9552SOL     OW29489   7.444   3.417   6.382 -0.2211  0.6811  0.1644
 9552SOL    HW129490   7.479   3.345   6.329 -2.9843 -0.2201 -0.5866
 9552SOL    HW229491   7.450   3.386   6.472  0.6763  0.4893  0.0489
 9553SOL     OW29492   7.658   0.364   1.939 -0.0441  0.9293  0.3148
 9553SOL    HW129493   7.649   0.308   2.015 -2.5878  0.8132  0.0165
 9553SOL    HW229494   7.684   0.450   1.974 -1.4568  0.9490  1.3627
 9554SOL     OW29495   3.449   3.033   2.160  0.4591 -0.6135  0.0469
 9554SOL    HW129496   3.498   2.959   2.197  0.0655 -0.4662  0.8919
 9554SOL    HW229497   3.358   3.003   2.160  0.3868 -0.3902 -0.2609
 9555SOL     OW29498   1.495   0.262   2.492  0.3800 -0.2378  0.3947
 9555SOL    HW129499   1.473   0.241   2.401 -1.6249  0.0595  0.7493
 9555SOL    HW229500   1.483   0.179   2.538  1.4519 -0.4016  0.3949
 9556SOL     OW29501   1.390   5.360   2.907  0.1032  0.0212  0.4294
 9556SOL    HW129502   1.474   5.336   2.867 -0.8155 -0.5921 -1.2546
 9556SOL    HW229503   1.352   5.277   2.936 -0.8119  0.0172 -0.7132
 9557SOL     OW29504   4.160   1.952   2.475  0.2564 -0.1102  0.0397
 9557SOL    HW129505   4.235   2.011   2.462  0.8337 -0.8426 -0.0276
 9557SOL    HW229506   4.130   1.931   2.386  0.3187 -0.2520  0.0520
 9558SOL     OW29507   4.985   6.785   2.507  0.4032  0.0548  0.0214
 9558SOL    HW129508   5.049   6.852   2.534  1.5836 -0.6246 -0.9862
 9558SOL    HW229509   4.973   6.800   2.413  0.1510 -0.7060 -0.0746
 9559SOL     OW29510   1.491   7.280   3.067 -0.1531 -0.1275 -0.5874
 9559SOL    HW129511   1.497   7.350   3.132  2.3545 -0.2011 -0.6410
 9559SOL    HW229512   1.492   7.199   3.119  0.0211 -0.1602 -0.6412
 9560SOL     OW29513   7.038   0.514   5.463  0.1732 -0.1602 -0.3679
 9560SOL    HW129514   7.098   0.586   5.482  0.0527  0.0165 -0.6498
 9560SOL    HW229515   7.012   0.481   5.548  1.2516 -0.7213 -0.2337
 9561SOL     OW29516   5.482   4.705   1.543  0.3370 -0.5509  1.0953
 9561SOL    HW129517   5.466   4.754   1.624  0.4074 -0.0444  0.8095
 9561SOL    HW229518   5.564   4.741   1.510  0.7530 -1.3505  1.2321
 9562SOL     OW29519   7.521   4.095   3.629  0.3915  0.9226  0.0960
 9562SOL    HW129520   7.567   4.014   3.654 -0.9071 -0.3433 -1.3878
 9562SOL    HW229521   7.588   4.149   3.589  0.7180 -0.8087 -1.8560
 9563SOL     OW29522   5.344   2.635   6.509 -0.0108  0.3247 -0.7345
 9563SOL    HW129523   5.300   2.643   6.424  0.3811  1.0512 -0.8862
 9563SOL    HW229524   5.436   2.622   6.487  0.7005  3.8411 -0.5268
 9564SOL     OW29525   3.095   2.152   1.630 -0.0610 -0.3899  0.4493
 9564SOL    HW129526   3.164   2.085   1.631 -0.2014 -0.5727  2.1087
 9564SOL    HW229527   3.116   2.208   1.705 -1.1366  0.1521  0.3578
 9565SOL     OW29528   4.145   2.987   2.757 -0.0884  0.7379  0.0501
 9565SOL    HW129529   4.114   3.037   2.681 -0.9544 -0.4423 -0.3941
 9565SOL    HW229530   4.199   2.918   2.719  0.0757  0.5791  0.5696
 9566SOL     OW29531   2.999   7.239   3.440 -0.2987  0.1892 -0.1534
 9566SOL    HW129532   3.061   7.167   3.447  0.7645  1.1326  0.4416
 9566SOL    HW229533   2.996   7.277   3.529 -0.5944  1.0605 -0.5212
 9567SOL     OW29534   6.658   1.597   4.568 -0.4493  0.1707  0.5080
 9567SOL    HW129535   6.633   1.545   4.491 -1.6517  0.6580  0.5380
 9567SOL    HW229536   6.734   1.552   4.604 -1.2879 -1.4367  0.3846
 9568SOL     OW29537   7.038   5.137   2.629 -0.4407  0.2271 -0.4873
 9568SOL    HW129538   7.002   5.216   2.590 -1.2891 -1.2930 -3.0638
 9568SOL    HW229539   7.034   5.152   2.723 -0.8361  3.0815 -0.8797
 9569SOL     OW29540   0.812   0.418   7.800 -0.6718  0.4751 -0.2194
 9569SOL    HW129541   0.782   0.336   7.837 -1.0278  0.1195 -1.2616
 9569SOL    HW229542   0.755   0.485   7.838 -0.9656  0.1314 -0.0593
 9570SOL     OW29543   3.893   7.655   2.795  0.3232 -0.3931 -0.3080
 9570SOL    HW129544   3.820   7.664   2.856  0.7709 -0.5866  0.2609
 9570SOL    HW229545   3.948   7.731   2.813  0.2802 -0.2587 -0.7217
 9571SOL     OW29546   7.658   2.268   1.368  0.2855 -0.4836  0.3551
 9571SOL    HW129547   7.577   2.315   1.346  1.2353  0.8261 -0.4725
 9571SOL    HW229548   7.628   2.182   1.397 -1.5599  0.6877  2.2569
 9572SOL     OW29549   4.440   3.395   0.942  0.4943  0.5277  0.4055
 9572SOL    HW129550   4.434   3.299   0.938  2.4908  0.3567  0.3320
 9572SOL    HW229551   4.509   3.417   0.880  0.6316  1.9473  1.0381
 9573SOL     OW29552   0.106   5.568   3.225 -0.0990 -0.0303 -0.2128
 9573SOL    HW129553   0.083   5.606   3.141  0.4112  0.0965 -0.3000
 9573SOL    HW229554   0.182   5.619   3.255  0.4261 -0.7945 -0.2036
 9574SOL     OW29555   1.691   2.399   3.265 -0.0584 -0.1906 -0.3580
 9574SOL    HW129556   1.719   2.486   3.293  2.5145 -0.9406 -0.3526
 9574SOL    HW229557   1.631   2.370   3.335 -0.1678  1.1429  0.1461
 9575SOL     OW29558   7.029   1.998   0.437 -1.0184 -0.3043 -0.1071
 9575SOL    HW129559   7.009   1.904   0.441  0.1873 -0.6298 -0.9902
 9575SOL    HW229560   7.101   2.004   0.374 -1.7530  1.3427 -0.8349
 9576SOL     OW29561   5.535   3.526   6.483  0.1308  0.5092  0.2842
 9576SOL    HW129562   5.456   3.488   6.520  0.7790 -0.6227  0.5446
 9576SOL    HW229563   5.507   3.563   6.399 -0.3637 -1.3076 -0.3908
 9577SOL     OW29564   2.420   1.450   1.085 -0.1389 -0.3140  0.2486
 9577SOL    HW129565   2.496   1.415   1.133 -0.2725 -0.1891  0.5523
 9577SOL    HW229566   2.410   1.390   1.011 -0.9494 -1.4990  1.2720
 9578SOL     OW29567   7.843   7.631   1.722 -0.0854  0.1425  0.0626
 9578SOL    HW129568   7.816   7.711   1.676  0.5929  0.3558  0.0152
 9578SOL    HW229569   7.845   7.656   1.814 -1.7619 -0.3771  0.2632
 9579SOL     OW29570   1.719   7.602   0.926 -0.4971  0.1610 -0.1726
 9579SOL    HW129571   1.690   7.668   0.989 -1.8430  2.7790 -3.2335
 9579SOL    HW229572   1.803   7.635   0.893 -0.9589  0.1833 -1.3933
 9580SOL     OW29573   5.444   7.212   7.919  0.0221 -0.3846 -0.1942
 9580SOL    HW129574   5.447   7.125   7.879 -1.1531  0.3838 -2.0563
 9580SOL    HW229575   5.371   7.208   7.981 -0.1835 -0.6417 -0.4549
 9581SOL     OW29576   0.753   1.527   2.392  0.5994 -0.0051  0.2056
 9581SOL    HW129577   0.836   1.504   2.434  1.5833  0.0229 -1.6286
 9581SOL    HW229578   0.778   1.563   2.308 -1.3158 -0.8394 -0.7861
 9582SOL     OW29579   4.254   2.695   5.136  0.1340  0.0052 -0.6176
 9582SOL    HW129580   4.272   2.773   5.084 -0.6023  0.3716 -0.3250
 9582SOL    HW229581   4.193   2.724   5.203  1.6095 -0.2825  0.9171
 9583SOL     OW29582   0.715   0.723   5.622 -0.2054  0.4583 -0.2591
 9583SOL    HW129583   0.810   0.726   5.609 -0.2353  1.1406 -0.3677
 9583SOL    HW229584   0.700   0.641   5.668  0.3175 -0.1726 -1.1878
 9584SOL     OW29585   7.118   5.895   4.673 -0.5722 -0.6080 -0.1970
 9584SOL    HW129586   7.200   5.882   4.721 -0.7694  0.5743  0.4908
 9584SOL    HW229587   7.110   5.817   4.618  0.5571 -1.1593  0.3881
 9585SOL     OW29588   7.892   2.408   6.491  0.2687 -0.1817 -0.4205
 9585SOL    HW129589   7.822   2.353   6.456  1.7900 -1.9088 -0.9199
 9585SOL    HW229590   7.866   2.426   6.581 -0.6151 -1.1482 -0.4670
 9586SOL     OW29591   0.621   0.279   2.197 -0.2429  0.2904  0.4995
 9586SOL    HW129592   0.682   0.243   2.133  0.4889  0.6821  0.9585
 9586SOL    HW229593   0.668   0.353   2.235 -2.0148  2.3410 -1.0521
 9587SOL     OW29594   2.239   1.890   0.363  0.2561 -0.6936  0.0502
 9587SOL    HW129595   2.315   1.920   0.413  0.0445  0.8347 -0.4820
 9587SOL    HW229596   2.273   1.881   0.273 -0.2269  0.2777 -0.2477
 9588SOL     OW29597   4.345   0.154   0.279 -0.8173 -0.6763  0.5931
 9588SOL    HW129598   4.375   0.179   0.366 -1.4917  0.3207  0.5555
 9588SOL    HW229599   4.389   0.215   0.220  0.4731 -2.0169  0.1052
 9589SOL     OW29600   5.187   2.472   2.495 -0.1182  0.1821 -0.3104
 9589SOL    HW129601   5.233   2.522   2.563  2.2009 -2.2123  0.0714
 9589SOL    HW229602   5.101   2.453   2.533  0.1260  1.2122  0.8066
 9590SOL     OW29603   4.173   5.358   5.431 -0.3153 -0.5552 -0.1034
 9590SOL    HW129604   4.170   5.273   5.388  1.8654 -0.5676 -0.3182
 9590SOL    HW229605   4.158   5.421   5.361  0.0020 -0.6880 -0.2894
 9591SOL     OW29606   5.613   1.279   4.489  0.0853 -0.2380 -0.2487
 9591SOL    HW129607   5.540   1.261   4.549  1.1299 -2.2410  0.5009
 9591SOL    HW229608   5.633   1.372   4.504 -0.7329 -0.2688  1.3298
 9592SOL     OW29609   1.396   7.661   0.506  0.2100  0.4903  0.5751
 9592SOL    HW129610   1.348   7.682   0.586  1.4954  0.8995  1.2757
 9592SOL    HW229611   1.483   7.635   0.536  0.0885 -1.4594 -0.5699
 9593SOL     OW29612   0.231   7.092   1.665  0.4623  0.3108 -0.2718
 9593SOL    HW129613   0.260   7.161   1.725 -0.4390  1.4838 -1.1479
 9593SOL    HW229614   0.169   7.135   1.607 -1.5458 -1.6591  0.3020
 9594SOL     OW29615   4.157   7.488   5.070  0.4433  0.2585 -0.5738
 9594SOL    HW129616   4.113   7.404   5.087  0.1328  0.1727 -1.7267
 9594SOL    HW229617   4.250   7.468   5.079  0.3643 -0.1776 -0.6866
 9595SOL     OW29618   0.283   3.198   6.993  0.0074  0.1231  0.2085
 9595SOL    HW129619   0.358   3.174   7.048  0.4831  0.8018 -0.1245
 9595SOL    HW229620   0.225   3.247   7.050  0.9591  1.6810 -0.0940
 9596SOL     OW29621   6.843   0.972   6.761 -0.2656 -0.4301  0.0164
 9596SOL    HW129622   6.911   0.958   6.695 -2.1545  0.2406 -2.1914
 9596SOL    HW229623   6.817   1.064   6.750  0.4266  0.2307  2.8578
 9597SOL     OW29624   6.734   5.918   6.089  0.0568  0.4367 -0.5537
 9597SOL    HW129625   6.780   5.923   6.173  1.2493 -0.9395 -1.0612
 9597SOL    HW229626   6.788   5.971   6.029  0.0807  0.1503 -0.7884
 9598SOL     OW29627   7.190   0.456   1.417 -0.6111 -0.5279  0.6053
 9598SOL    HW129628   7.110   0.496   1.453 -2.0665 -2.0126 -0.7879
 9598SOL    HW229629   7.183   0.363   1.440  0.4216 -0.7879 -0.0439
 9599SOL     OW29630   6.181   0.158   3.061  0.8762 -0.0698  0.6874
 9599SOL    HW129631   6.170   0.206   2.979  1.9757 -0.5849  0.2090
 9599SOL    HW229632   6.240   0.214   3.112 -2.0330  1.7011  2.3976
 9600SOL     OW29633   7.852   0.974   0.149  0.0249  0.0754 -0.7496
 9600SOL    HW129634   7.875   1.066   0.140 -0.1311  0.1534 -0.3810
 9600SOL    HW229635   7.884   0.933   0.069  0.0214  0.4629 -0.9511
 9601SOL     OW29636   1.140   0.631   3.046 -0.1441 -0.2625 -0.2127
 9601SOL    HW129637   1.087   0.585   3.111  1.1535  0.4347  1.3798
 9601SOL    HW229638   1.153   0.718   3.082  1.5907 -0.2195 -0.8379
 9602SOL     OW29639   1.814   1.948   6.789 -0.2831  1.0134  0.3671
 9602SOL    HW129640   1.850   1.871   6.832  0.7814  0.6283 -1.1558
 9602SOL    HW229641   1.747   1.980   6.850  1.0788  0.4581  2.2494
 9603SOL     OW29642   6.517   2.348   6.541  0.1283  0.4862  0.2580
 9603SOL    HW129643   6.527   2.440   6.566 -0.2793  0.5314  0.2593
 9603SOL    HW229644   6.560   2.341   6.456  0.5535  0.5771  0.4603
 9604SOL     OW29645   2.465   0.778   4.545 -0.2198 -0.0952  0.3201
 9604SOL    HW129646   2.482   0.848   4.483  2.1409 -3.1590 -2.9323
 9604SOL    HW229647   2.371   0.759   4.536 -0.0134 -0.2082 -2.1890
 9605SOL     OW29648   1.166   5.691   7.900 -0.9019  0.1943  0.4590
 9605SOL    HW129649   1.199   5.608   7.934 -1.0419 -0.2637 -0.5072
 9605SOL    HW229650   1.208   5.758   7.954  1.1931 -0.3907 -0.3602
 9606SOL     OW29651   5.005   1.711   4.414 -0.2700 -0.7976  0.5122
 9606SOL    HW129652   5.029   1.627   4.452  3.6297  0.4149  1.2214
 9606SOL    HW229653   5.013   1.698   4.319  1.3352 -1.0324  0.6551
 9607SOL     OW29654   4.935   1.862   1.552 -0.3787  0.2856 -0.5390
 9607SOL    HW129655   4.858   1.918   1.563 -0.5470  0.0874 -0.7207
 9607SOL    HW229656   4.922   1.819   1.468  0.2911  0.8180 -0.9293
 9608SOL     OW29657   1.307   1.062   7.243 -0.3623 -0.5099  0.4041
 9608SOL    HW129658   1.353   1.003   7.303  0.8362  0.6000  0.5988
 9608SOL    HW229659   1.278   1.134   7.299  0.8120  0.5631 -0.3323
 9609SOL     OW29660   2.629   2.063   1.557  0.1341 -0.0558 -0.5626
 9609SOL    HW129661   2.687   2.110   1.496  0.0402 -0.5121 -1.0154
 9609SOL    HW229662   2.542   2.094   1.534  0.2422  1.4001  0.7950
 9610SOL     OW29663   4.777   4.362   1.216 -0.3998  0.1909  0.1676
 9610SOL    HW129664   4.829   4.351   1.137  1.0850 -1.5553  1.3052
 9610SOL    HW229665   4.688   4.340   1.189  0.2857 -1.6613 -0.7819
 9611SOL     OW29666   5.323   0.846   3.380  0.2779 -1.0367 -0.1918
 9611SOL    HW129667   5.263   0.817   3.311 -0.1992 -0.3510 -0.0835
 9611SOL    HW229668   5.330   0.941   3.367 -1.3470 -0.5672  1.8634
 9612SOL     OW29669   1.006   7.567   0.327  0.1530 -0.5414 -0.3796
 9612SOL    HW129670   0.949   7.491   0.332 -0.5535  0.0445  1.0897
 9612SOL    HW229671   1.001   7.607   0.414 -0.2753  1.7482 -1.3801
 9613SOL     OW29672   7.469   5.332   6.608 -0.1588 -0.5382  0.0374
 9613SOL    HW129673   7.375   5.334   6.621  0.0888  1.0637  2.1916
 9613SOL    HW229674   7.485   5.256   6.552 -2.6021 -1.4738  0.5238
 9614SOL     OW29675   4.673   4.172   6.345 -0.3890  0.4508 -0.0255
 9614SOL    HW129676   4.707   4.141   6.261  0.3224 -0.7452  0.6668
 9614SOL    HW229677   4.665   4.266   6.335 -0.3134  0.3258 -1.4365
 9615SOL     OW29678   2.223   6.441   0.120  0.2532 -0.8260  0.0996
 9615SOL    HW129679   2.249   6.393   0.199 -1.5678 -0.6150  0.8642
 9615SOL    HW229680   2.175   6.377   0.068 -1.1347 -0.1919  0.5632
 9616SOL     OW29681   5.499   5.164   1.760 -0.4122  0.1900  0.1239
 9616SOL    HW129682   5.562   5.228   1.727  0.9012 -1.1492 -0.0577
 9616SOL    HW229683   5.520   5.083   1.713 -0.2959 -1.0615  2.2090
 9617SOL     OW29684   7.307   0.494   0.356  0.2080 -0.7522  0.3694
 9617SOL    HW129685   7.232   0.438   0.376 -1.4504  0.4612 -1.9432
 9617SOL    HW229686   7.352   0.449   0.284  0.1424 -0.2112 -0.0161
 9618SOL     OW29687   2.630   4.815   4.263 -0.3619  0.2718  0.0055
 9618SOL    HW129688   2.607   4.736   4.311 -0.2524  1.1551  1.5675
 9618SOL    HW229689   2.682   4.866   4.325 -1.3009  2.0332 -0.6022
 9619SOL     OW29690   2.978   3.217   3.094 -0.3190 -0.2764 -0.0404
 9619SOL    HW129691   3.042   3.156   3.131 -0.2334  0.3598  0.8842
 9619SOL    HW229692   2.970   3.189   3.002  1.9107  0.1288 -0.4294
 9620SOL     OW29693   7.132   5.039   1.371  0.2676  0.2827 -0.3505
 9620SOL    HW129694   7.149   4.976   1.301 -1.5474 -1.7840  0.9572
 9620SOL    HW229695   7.198   5.021   1.437 -0.2609 -0.2742  0.0307
 9621SOL     OW29696   2.159   5.354   3.673 -0.2327 -0.2274 -0.1410
 9621SOL    HW129697   2.216   5.277   3.671 -0.5652 -0.4845  0.0483
 9621SOL    HW229698   2.177   5.400   3.591  0.3475 -0.2284 -0.0187
 9622SOL     OW29699   4.578   3.239   6.318 -0.3341 -0.0491  0.3025
 9622SOL    HW129700   4.524   3.228   6.396 -0.8856  0.4785 -0.0016
 9622SOL    HW229701   4.591   3.150   6.285 -2.1468 -0.0946 -0.3705
 9623SOL     OW29702   6.213   0.212   5.365  1.5093  0.1705 -0.5393
 9623SOL    HW129703   6.263   0.190   5.443 -0.0985 -0.8219  0.2562
 9623SOL    HW229704   6.161   0.289   5.391  0.5497 -0.5025 -0.4218
 9624SOL     OW29705   1.712   3.217   1.010  0.1181  0.0718  0.0910
 9624SOL    HW129706   1.710   3.154   1.082  1.3293  1.5307  1.4803
 9624SOL    HW229707   1.724   3.164   0.931 -1.7176 -1.6165  0.8521
 9625SOL     OW29708   1.462   0.893   4.478  0.0735 -0.3161 -0.0209
 9625SOL    HW129709   1.551   0.868   4.451  0.0610 -1.0346  0.5763
 9625SOL    HW229710   1.446   0.843   4.557 -0.6497  0.2632  0.2096
 9626SOL     OW29711   2.193   4.632   3.732  0.0263  0.3210 -0.0621
 9626SOL    HW129712   2.191   4.727   3.717 -0.3667  0.2154 -0.7563
 9626SOL    HW229713   2.214   4.622   3.825 -1.4914  1.1235  0.3935
 9627SOL     OW29714   6.108   2.177   3.995 -0.1207 -0.5383 -0.4072
 9627SOL    HW129715   6.031   2.122   4.007 -1.1281  0.8986  0.1120
 9627SOL    HW229716   6.173   2.120   3.953 -1.0259 -2.1316  0.2760
 9628SOL     OW29717   2.566   6.447   3.437  0.0704 -0.7484 -0.0605
 9628SOL    HW129718   2.477   6.438   3.472  0.2646 -1.1221  0.3508
 9628SOL    HW229719   2.589   6.360   3.405 -0.0844 -0.4160 -1.0892
 9629SOL     OW29720   3.237   3.752   2.931  0.2593  0.3458  0.3306
 9629SOL    HW129721   3.320   3.763   2.885  1.7594 -1.6031  2.3018
 9629SOL    HW229722   3.225   3.834   2.980  0.6058  0.9238 -0.5320
 9630SOL     OW29723   2.645   7.071   3.363  0.1920 -0.3885 -0.8211
 9630SOL    HW129724   2.717   7.086   3.302  0.7178 -0.7465 -0.2998
 9630SOL    HW229725   2.665   6.986   3.404 -0.0113 -0.0351  0.0327
 9631SOL     OW29726   7.678   0.242   6.277 -0.7206 -0.2492 -0.0028
 9631SOL    HW129727   7.647   0.195   6.200 -1.5372 -0.8997  0.7098
 9631SOL    HW229728   7.601   0.289   6.310 -0.0246  1.2960 -0.4653
 9632SOL     OW29729   7.796   2.478   3.472 -0.4203 -0.0097 -0.2246
 9632SOL    HW129730   7.873   2.509   3.519  0.3646  0.1192 -1.5539
 9632SOL    HW229731   7.770   2.399   3.520 -0.8695  1.1787  1.5993
 9633SOL     OW29732   6.893   1.978   4.211  0.4486  0.4684 -0.0578
 9633SOL    HW129733   6.868   2.014   4.296  0.9098 -0.8679  0.6727
 9633SOL    HW229734   6.967   1.920   4.230 -0.9435 -1.7177 -0.9744
 9634SOL     OW29735   7.834   0.731   6.957 -0.1019  0.1334 -0.1294
 9634SOL    HW129736   7.776   0.807   6.957 -0.9750 -0.5072  1.0944
 9634SOL    HW229737   7.888   0.741   7.035  0.7007  0.1682 -0.6804
 9635SOL     OW29738   1.393   7.369   5.778 -0.4951  0.0706 -0.3268
 9635SOL    HW129739   1.477   7.335   5.808 -0.6833  0.4243  0.6445
 9635SOL    HW229740   1.416   7.435   5.712  0.0066  0.3118  0.0768
 9636SOL     OW29741   7.407   7.555   4.962 -0.2828 -0.3800  0.3806
 9636SOL    HW129742   7.389   7.465   4.934 -2.3859 -0.1644  0.8355
 9636SOL    HW229743   7.339   7.573   5.026  1.2273  0.9345  1.6852
 9637SOL     OW29744   1.474   5.114   0.773  0.9537  0.3095 -0.3690
 9637SOL    HW129745   1.434   5.033   0.804 -0.6449  1.6582  1.3801
 9637SOL    HW229746   1.416   5.144   0.703  1.0112  0.4169 -0.3699
 9638SOL     OW29747   7.711   6.416   3.234 -0.1072 -0.0014 -0.3620
 9638SOL    HW129748   7.709   6.480   3.305 -1.2617  0.3524 -0.6899
 9638SOL    HW229749   7.720   6.331   3.277 -0.7743  0.2131  0.2160
 9639SOL     OW29750   2.096   6.862   1.295 -0.4330 -0.5938 -0.6824
 9639SOL    HW129751   2.172   6.824   1.252 -0.0097 -0.8348  0.2518
 9639SOL    HW229752   2.097   6.825   1.383 -1.8298 -0.8589 -0.7580
 9640SOL     OW29753   3.094   1.346   4.279  0.2238  0.3546 -0.1215
 9640SOL    HW129754   3.005   1.317   4.297 -0.1810  2.1688  1.0440
 9640SOL    HW229755   3.108   1.324   4.186 -0.3112 -2.6114  0.4014
 9641SOL     OW29756   4.555   4.889   0.217 -0.0658 -0.3403 -0.5604
 9641SOL    HW129757   4.584   4.836   0.143  0.5484  0.6411 -1.0359
 9641SOL    HW229758   4.614   4.964   0.218  0.7991 -0.9575  1.7305
 9642SOL     OW29759   1.447   1.410   3.172 -0.6736  0.2719 -0.0218
 9642SOL    HW129760   1.536   1.443   3.165  0.4696 -2.3198  1.2598
 9642SOL    HW229761   1.413   1.452   3.252 -1.3681  2.7110 -1.4936
 9643SOL     OW29762   2.119   5.721   5.837  0.5736  0.1441 -0.1537
 9643SOL    HW129763   2.178   5.659   5.878  3.2656  2.7775  0.3451
 9643SOL    HW229764   2.105   5.687   5.749  1.2941 -1.5333  0.3545
 9644SOL     OW29765   4.802   2.031   6.756 -0.5539  0.0306 -0.1568
 9644SOL    HW129766   4.856   2.101   6.793  0.4186 -0.0178 -1.4301
 9644SOL    HW229767   4.861   1.983   6.698 -1.2389 -1.7867  0.5944
 9645SOL     OW29768   0.624   1.549   0.144  0.7353  0.2004 -0.0460
 9645SOL    HW129769   0.642   1.641   0.162  2.7207 -0.0438 -0.4670
 9645SOL    HW229770   0.693   1.523   0.083  1.8585 -2.2249  2.0613
 9646SOL     OW29771   7.443   1.430   5.019 -0.2944  0.4250  0.0522
 9646SOL    HW129772   7.518   1.379   5.050 -0.1111  0.2716 -0.6353
 9646SOL    HW229773   7.381   1.365   4.989  0.3977  0.5982 -1.8934
 9647SOL     OW29774   5.459   1.357   6.519 -0.2501  0.1732 -0.1954
 9647SOL    HW129775   5.477   1.335   6.610  0.5931  0.0580 -0.3750
 9647SOL    HW229776   5.409   1.439   6.522  0.5612  0.6579  0.3480
 9648SOL     OW29777   6.376   7.478   4.143  0.1521 -0.2030  0.1220
 9648SOL    HW129778   6.392   7.384   4.152 -1.4613 -0.5060  0.1255
 9648SOL    HW229779   6.457   7.519   4.175  0.8566 -1.5777  0.1860
 9649SOL     OW29780   6.728   5.228   4.846  0.4549  0.4317  0.0145
 9649SOL    HW129781   6.691   5.251   4.761  1.1129  2.2438  0.1822
 9649SOL    HW229782   6.822   5.220   4.830  0.4811 -0.0749  0.4030
 9650SOL     OW29783   6.096   2.985   2.516  0.5527  0.7952  0.1731
 9650SOL    HW129784   6.025   3.049   2.513  0.2272  0.4093 -0.6450
 9650SOL    HW229785   6.172   3.030   2.481  1.7253  2.3601  4.1081
 9651SOL     OW29786   4.744   6.570   5.892 -0.2599  0.4777  0.2620
 9651SOL    HW129787   4.764   6.607   5.978 -0.1833  0.3930  0.2806
 9651SOL    HW229788   4.829   6.557   5.851 -0.2422 -0.3723  0.5433
 9652SOL     OW29789   4.776   0.791   6.209  0.1808  0.1519  0.2497
 9652SOL    HW129790   4.867   0.819   6.220 -0.2232  1.3905  0.5108
 9652SOL    HW229791   4.759   0.737   6.286  0.0575  1.6859  1.3415
 9653SOL     OW29792   5.324   7.828   7.319  0.0821  0.7397  0.5610
 9653SOL    HW129793   5.303   7.776   7.241 -0.6309  1.8373 -0.0036
 9653SOL    HW229794   5.340   7.916   7.285 -0.3749  1.2690  1.6716
 9654SOL     OW29795   6.233   7.215   7.593  0.8204  0.2370 -0.5167
 9654SOL    HW129796   6.241   7.294   7.539  0.3110  1.3850  1.0186
 9654SOL    HW229797   6.148   7.179   7.569 -0.3904  1.9297  0.9515
 9655SOL     OW29798   6.426   4.933   4.814 -0.0585 -0.7440  0.2405
 9655SOL    HW129799   6.383   4.943   4.899 -1.3995  1.4870 -0.6013
 9655SOL    HW229800   6.360   4.890   4.759  0.1827 -0.7109 -0.0773
 9656SOL     OW29801   4.179   5.028   4.836  0.1339  0.2800 -0.4112
 9656SOL    HW129802   4.204   4.971   4.909  0.6114 -0.7026 -1.3165
 9656SOL    HW229803   4.253   5.088   4.826  0.8629 -0.7187 -1.1935
 9657SOL     OW29804   0.740   1.763   1.774 -0.7846  0.0039 -0.4667
 9657SOL    HW129805   0.764   1.710   1.850 -2.9606  0.2035  0.4228
 9657SOL    HW229806   0.742   1.701   1.700 -0.4467 -0.6222  0.0581
 9658SOL     OW29807   0.629   0.464   4.720 -0.0899  0.1884  0.0323
 9658SOL    HW129808   0.694   0.400   4.749 -0.0722 -0.7136 -1.8026
 9658SOL    HW229809   0.671   0.508   4.646 -1.6396 -0.6926 -1.4672
 9659SOL     OW29810   3.527   4.807   7.635 -0.1438 -0.0878  0.3383
 9659SOL    HW129811   3.568   4.831   7.718  1.6755 -0.2560 -0.4694
 9659SOL    HW229812   3.452   4.754   7.660  0.5214 -0.3522  1.8716
 9660SOL     OW29813   5.327   1.036   0.956  0.4957 -0.7150 -0.4795
 9660SOL    HW129814   5.348   1.047   0.863  0.3140  0.0540 -0.4337
 9660SOL    HW229815   5.237   1.004   0.957 -0.3001  1.3657 -0.5293
 9661SOL     OW29816   2.284   7.358   0.679 -0.1180  0.3146 -0.2354
 9661SOL    HW129817   2.299   7.328   0.589  0.3476 -0.0111 -0.0547
 9661SOL    HW229818   2.251   7.447   0.670  0.6395  0.5525 -0.7002
 9662SOL     OW29819   5.385   3.384   3.548 -0.0220 -0.2025  0.4870
 9662SOL    HW129820   5.384   3.480   3.549  1.7148 -0.1555  0.3002
 9662SOL    HW229821   5.459   3.361   3.492 -0.5257 -1.6679  0.3779
 9663SOL     OW29822   2.256   7.748   0.744  1.0811  0.0791  0.2818
 9663SOL    HW129823   2.221   7.691   0.676  2.1603  0.1465 -0.3490
 9663SOL    HW229824   2.191   7.818   0.752  0.6665 -0.2327 -0.2736
 9664SOL     OW29825   3.136   2.222   4.695 -0.1620 -0.0842 -0.3803
 9664SOL    HW129826   3.182   2.156   4.644  1.3107 -0.2987  1.1671
 9664SOL    HW229827   3.119   2.293   4.632 -1.4776 -1.7204 -1.9871
 9665SOL     OW29828   2.151   3.671   4.319 -0.0474  0.1207 -0.0545
 9665SOL    HW129829   2.180   3.628   4.238  0.1349 -2.6946  1.3961
 9665SOL    HW229830   2.224   3.659   4.380 -1.1035  0.0755  1.2313
 9666SOL     OW29831   1.653   1.566   5.429 -0.5026 -0.4750 -0.2340
 9666SOL    HW129832   1.701   1.484   5.433 -0.6221 -0.6071 -1.2227
 9666SOL    HW229833   1.607   1.571   5.513  2.5559  0.5236  1.5348
 9667SOL     OW29834   4.104   2.457   2.941  0.1454 -0.2069 -0.3935
 9667SOL    HW129835   4.159   2.535   2.953  0.0936 -0.3852  1.1528
 9667SOL    HW229836   4.027   2.473   2.996 -0.3071 -0.9370 -0.8074
 9668SOL     OW29837   3.383   0.065   0.326 -0.0333  0.1057 -0.0562
 9668SOL    HW129838   3.427   0.123   0.263 -1.4090 -0.3384 -1.4889
 9668SOL    HW229839   3.338   0.124   0.386  0.6597  0.5267  0.0643
 9669SOL     OW29840   1.374   0.821   0.061  0.0440  0.4256  0.2223
 9669SOL    HW129841   1.406   0.744   0.108  0.9654  0.6472 -0.0107
 9669SOL    HW229842   1.446   0.843   0.002  0.4468  2.3886  1.3654
 9670SOL     OW29843   0.481   0.267   5.749  0.4516 -0.2200  0.3501
 9670SOL    HW129844   0.483   0.186   5.799 -0.7760  0.1729  1.0948
 9670SOL    HW229845   0.445   0.242   5.664 -1.1138 -0.2796  0.9996
 9671SOL     OW29846   7.676   3.268   4.848 -0.5996 -0.0228  0.2174
 9671SOL    HW129847   7.738   3.334   4.880 -0.7691  0.5660 -0.6495
 9671SOL    HW229848   7.597   3.283   4.900 -0.7046  0.5946 -0.1168
 9672SOL     OW29849   6.687   3.292   7.909  1.0260 -0.0979  0.0386
 9672SOL    HW129850   6.597   3.324   7.922  0.2422 -1.7085 -1.0005
 9672SOL    HW229851   6.743   3.364   7.937 -0.5997  1.9673 -1.6910
 9673SOL     OW29852   3.632   5.792   0.320  0.1044  0.2139 -0.1197
 9673SOL    HW129853   3.602   5.702   0.330  0.8504  0.0081  0.3593
 9673SOL    HW229854   3.727   5.785   0.314  0.2141  1.0041  0.4978
 9674SOL     OW29855   7.578   1.987   5.786  0.0775 -0.5884 -0.3119
 9674SOL    HW129856   7.526   1.977   5.706 -0.8901 -1.3143  0.3851
 9674SOL    HW229857   7.516   1.970   5.857  0.7061  0.9266  0.6396
 9675SOL     OW29858   0.758   4.671   7.023  0.5064 -0.3781  0.3979
 9675SOL    HW129859   0.691   4.627   7.075 -0.4870  0.4364 -0.1454
 9675SOL    HW229860   0.709   4.717   6.955  1.7195 -0.7650 -0.7819
 9676SOL     OW29861   0.288   3.275   2.596  0.3141 -0.5913  0.4933
 9676SOL    HW129862   0.230   3.313   2.530 -0.1430  1.2341  1.8622
 9676SOL    HW229863   0.231   3.255   2.670  1.0984 -0.7538  1.0669
 9677SOL     OW29864   6.519   7.511   4.476 -0.2426  0.3150 -0.3162
 9677SOL    HW129865   6.586   7.472   4.532  0.0339 -0.8124 -1.3731
 9677SOL    HW229866   6.489   7.438   4.421 -2.7986  0.6360  0.5400
 9678SOL     OW29867   6.445   4.037   3.281 -0.2119 -0.2476  0.5838
 9678SOL    HW129868   6.493   3.972   3.230 -0.3038  0.4725 -0.4623
 9678SOL    HW229869   6.480   4.121   3.251 -2.5921  0.3488 -0.7738
 9679SOL     OW29870   5.459   5.120   2.510 -0.2438 -0.3919  0.0286
 9679SOL    HW129871   5.441   5.060   2.438 -0.1453  1.0163 -1.2112
 9679SOL    HW229872   5.522   5.073   2.565  0.2468 -1.2086 -1.1869
 9680SOL     OW29873   3.100   3.534   1.453 -0.1201  0.2632  0.2637
 9680SOL    HW129874   3.171   3.515   1.392  0.4587 -0.1241  1.0453
 9680SOL    HW229875   3.021   3.504   1.408  0.3387 -0.3525 -0.1433
 9681SOL     OW29876   2.583   1.286   7.529  0.0887 -0.3786  0.0371
 9681SOL    HW129877   2.600   1.194   7.550  2.4634  0.0710  0.3257
 9681SOL    HW229878   2.553   1.325   7.611  1.4609 -0.3816  0.5504
 9682SOL     OW29879   5.509   6.346   7.203 -0.1941  0.3709  0.0462
 9682SOL    HW129880   5.485   6.266   7.155 -0.2214  0.3417  0.1077
 9682SOL    HW229881   5.528   6.315   7.292 -2.6486  0.7493  0.7615
 9683SOL     OW29882   4.656   3.932   0.522  0.0098 -0.4663 -0.3533
 9683SOL    HW129883   4.582   3.989   0.502  0.6035 -0.1174 -1.7287
 9683SOL    HW229884   4.688   3.904   0.436  1.4286 -0.6462  0.2061
 9684SOL     OW29885   6.447   6.244   6.880  0.1053  0.5630 -0.0413
 9684SOL    HW129886   6.434   6.252   6.785 -0.8209  0.7524  0.0903
 9684SOL    HW229887   6.517   6.179   6.889  0.0238  0.3479 -0.8510
 9685SOL     OW29888   0.885   7.880   5.365 -0.1506  0.0540 -0.5531
 9685SOL    HW129889   0.873   7.975   5.370  0.5949  0.1058  0.7861
 9685SOL    HW229890   0.937   7.866   5.286  1.7874  1.0324  0.4706
 9686SOL     OW29891   1.965   6.625   1.579  0.3141 -0.2521 -0.5311
 9686SOL    HW129892   1.914   6.621   1.660  1.2287  1.1604  0.1491
 9686SOL    HW229893   1.996   6.716   1.574  2.7395 -1.0147 -0.8988
 9687SOL     OW29894   5.800   0.881   7.003  0.2516  0.1081  0.2655
 9687SOL    HW129895   5.800   0.855   6.911  1.1204 -2.0958  0.8135
 9687SOL    HW229896   5.892   0.893   7.024 -0.0574  3.0197  0.2989
 9688SOL     OW29897   2.015   7.699   0.996  0.0634 -0.1048 -0.9000
 9688SOL    HW129898   2.012   7.719   1.090 -0.0108 -2.0801 -0.4314
 9688SOL    HW229899   1.962   7.767   0.955  0.2960  0.9420  0.4537
 9689SOL     OW29900   2.894   2.094   3.223  0.3595  0.3494 -0.4260
 9689SOL    HW129901   2.930   2.168   3.173 -0.7880  1.5543  0.4756
 9689SOL    HW229902   2.959   2.078   3.292 -0.3829  1.9776  0.7000
 9690SOL     OW29903   5.474   3.679   1.760 -0.5455  0.3742 -0.1059
 9690SOL    HW129904   5.462   3.755   1.816  0.6563  0.4203  0.1311
 9690SOL    HW229905   5.569   3.673   1.748 -0.7028 -0.2870 -1.2313
 9691SOL     OW29906   3.182   0.920   3.530  0.6783 -0.1470 -0.0725
 9691SOL    HW129907   3.136   0.838   3.545  1.0542 -0.4222 -0.3964
 9691SOL    HW229908   3.143   0.956   3.451 -0.3655  0.6276  0.7734
 9692SOL     OW29909   4.615   1.651   1.301 -0.1275 -0.6154 -0.6709
 9692SOL    HW129910   4.589   1.719   1.239  1.6991 -0.5505 -1.4232
 9692SOL    HW229911   4.586   1.685   1.387 -1.1017  0.1054 -1.2574
 9693SOL     OW29912   0.098   5.363   2.318 -0.1544  0.1332 -0.1772
 9693SOL    HW129913   0.127   5.432   2.259 -0.5227 -0.4811 -1.1008
 9693SOL    HW229914   0.144   5.285   2.288  0.4843  0.0157  1.0413
 9694SOL     OW29915   6.752   4.306   0.154 -0.9108  0.0193 -0.0478
 9694SOL    HW129916   6.736   4.238   0.220  0.4372  0.3642  0.6681
 9694SOL    HW229917   6.735   4.388   0.200  2.5444  0.4338  0.8106
 9695SOL     OW29918   1.588   6.984   4.714 -0.1762  0.0738 -0.0608
 9695SOL    HW129919   1.497   7.011   4.718  0.1924  1.7518 -1.4986
 9695SOL    HW229920   1.636   7.065   4.698  1.3018 -1.0706 -1.8673
 9696SOL     OW29921   6.071   0.302   2.669 -0.2480  0.3316 -0.2460
 9696SOL    HW129922   6.028   0.324   2.586  0.5746  0.2168 -0.7118
 9696SOL    HW229923   6.010   0.333   2.736 -0.1912  1.9134 -0.8907
 9697SOL     OW29924   4.785   1.202   0.573  0.0856  0.2723 -0.1289
 9697SOL    HW129925   4.851   1.160   0.629 -0.3106 -0.3567 -0.1287
 9697SOL    HW229926   4.775   1.143   0.499  2.0295  2.0282 -1.8947
 9698SOL     OW29927   2.050   0.944   7.399  0.3085  0.0114  0.0154
 9698SOL    HW129928   2.045   0.856   7.438 -0.5291  0.5533  1.2097
 9698SOL    HW229929   2.071   1.001   7.473  2.0494  0.6972 -0.9553
 9699SOL     OW29930   0.800   3.313   1.885  0.1323 -0.3017  0.2400
 9699SOL    HW129931   0.868   3.255   1.920  0.2629 -1.1438 -1.3411
 9699SOL    HW229932   0.737   3.255   1.844  0.3024  0.6546 -1.4685
 9700SOL     OW29933   3.523   7.046   6.764 -0.0515  0.0793  0.1285
 9700SOL    HW129934   3.589   6.980   6.743  1.1826  0.8991  1.2114
 9700SOL    HW229935   3.555   7.126   6.723 -1.0203  0.2326 -0.3532
 9701SOL     OW29936   4.699   4.945   0.747 -1.0887 -0.4267 -0.2435
 9701SOL    HW129937   4.733   4.904   0.667  0.3378 -0.8781  0.5443
 9701SOL    HW229938   4.771   4.937   0.810 -2.2526 -0.2750  1.1577
 9702SOL     OW29939   3.282   5.921   0.480  0.3692 -0.0452 -0.1185
 9702SOL    HW129940   3.326   5.936   0.396 -1.6962  1.8230 -0.9656
 9702SOL    HW229941   3.238   5.836   0.469  1.4518 -0.6111 -0.2610
 9703SOL     OW29942   1.646   6.614   0.414 -0.1156 -0.0059  0.3272
 9703SOL    HW129943   1.709   6.628   0.344 -1.8028  2.0865 -0.8741
 9703SOL    HW229944   1.665   6.684   0.477 -1.5935  1.0445 -0.3572
 9704SOL     OW29945   5.236   5.181   3.039  0.1433 -0.2780  0.2374
 9704SOL    HW129946   5.328   5.164   3.017  0.4396 -0.6643  1.6562
 9704SOL    HW229947   5.197   5.214   2.958  1.7915  0.9583 -0.0969
 9705SOL     OW29948   2.530   3.305   6.049  0.0709  0.0434 -0.8949
 9705SOL    HW129949   2.560   3.362   6.119  0.4796 -1.1395 -0.0773
 9705SOL    HW229950   2.600   3.240   6.038 -0.6207 -0.6433 -1.3897
 9706SOL     OW29951   5.135   1.589   7.332 -0.8312 -0.1998  0.0555
 9706SOL    HW129952   5.216   1.641   7.328 -1.6090  0.9869 -1.7307
 9706SOL    HW229953   5.165   1.499   7.323  0.3757  0.1356  0.4701
 9707SOL     OW29954   2.512   1.409   2.063  0.3009  0.0013  0.4601
 9707SOL    HW129955   2.571   1.353   2.114 -0.0490  0.1681  1.0649
 9707SOL    HW229956   2.570   1.467   2.014  0.7016 -1.4581 -0.8603
 9708SOL     OW29957   3.663   6.255   1.069  0.1132  0.1540  0.0154
 9708SOL    HW129958   3.679   6.176   1.017 -0.1447 -0.3551  0.6939
 9708SOL    HW229959   3.677   6.227   1.160  3.3321  1.6780  0.1425
 9709SOL     OW29960   0.691   0.088   7.469  0.0666  0.4217 -0.0204
 9709SOL    HW129961   0.762   0.139   7.430  0.4930 -0.3351 -0.2653
 9709SOL    HW229962   0.695   0.109   7.563  1.3128 -0.4044  0.1426
 9710SOL     OW29963   7.691   4.414   5.717  0.4948 -0.5998 -0.5790
 9710SOL    HW129964   7.625   4.371   5.771  0.2355  0.2449 -0.2094
 9710SOL    HW229965   7.661   4.400   5.627  0.0409 -0.5989 -0.4307
 9711SOL     OW29966   2.790   0.202   6.963 -0.4116  0.6216 -0.2249
 9711SOL    HW129967   2.755   0.286   6.932 -0.5815  0.7429  0.2794
 9711SOL    HW229968   2.862   0.182   6.904 -1.2298  0.4487 -1.1961
 9712SOL     OW29969   1.135   2.809   7.469  0.5367 -0.2438  0.7898
 9712SOL    HW129970   1.051   2.791   7.428  1.2039 -0.6076 -0.4681
 9712SOL    HW229971   1.193   2.833   7.397  2.1455 -2.3041  1.2837
 9713SOL     OW29972   7.022   3.827   3.094  0.0971  0.0375 -0.1784
 9713SOL    HW129973   7.084   3.860   3.159  0.6682 -1.7151  0.2222
 9713SOL    HW229974   6.951   3.891   3.092 -0.0289  0.0481  2.3284
 9714SOL     OW29975   3.835   5.981   2.994  0.0522  0.6241 -0.1466
 9714SOL    HW129976   3.823   5.972   3.088  2.4931 -0.5043  0.1146
 9714SOL    HW229977   3.858   5.893   2.963  2.6464  1.5715 -1.1946
 9715SOL     OW29978   7.481   0.546   3.606  0.7624 -0.6854  0.8282
 9715SOL    HW129979   7.556   0.540   3.664  1.2510 -2.2135  0.1053
 9715SOL    HW229980   7.481   0.463   3.557 -0.2926  0.0479 -0.5207
 9716SOL     OW29981   1.209   3.149   0.439  0.1836 -0.9293  0.0763
 9716SOL    HW129982   1.215   3.153   0.343 -1.9997  1.0323 -0.0842
 9716SOL    HW229983   1.167   3.066   0.458  0.8650 -1.4455 -0.6400
 9717SOL     OW29984   0.761   1.603   1.091  0.3461 -0.0121  0.8926
 9717SOL    HW129985   0.673   1.606   1.129 -2.1960 -0.0052 -4.1495
 9717SOL    HW229986   0.781   1.694   1.071  0.5421 -0.2031  0.1952
 9718SOL     OW29987   1.807   1.075   1.877  0.5238  0.4882  0.3991
 9718SOL    HW129988   1.772   1.098   1.963  0.7219 -1.1789  0.9554
 9718SOL    HW229989   1.875   1.010   1.895  1.3511  0.9384 -0.9459
 9719SOL     OW29990   7.618   5.791   5.248  0.2748 -0.1444  0.3577
 9719SOL    HW129991   7.622   5.815   5.155  0.3430 -0.3635  0.3034
 9719SOL    HW229992   7.635   5.697   5.249  0.2048 -0.1551  0.5865
 9720SOL     OW29993   7.148   5.818   5.939  0.2607 -0.2605 -0.6214
 9720SOL    HW129994   7.165   5.755   6.009 -0.8631  0.7251  0.5984
 9720SOL    HW229995   7.235   5.848   5.912  0.7232  0.6635  1.6554
 9721SOL     OW29996   0.020   7.302   1.261 -0.4689  0.7290 -0.9236
 9721SOL    HW129997   0.014   7.213   1.227  0.9313  0.9718 -1.8701
 9721SOL    HW229998  -0.038   7.353   1.205  0.2626  0.7559 -1.6700
 9722SOL     OW29999   0.742   3.654   0.416 -0.1038 -0.1107 -0.5198
 9722SOL    HW130000   0.720   3.584   0.477 -0.2766  1.1839  0.9822
 9722SOL    HW230001   0.660   3.702   0.403  0.4957  1.2712  0.4899
 9723SOL     OW30002   7.506   0.733   3.387  0.1808 -0.4720 -0.7405
 9723SOL    HW130003   7.456   0.658   3.420 -0.4814  0.2465 -0.0628
 9723SOL    HW230004   7.528   0.782   3.466  1.0643 -0.2253 -1.1370
 9724SOL     OW30005   5.739   3.036   4.005  0.0913 -0.1802 -0.0901
 9724SOL    HW130006   5.664   2.991   3.966 -0.0480  0.9246 -1.1421
 9724SOL    HW230007   5.729   3.127   3.979  2.1633 -0.1112 -0.8555
 9725SOL     OW30008   4.784   7.357   4.462 -0.1240  0.3015  0.4670
 9725SOL    HW130009   4.794   7.263   4.449 -0.7495  0.5112 -2.2778
 9725SOL    HW230010   4.696   7.368   4.498 -0.5604 -0.1309 -0.4337
 9726SOL     OW30011   3.677   1.505   4.429 -0.3442 -0.5506 -0.2813
 9726SOL    HW130012   3.745   1.549   4.379 -1.5873  1.8234 -0.0241
 9726SOL    HW230013   3.697   1.411   4.420  1.4702 -0.0506 -2.2566
 9727SOL     OW30014   0.163   0.968   0.319 -0.6738  0.3826  0.0878
 9727SOL    HW130015   0.092   0.931   0.267 -0.1005 -0.1442 -0.3401
 9727SOL    HW230016   0.131   0.965   0.409 -0.0035 -2.8559  0.3389
 9728SOL     OW30017   3.227   1.379   2.990 -0.0797  0.1848 -0.0607
 9728SOL    HW130018   3.140   1.368   2.950 -0.1383  3.6548 -1.1917
 9728SOL    HW230019   3.288   1.357   2.920  0.0427 -1.9510  0.6431
 9729SOL     OW30020   1.682   7.215   5.626 -0.8081 -0.1660  0.5342
 9729SOL    HW130021   1.718   7.138   5.583 -0.3210  1.2216 -1.6843
 9729SOL    HW230022   1.608   7.240   5.572 -1.1724  0.7384  1.4214
 9730SOL     OW30023   3.547   5.655   6.068  0.3680  0.4057 -0.2134
 9730SOL    HW130024   3.540   5.561   6.085 -0.6011  0.8039  2.0444
 9730SOL    HW230025   3.638   5.668   6.040  0.4522 -1.2094 -0.7834
 9731SOL     OW30026   5.740   3.702   5.660  0.1641 -0.0523  0.2748
 9731SOL    HW130027   5.741   3.617   5.616 -1.1393  0.0680 -0.0092
 9731SOL    HW230028   5.661   3.745   5.628 -0.1999  0.5072  1.8546
 9732SOL     OW30029   5.989   2.688   7.100  0.3688 -0.1947 -0.2402
 9732SOL    HW130030   6.027   2.735   7.174 -1.1912  0.6859  0.0492
 9732SOL    HW230031   5.942   2.615   7.140  1.0454 -0.7953 -0.5255
 9733SOL     OW30032   2.931   7.333   4.656  0.0388 -0.1328 -0.4987
 9733SOL    HW130033   2.871   7.345   4.729 -0.0621  0.9238 -0.7495
 9733SOL    HW230034   2.881   7.283   4.592 -0.0524 -0.5802 -0.0947
 9734SOL     OW30035   4.512   1.394   1.405  0.1957 -0.5064 -0.2399
 9734SOL    HW130036   4.594   1.343   1.401  1.5158  1.4974 -0.1889
 9734SOL    HW230037   4.531   1.473   1.355 -0.8696  1.1349  1.8050
 9735SOL     OW30038   6.549   4.094   0.241  0.2221  0.5051  0.3210
 9735SOL    HW130039   6.477   4.118   0.183 -0.8244 -2.3540  0.2929
 9735SOL    HW230040   6.523   4.126   0.327  0.7047  2.7170 -0.2917
 9736SOL     OW30041   0.532   6.890   1.336 -0.0466 -0.3895 -0.4722
 9736SOL    HW130042   0.624   6.911   1.323 -0.3298  0.5157 -1.1029
 9736SOL    HW230043   0.515   6.819   1.274 -0.1372  0.4865 -1.4851
 9737SOL     OW30044   7.776   0.033   2.361 -0.4065 -0.5765 -0.0364
 9737SOL    HW130045   7.728  -0.049   2.365  0.5888 -1.3506 -2.1568
 9737SOL    HW230046   7.845   0.024   2.427  0.7246 -2.2078 -1.3818
 9738SOL     OW30047   1.534   3.001   6.496  0.2872  0.2256 -0.5386
 9738SOL    HW130048   1.539   2.924   6.439  1.6193 -0.6544  0.6759
 9738SOL    HW230049   1.506   2.966   6.581  0.7801  1.0803 -0.0032
 9739SOL     OW30050   4.399   0.567   7.088  0.3617  0.7886  0.8088
 9739SOL    HW130051   4.348   0.550   7.009 -1.7399 -1.3244  2.4973
 9739SOL    HW230052   4.355   0.641   7.130  1.1596  1.5643  0.3203
 9740SOL     OW30053   7.652   7.245   4.319 -0.2442  0.0429 -0.0192
 9740SOL    HW130054   7.722   7.180   4.314  1.7733  2.0395  0.4383
 9740SOL    HW230055   7.642   7.261   4.413 -0.7900  0.2813 -0.1169
 9741SOL     OW30056   5.286   1.242   3.033  0.2784  0.5972  0.3578
 9741SOL    HW130057   5.336   1.261   2.954 -1.2298  2.6639 -0.1703
 9741SOL    HW230058   5.316   1.155   3.060  3.2020  1.2025 -0.6026
 9742SOL     OW30059   7.671   2.163   0.641 -0.5151  0.3717  0.2710
 9742SOL    HW130060   7.766   2.155   0.633 -0.1611  0.4764  3.0580
 9742SOL    HW230061   7.645   2.220   0.569  1.5755  0.5125 -0.4373
 9743SOL     OW30062   4.681   3.580   6.671  0.4217  0.1112 -0.3283
 9743SOL    HW130063   4.607   3.636   6.694  0.0407 -0.5309  0.0373
 9743SOL    HW230064   4.695   3.525   6.749 -0.7223 -1.9442 -1.4813
 9744SOL     OW30065   3.403   5.667   1.055  0.0640  0.3934 -0.0010
 9744SOL    HW130066   3.444   5.650   0.970  0.4402 -2.5236  0.6562
 9744SOL    HW230067   3.477   5.682   1.114  0.4886 -4.5050  1.1083
 9745SOL     OW30068   2.876   0.941   4.783 -0.3393 -0.0387  0.0048
 9745SOL    HW130069   2.802   0.999   4.801 -0.7883  0.4901 -3.0474
 9745SOL    HW230070   2.946   0.999   4.753  0.3374 -0.7963  0.0860
 9746SOL     OW30071   2.945   5.549   5.175 -0.3795 -0.2808  0.0367
 9746SOL    HW130072   2.973   5.471   5.127 -2.6252 -0.5020 -1.0149
 9746SOL    HW230073   2.902   5.603   5.109 -1.3478  0.5514  1.3150
 9747SOL     OW30074   0.922   4.268   1.718 -0.1109  0.2085  0.2763
 9747SOL    HW130075   0.900   4.303   1.804  0.6550  0.0727  0.5340
 9747SOL    HW230076   0.874   4.324   1.656  0.0336  0.8687  0.7505
 9748SOL     OW30077   5.356   5.459   6.034 -0.6718  0.0512  0.4451
 9748SOL    HW130078   5.378   5.377   6.078 -1.2255  0.6141  1.8313
 9748SOL    HW230079   5.386   5.527   6.094 -0.9457  0.8675 -0.3202
 9749SOL     OW30080   2.361   4.223   4.370 -0.2843  0.5829 -0.1192
 9749SOL    HW130081   2.440   4.170   4.360 -0.9588 -0.1036 -2.7063
 9749SOL    HW230082   2.297   4.162   4.407  0.0138  0.7416  0.6636
 9750SOL     OW30083   6.586   4.215   2.958  0.4383  0.4456 -0.1308
 9750SOL    HW130084   6.549   4.266   3.030  1.6539 -0.4197  1.1642
 9750SOL    HW230085   6.515   4.157   2.930  0.4295 -0.4418  1.5856
 9751SOL     OW30086   0.310   7.336   1.012 -0.1762 -0.1461  0.7629
 9751SOL    HW130087   0.266   7.393   0.950  0.8218  0.5234  0.6449
 9751SOL    HW230088   0.260   7.254   1.010 -0.3870 -0.0015 -0.6231
 9752SOL     OW30089   5.096   4.165   5.271 -0.2308  0.4029 -0.8341
 9752SOL    HW130090   5.097   4.232   5.203  1.4811 -0.1934 -1.4409
 9752SOL    HW230091   5.005   4.136   5.275 -0.3562  0.3721 -2.9371
 9753SOL     OW30092   1.244   7.389   1.749 -0.7405 -0.0184  0.0488
 9753SOL    HW130093   1.271   7.481   1.744 -0.7371 -0.0476 -0.4500
 9753SOL    HW230094   1.160   7.386   1.703 -0.0992 -0.5190 -1.1265
 9754SOL     OW30095   2.012   2.787   0.035  0.0473  0.2898 -0.5502
 9754SOL    HW130096   1.987   2.706   0.079  0.3570  0.4557 -0.0637
 9754SOL    HW230097   1.978   2.856   0.092  0.2013  0.5029 -0.7172
 9755SOL     OW30098   3.175   3.000   0.144  0.3292 -0.2577  0.3937
 9755SOL    HW130099   3.119   2.925   0.122 -1.0354 -1.0260  5.2763
 9755SOL    HW230100   3.115   3.072   0.161  1.4777  1.3269 -1.8169
 9756SOL     OW30101   5.924   6.402   4.824 -0.0629  0.6726  0.8267
 9756SOL    HW130102   5.844   6.446   4.853 -0.1415  0.7406  0.5081
 9756SOL    HW230103   5.894   6.339   4.759  0.2078  1.0960  0.2872
 9757SOL     OW30104   4.324   0.107   3.672  1.0155  0.6204 -0.4912
 9757SOL    HW130105   4.359   0.114   3.761 -0.8940  2.4697  0.1844
 9757SOL    HW230106   4.289   0.193   3.653  0.0565 -0.1533 -2.5027
 9758SOL     OW30107   0.655   5.146   3.208  0.6629  0.6025 -0.3562
 9758SOL    HW130108   0.652   5.198   3.128 -1.6266 -1.6210 -1.9016
 9758SOL    HW230109   0.748   5.143   3.231  1.4390  1.2882 -2.9788
 9759SOL     OW30110   6.443   2.100   5.290 -0.0141 -0.2343  0.0667
 9759SOL    HW130111   6.394   2.180   5.309  1.3701  0.5388  0.5158
 9759SOL    HW230112   6.526   2.131   5.254 -0.3806 -1.5366 -2.1250
 9760SOL     OW30113   3.213   6.046   6.047 -0.2371 -0.3308  0.2327
 9760SOL    HW130114   3.300   6.061   6.085 -0.1000  0.6481 -0.4096
 9760SOL    HW230115   3.184   5.963   6.083  1.5902 -1.4186 -0.6493
 9761SOL     OW30116   4.519   1.477   0.357 -0.2602  0.0835 -0.0687
 9761SOL    HW130117   4.567   1.443   0.281  0.4352 -0.3655  0.5633
 9761SOL    HW230118   4.500   1.568   0.334  1.8279  0.6040  0.0969
 9762SOL     OW30119   0.716   4.823   3.435 -0.0975  0.3384  0.1955
 9762SOL    HW130120   0.664   4.760   3.385 -0.8095 -0.6754  2.0977
 9762SOL    HW230121   0.736   4.893   3.373 -3.1272  0.4494 -0.8370
 9763SOL     OW30122   0.153   7.796   1.637 -0.0602 -0.6819 -0.1781
 9763SOL    HW130123   0.246   7.812   1.621  0.0968 -1.6340 -0.2264
 9763SOL    HW230124   0.131   7.857   1.707 -0.0976  1.5676 -2.0267
 9764SOL     OW30125   7.304   6.243   2.491 -0.6895  0.1845  0.2320
 9764SOL    HW130126   7.312   6.148   2.499 -1.5612 -0.1061 -1.7270
 9764SOL    HW230127   7.226   6.256   2.437 -0.5180  2.0314  0.3577
 9765SOL     OW30128   7.890   7.323   3.769  0.1165 -0.2765 -0.0535
 9765SOL    HW130129   7.839   7.291   3.694 -1.8980  1.1425  0.6393
 9765SOL    HW230130   7.966   7.364   3.730 -0.6270 -0.0412 -1.3165
 9766SOL     OW30131   2.715   7.146   7.557 -0.8357 -0.5875  0.5561
 9766SOL    HW130132   2.784   7.172   7.618 -0.8654  0.6893  0.0702
 9766SOL    HW230133   2.633   7.169   7.601 -1.0380 -2.5263  1.3357
 9767SOL     OW30134   2.061   7.418   1.368 -0.7955 -0.1959  0.1465
 9767SOL    HW130135   1.994   7.476   1.404 -0.9104  0.0447 -0.4436
 9767SOL    HW230136   2.122   7.476   1.323  0.3410 -0.3183  1.4630
 9768SOL     OW30137   1.175   2.711   6.906 -0.7100 -0.6264  0.3458
 9768SOL    HW130138   1.137   2.799   6.900 -1.1838 -0.8312  0.3036
 9768SOL    HW230139   1.196   2.687   6.816  1.9017  0.4976  0.5640
 9769SOL     OW30140   6.136   0.441   5.458 -0.3614 -0.2332  0.1018
 9769SOL    HW130141   6.184   0.455   5.377 -1.5232 -1.3906 -0.8443
 9769SOL    HW230142   6.073   0.512   5.461  0.0839  0.1537  0.3053
 9770SOL     OW30143   4.045   3.707   3.425  0.3875 -0.5157  0.3392
 9770SOL    HW130144   3.955   3.681   3.407  1.0098 -0.9803 -2.7117
 9770SOL    HW230145   4.037   3.794   3.463 -1.3639  0.2268 -1.5172
 9771SOL     OW30146   1.966   6.077   6.842 -0.0564  0.2708  0.2023
 9771SOL    HW130147   2.038   6.106   6.899  0.4000 -1.6926  0.6797
 9771SOL    HW230148   1.984   6.120   6.758  1.8347 -0.3496  0.2396
 9772SOL     OW30149   3.582   6.563   4.175 -0.2435 -0.4281  0.0294
 9772SOL    HW130150   3.615   6.485   4.220  0.6426 -0.8769 -1.3407
 9772SOL    HW230151   3.587   6.633   4.240 -1.4933 -1.5845  1.4349
 9773SOL     OW30152   1.728   6.179   4.870  0.4953 -0.0723 -0.4919
 9773SOL    HW130153   1.669   6.132   4.810  0.2526  0.4809 -0.6960
 9773SOL    HW230154   1.747   6.261   4.824 -0.7468  0.9615  0.7463
 9774SOL     OW30155   2.488   7.023   6.311 -0.3055 -0.7034 -0.3950
 9774SOL    HW130156   2.427   6.963   6.354 -2.9399  2.8468  1.4008
 9774SOL    HW230157   2.443   7.051   6.232  1.2390 -1.5852 -1.6396
 9775SOL     OW30158   4.001   1.720   0.352  0.6337  0.1963 -0.3428
 9775SOL    HW130159   4.032   1.674   0.430 -0.4122  1.4264  0.8582
 9775SOL    HW230160   3.925   1.668   0.323 -0.4433  0.9949  0.9100
 9776SOL     OW30161   5.186   2.443   7.131 -0.2147 -0.0483 -0.0687
 9776SOL    HW130162   5.254   2.376   7.121 -1.1107 -1.2237  1.2696
 9776SOL    HW230163   5.114   2.397   7.175 -2.1270  0.9942 -1.9239
 9777SOL     OW30164   4.686   6.591   1.281 -0.9362 -0.1602  0.0518
 9777SOL    HW130165   4.699   6.507   1.237  0.4312  0.6232 -1.1135
 9777SOL    HW230166   4.627   6.640   1.224 -1.1785 -0.0577  0.3825
 9778SOL     OW30167   4.466   0.817   0.272  0.3076  0.6570  0.0090
 9778SOL    HW130168   4.383   0.861   0.255 -0.0722 -0.0189  0.0753
 9778SOL    HW230169   4.485   0.769   0.192  0.8673  1.1753 -0.1677
 9779SOL     OW30170   4.859   0.634   1.509  0.0956  0.2841 -0.1573
 9779SOL    HW130171   4.943   0.668   1.538  0.9508 -0.7343 -1.2794
 9779SOL    HW230172   4.831   0.694   1.441  0.8905 -0.3875 -1.1196
 9780SOL     OW30173   7.266   1.051   6.986 -0.1290  0.0158 -0.6394
 9780SOL    HW130174   7.253   0.988   6.915 -0.1385  1.3052 -1.8258
 9780SOL    HW230175   7.244   1.003   7.066  0.3733 -1.6238 -1.4505
 9781SOL     OW30176   7.694   2.233   6.224 -0.3039 -0.0058  0.2620
 9781SOL    HW130177   7.683   2.204   6.314  1.1676  0.9213  0.7579
 9781SOL    HW230178   7.758   2.173   6.186  0.1260  0.4598  0.2486
 9782SOL     OW30179   7.362   7.858   0.301  0.2830  0.3162  0.5459
 9782SOL    HW130180   7.293   7.899   0.249  1.0259  0.1792 -0.5811
 9782SOL    HW230181   7.320   7.781   0.339 -0.4687  0.8062  0.7270
 9783SOL     OW30182   7.857   3.530   2.252  0.5339 -0.3306 -0.6529
 9783SOL    HW130183   7.885   3.618   2.276 -0.6974 -0.0019 -0.3821
 9783SOL    HW230184   7.929   3.473   2.282  0.6369  0.4210  0.5782
 9784SOL     OW30185   3.131   1.116   0.320  0.4082  0.3103 -0.3259
 9784SOL    HW130186   3.225   1.118   0.301  0.0468  3.2852 -2.4189
 9784SOL    HW230187   3.122   1.154   0.407  1.2578 -2.8289  1.2645
 9785SOL     OW30188   5.215   0.151   5.237  0.8661 -0.3944  0.0151
 9785SOL    HW130189   5.253   0.180   5.154  2.9323 -1.7373  0.4061
 9785SOL    HW230190   5.147   0.089   5.212  0.5205  0.2545 -0.6890
 9786SOL     OW30191   4.786   7.515   0.028  0.2324 -0.0545 -0.1902
 9786SOL    HW130192   4.820   7.439   0.076  0.4759  0.3523  0.3032
 9786SOL    HW230193   4.851   7.584   0.045  0.0547  0.2402 -0.6951
 9787SOL     OW30194   6.161   4.015   7.647  0.9082 -0.1987  0.1861
 9787SOL    HW130195   6.137   3.947   7.710 -1.4005  0.6270  0.3007
 9787SOL    HW230196   6.126   3.984   7.564  0.0241  0.6880  0.1994
 9788SOL     OW30197   2.991   0.413   6.338  1.2964 -1.3203  0.0445
 9788SOL    HW130198   2.972   0.492   6.390  2.8215 -0.9914  0.1691
 9788SOL    HW230199   3.036   0.446   6.260 -0.1028 -1.8965 -1.0373
 9789SOL     OW30200   5.853   1.924   0.076  0.1697 -0.1384 -0.0782
 9789SOL    HW130201   5.786   1.992   0.069 -0.5026 -0.8494 -0.6760
 9789SOL    HW230202   5.908   1.937  -0.001  0.2165 -0.0966 -0.0383
 9790SOL     OW30203   7.733   1.194   6.650 -1.1146 -0.3906  1.1125
 9790SOL    HW130204   7.806   1.225   6.702 -0.6529  2.4044 -0.9870
 9790SOL    HW230205   7.673   1.268   6.645 -0.7561 -0.1188 -2.8204
 9791SOL     OW30206   1.684   5.491   3.017  0.6228 -0.4850  0.3578
 9791SOL    HW130207   1.649   5.444   3.093 -1.6973 -1.2992 -1.0984
 9791SOL    HW230208   1.681   5.426   2.947  2.3958  0.3449 -0.5294
 9792SOL     OW30209   5.218   1.112   0.613 -0.1126  0.3379  0.2114
 9792SOL    HW130210   5.302   1.101   0.569 -0.2329  0.4274 -0.0363
 9792SOL    HW230211   5.160   1.151   0.548 -0.1029  1.1053  0.6442
 9793SOL     OW30212   7.191   4.809   3.457 -0.4170 -0.0688  0.7808
 9793SOL    HW130213   7.107   4.828   3.416  0.2127  1.4104  0.1073
 9793SOL    HW230214   7.213   4.889   3.505  0.0973 -0.8366  1.8559
 9794SOL     OW30215   3.405   2.968   6.788 -0.1149 -0.7928 -0.3770
 9794SOL    HW130216   3.492   2.978   6.749  0.5528 -1.8845  0.7456
 9794SOL    HW230217   3.421   2.968   6.882 -1.1486 -2.3433 -0.1614
 9795SOL     OW30218   6.375   6.316   0.626  0.4091 -0.2826 -0.2845
 9795SOL    HW130219   6.333   6.400   0.610 -0.4088 -0.7017 -0.4087
 9795SOL    HW230220   6.330   6.255   0.567  2.2301 -0.4769 -1.5352
 9796SOL     OW30221   4.782   0.875   3.171  0.2322 -0.0963 -0.0017
 9796SOL    HW130222   4.744   0.809   3.112 -0.4222  1.9051 -1.9541
 9796SOL    HW230223   4.755   0.848   3.258 -0.7235 -1.9396 -0.8138
 9797SOL     OW30224   1.538   3.378   4.593 -0.2040 -0.1218 -0.0212
 9797SOL    HW130225   1.629   3.358   4.615  0.6587  1.9930 -1.4657
 9797SOL    HW230226   1.533   3.369   4.498 -1.0174  1.5937 -0.1678
 9798SOL     OW30227   0.098   3.734   2.997  0.3282 -0.4177 -0.4014
 9798SOL    HW130228   0.028   3.759   2.935 -0.6094  0.8080  1.0826
 9798SOL    HW230229   0.055   3.731   3.082  2.3395  1.8615  0.8187
 9799SOL     OW30230   4.385   1.814   4.117  1.0825  0.2303  0.0064
 9799SOL    HW130231   4.401   1.848   4.205 -1.7435  1.0767  0.2760
 9799SOL    HW230232   4.402   1.720   4.124 -1.1874 -0.1148  2.0973
 9800SOL     OW30233   5.301   6.173   1.072  0.0140  0.0368 -0.4342
 9800SOL    HW130234   5.376   6.144   1.124 -0.6011  1.4570  1.3936
 9800SOL    HW230235   5.244   6.097   1.067  0.9781 -0.6822 -0.7196
 9801SOL     OW30236   1.943   1.844   5.184 -0.4703  0.1731  0.1076
 9801SOL    HW130237   1.953   1.938   5.168  0.2987 -0.1511 -1.3889
 9801SOL    HW230238   1.983   1.830   5.270  0.4941  1.0181 -0.1950
 9802SOL     OW30239   5.410   7.249   2.815  0.1970  0.0530 -0.0186
 9802SOL    HW130240   5.481   7.186   2.833 -0.6874 -1.1138 -0.5085
 9802SOL    HW230241   5.416   7.312   2.887  0.1617 -1.4499  1.3584
 9803SOL     OW30242   3.552   4.025   7.510  0.5563 -0.5156  0.6120
 9803SOL    HW130243   3.626   4.075   7.474 -1.1624  0.3796 -1.9518
 9803SOL    HW230244   3.531   3.961   7.442 -1.3010 -0.4400  1.0584
 9804SOL     OW30245   6.753   2.676   4.939  0.5580 -0.1168  0.3633
 9804SOL    HW130246   6.690   2.700   4.871  1.4172  0.7330 -0.1694
 9804SOL    HW230247   6.702   2.628   5.004 -0.7686  1.0737  0.2541
 9805SOL     OW30248   7.809   6.296   1.604 -0.1379 -0.3938  0.1184
 9805SOL    HW130249   7.791   6.349   1.527 -0.7735  0.1005  0.5980
 9805SOL    HW230250   7.747   6.223   1.598 -0.5884 -0.0464  0.4512
 9806SOL     OW30251   1.018   3.613   0.907 -0.3060  0.2724 -0.5405
 9806SOL    HW130252   0.950   3.547   0.916  0.3164 -0.3068  0.0388
 9806SOL    HW230253   0.971   3.693   0.884 -1.2256  0.0163  0.3863
 9807SOL     OW30254   3.582   4.746   7.153 -0.2728 -0.0791 -0.1245
 9807SOL    HW130255   3.671   4.726   7.182 -0.5595  0.2079  1.0363
 9807SOL    HW230256   3.537   4.661   7.151  0.1682 -0.3057 -1.3013
 9808SOL     OW30257   1.167   3.915   0.663  0.1752 -0.4197 -0.4908
 9808SOL    HW130258   1.084   3.961   0.680 -0.9964 -2.3403 -0.7587
 9808SOL    HW230259   1.220   3.932   0.741 -0.9282 -0.1239  0.2176
 9809SOL     OW30260   3.920   5.869   1.849  0.0620  0.1114 -0.2757
 9809SOL    HW130261   3.830   5.883   1.818  0.8421  1.5947 -2.0953
 9809SOL    HW230262   3.920   5.901   1.939 -1.2723 -0.0954 -0.1830
 9810SOL     OW30263   4.142   1.470   6.046 -0.4431  0.8907 -0.1412
 9810SOL    HW130264   4.096   1.385   6.039  0.0882  0.7151 -1.8839
 9810SOL    HW230265   4.083   1.524   6.099 -0.5917 -0.6776  1.4007
 9811SOL     OW30266   4.374   1.901   4.384 -0.2014  0.3995  0.1673
 9811SOL    HW130267   4.288   1.896   4.343 -0.9022  0.8837  1.5398
 9811SOL    HW230268   4.382   1.992   4.413  1.3851  0.7383 -1.1919
 9812SOL     OW30269   0.911   6.548   5.835  0.2583  0.2544  0.4742
 9812SOL    HW130270   0.971   6.512   5.901 -0.3084 -0.6505  0.5150
 9812SOL    HW230271   0.824   6.525   5.866 -0.1804  2.1005  0.7383
 9813SOL     OW30272   4.063   5.069   6.118  0.2657 -0.1710 -0.5925
 9813SOL    HW130273   4.073   5.156   6.079  0.3650 -0.0639 -0.3265
 9813SOL    HW230274   4.111   5.073   6.200 -1.4499  0.1663  0.4352
 9814SOL     OW30275   4.052   5.543   0.633 -0.4206  0.0139  0.4463
 9814SOL    HW130276   4.018   5.616   0.581 -1.8603 -1.1618 -0.3347
 9814SOL    HW230277   3.977   5.486   0.646  1.0057 -2.2400 -0.5262
 9815SOL     OW30278   2.877   5.289   4.049 -0.2975 -0.1703  0.2531
 9815SOL    HW130279   2.817   5.343   4.100  1.0738 -0.1797  1.9548
 9815SOL    HW230280   2.961   5.297   4.094  0.5750 -1.5561 -1.0369
 9816SOL     OW30281   4.249   0.156   6.989  0.3513 -0.1160 -0.1078
 9816SOL    HW130282   4.215   0.224   7.047  0.2092  0.3597 -0.7445
 9816SOL    HW230283   4.342   0.176   6.981 -0.0684  1.3315 -2.0328
 9817SOL     OW30284   4.309   1.604   7.471 -0.1162 -0.0085  0.0592
 9817SOL    HW130285   4.222   1.628   7.505 -0.2019 -2.4492  1.8580
 9817SOL    HW230286   4.350   1.687   7.449 -2.6751  1.2564 -0.2439
 9818SOL     OW30287   4.389   4.555   7.553  0.3162 -0.1247  0.3431
 9818SOL    HW130288   4.474   4.572   7.593  0.0396 -1.4532  1.6045
 9818SOL    HW230289   4.388   4.460   7.540  0.4050  0.2241 -2.9920
 9819SOL     OW30290   3.804   1.345   6.580  0.2930  0.2284 -0.1557
 9819SOL    HW130291   3.768   1.259   6.559  2.1494 -0.1002 -2.4791
 9819SOL    HW230292   3.855   1.331   6.659  1.3333 -1.1115 -1.0096
 9820SOL     OW30293   7.463   3.652   7.057 -0.1000 -0.4357  0.0116
 9820SOL    HW130294   7.375   3.625   7.086 -0.4074  0.5442  0.0368
 9820SOL    HW230295   7.461   3.642   6.962  0.5106 -2.5085  0.1728
 9821SOL     OW30296   3.532   4.825   0.792 -0.6951 -0.1964 -0.2488
 9821SOL    HW130297   3.474   4.842   0.719 -1.8232  0.1072  0.6850
 9821SOL    HW230298   3.497   4.747   0.834  0.1154 -0.5464 -0.2019
 9822SOL     OW30299   2.917   7.604   3.603  0.1472 -0.1013 -0.3044
 9822SOL    HW130300   2.937   7.597   3.697  2.2071 -0.2419 -0.7032
 9822SOL    HW230301   2.940   7.694   3.581 -2.2961  0.5871 -0.3079
 9823SOL     OW30302   5.128   5.732   5.189  0.0137  0.4470  0.5647
 9823SOL    HW130303   5.082   5.785   5.123  0.4976 -0.2635 -0.3663
 9823SOL    HW230304   5.065   5.724   5.261 -1.2333 -0.2487 -0.5563
 9824SOL     OW30305   4.768   3.087   4.362 -0.2947  0.0150 -0.0758
 9824SOL    HW130306   4.836   3.058   4.422  1.2950 -0.8408 -2.1766
 9824SOL    HW230307   4.815   3.131   4.291 -1.8315 -0.9536 -1.8008
 9825SOL     OW30308   1.108   1.121   4.813  0.1576  0.1879 -0.4456
 9825SOL    HW130309   1.185   1.176   4.796  1.6263 -1.7587 -0.5687
 9825SOL    HW230310   1.081   1.144   4.902  0.7895  1.0238 -0.4591
 9826SOL     OW30311   6.082   3.548   7.439  0.2868 -0.1075  0.3577
 9826SOL    HW130312   6.115   3.505   7.360  0.9812  2.0538 -0.6130
 9826SOL    HW230313   6.161   3.571   7.488 -0.0364  0.4476  0.6256
 9827SOL     OW30314   6.023   3.347   4.996  0.4512 -0.1905 -0.0263
 9827SOL    HW130315   6.068   3.327   5.077  0.6558  0.6867  0.0820
 9827SOL    HW230316   5.966   3.271   4.981  0.3970 -0.3508  0.9365
 9828SOL     OW30317   4.808   0.898   4.049 -0.4151  0.2011 -0.0010
 9828SOL    HW130318   4.861   0.976   4.033 -0.9163  0.5160 -0.1428
 9828SOL    HW230319   4.764   0.881   3.966 -0.7894  0.1371  0.2067
 9829SOL     OW30320   2.166   5.837   7.018 -0.3080  0.0656 -0.2963
 9829SOL    HW130321   2.174   5.795   7.104 -0.2798 -0.6491 -0.6360
 9829SOL    HW230322   2.243   5.808   6.970 -1.1649 -0.9194 -1.1284
 9830SOL     OW30323   6.772   4.090   4.724 -0.8112 -0.2725 -0.0199
 9830SOL    HW130324   6.818   4.173   4.712  0.2677 -1.1920 -2.9608
 9830SOL    HW230325   6.806   4.056   4.807  0.3185  1.1946  0.1598
 9831SOL     OW30326   6.165   2.730   6.407  0.0827 -0.0858  0.2133
 9831SOL    HW130327   6.193   2.644   6.377  0.0377 -0.5854  1.5504
 9831SOL    HW230328   6.223   2.751   6.480 -0.3579  0.7037  0.3533
 9832SOL     OW30329   1.996   1.987   7.878 -0.3445 -0.0506 -0.4173
 9832SOL    HW130330   1.912   1.989   7.833  0.1062  0.1804 -1.2909
 9832SOL    HW230331   1.975   1.980   7.970 -1.2899 -1.2042 -0.7098
 9833SOL     OW30332   6.274   6.241   5.696  0.4602 -0.0589 -0.2679
 9833SOL    HW130333   6.272   6.262   5.603  0.9656  2.1580  0.1546
 9833SOL    HW230334   6.221   6.309   5.737  2.6620  0.8510  1.2975
 9834SOL     OW30335   7.911   3.232   2.074  0.3922 -0.3486  0.0098
 9834SOL    HW130336   7.974   3.179   2.123  1.0125 -0.2558 -0.6790
 9834SOL    HW230337   7.964   3.282   2.012 -0.4272 -0.9002 -1.1775
 9835SOL     OW30338   4.456   6.358   3.265 -0.3155  0.1395 -0.1232
 9835SOL    HW130339   4.549   6.333   3.267 -0.3194  0.0950 -0.4238
 9835SOL    HW230340   4.410   6.277   3.245 -0.4701  0.0387  0.6259
 9836SOL     OW30341   3.676   6.932   6.247 -0.0901  0.5432  0.0317
 9836SOL    HW130342   3.677   6.849   6.200  2.4378 -0.2705  1.3136
 9836SOL    HW230343   3.716   6.994   6.186  0.1561  0.2711 -0.0859
 9837SOL     OW30344   2.208   0.825   7.204  0.5629 -0.6018  0.0139
 9837SOL    HW130345   2.166   0.844   7.288  1.3699  1.2859  0.0524
 9837SOL    HW230346   2.192   0.732   7.189 -1.6775 -0.4542  1.0853
 9838SOL     OW30347   6.544   0.346   4.408  0.0784  0.2774  0.1976
 9838SOL    HW130348   6.633   0.359   4.441  0.5543 -0.3463 -0.7891
 9838SOL    HW230349   6.538   0.405   4.332 -0.0246 -0.3473 -0.2857
 9839SOL     OW30350   4.048   4.114   1.493  0.3564 -0.0431 -0.3499
 9839SOL    HW130351   4.090   4.028   1.500  1.8107  0.6393 -0.2565
 9839SOL    HW230352   4.052   4.150   1.581  0.1613  0.2970 -0.4773
 9840SOL     OW30353   7.666   4.952   3.073 -0.5398 -0.0258  0.0907
 9840SOL    HW130354   7.731   5.007   3.117  0.5674 -1.4384  0.3131
 9840SOL    HW230355   7.715   4.875   3.046 -2.4143 -1.8728  1.6304
 9841SOL     OW30356   5.677   1.071   1.382 -0.0437 -0.8555 -0.1833
 9841SOL    HW130357   5.675   0.976   1.379  2.2286 -1.0196  1.1589
 9841SOL    HW230358   5.634   1.093   1.465  0.9094 -0.8457  0.3227
 9842SOL     OW30359   2.739   0.859   5.985 -0.2913 -0.0127 -0.3096
 9842SOL    HW130360   2.707   0.792   5.925 -0.8338 -1.2065  1.2580
 9842SOL    HW230361   2.668   0.923   5.991 -0.8134 -0.6297  0.1451
 9843SOL     OW30362   1.238   1.572   6.272 -0.3676 -0.2513 -0.8677
 9843SOL    HW130363   1.327   1.538   6.278 -0.0431  0.8582  1.6355
 9843SOL    HW230364   1.246   1.666   6.289 -2.1648 -0.4116  1.3218
 9844SOL     OW30365   1.263   1.480   2.104 -0.2263  0.6898  0.3809
 9844SOL    HW130366   1.279   1.567   2.141  1.5980  1.1113 -1.2406
 9844SOL    HW230367   1.244   1.497   2.012  0.1346 -0.6250  0.0522
 9845SOL     OW30368   3.230   2.160   5.444  0.1300  0.2648  0.4677
 9845SOL    HW130369   3.283   2.081   5.439 -1.1182 -0.5438 -3.0481
 9845SOL    HW230370   3.254   2.210   5.366 -1.5458  1.6852  0.7931
 9846SOL     OW30371   4.589   0.449   5.323 -0.8125  0.2942  1.2984
 9846SOL    HW130372   4.542   0.379   5.368 -3.5846  1.4086  0.3399
 9846SOL    HW230373   4.534   0.527   5.335  0.4593  1.5515 -0.4595
 9847SOL     OW30374   0.410   4.094   7.220  0.3211  0.2416  0.2817
 9847SOL    HW130375   0.356   4.063   7.292 -1.0234  0.5767 -0.5336
 9847SOL    HW230376   0.347   4.131   7.158  1.2667 -1.4358 -1.7830
 9848SOL     OW30377   7.340   6.344   7.018 -0.1468 -0.3701  0.1734
 9848SOL    HW130378   7.369   6.256   6.995 -1.5124 -0.5285 -1.0330
 9848SOL    HW230379   7.417   6.399   7.001  0.5023 -1.2115  0.2928
 9849SOL     OW30380   4.511   6.258   1.165  0.0373 -0.2039 -0.2301
 9849SOL    HW130381   4.431   6.241   1.215  0.0989  1.2669  0.4296
 9849SOL    HW230382   4.488   6.236   1.075 -1.2401  0.5182 -0.1051
 9850SOL     OW30383   3.727   5.078   4.903 -0.2526 -0.5020  0.5027
 9850SOL    HW130384   3.665   5.117   4.841  0.6859  0.0141 -0.1337
 9850SOL    HW230385   3.804   5.057   4.850  0.5176 -0.1676  1.4640
 9851SOL     OW30386   6.022   2.880   5.932  0.4793  0.6215 -0.0062
 9851SOL    HW130387   6.011   2.965   5.889  0.8165  0.2263 -0.9127
 9851SOL    HW230388   6.089   2.895   5.998 -1.0545  1.5841  1.4157
 9852SOL     OW30389   0.445   1.205   4.492  0.1049  0.1343 -0.0458
 9852SOL    HW130390   0.539   1.212   4.479 -0.0402 -0.1003 -1.4079
 9852SOL    HW230391   0.414   1.152   4.418 -1.0990  0.2808  0.3238
 9853SOL     OW30392   1.314   6.339   1.419 -0.5947  0.4888 -0.3959
 9853SOL    HW130393   1.389   6.390   1.389  0.1221  1.1137  2.2111
 9853SOL    HW230394   1.238   6.395   1.402  0.0360  1.8325  0.9786
 9854SOL     OW30395   6.829   2.159   1.618  0.5402  0.3803  0.2676
 9854SOL    HW130396   6.892   2.169   1.547 -0.8051 -0.9108 -1.1861
 9854SOL    HW230397   6.815   2.065   1.624 -1.4934  0.6399  0.2801
 9855SOL     OW30398   2.707   3.457   7.245 -0.3865  0.4869 -0.7670
 9855SOL    HW130399   2.709   3.460   7.340 -0.4820  0.1777 -0.7535
 9855SOL    HW230400   2.619   3.427   7.223 -0.4691  0.8643 -0.9623
 9856SOL     OW30401   5.544   2.143   5.210 -0.1420  0.7470  0.0280
 9856SOL    HW130402   5.480   2.168   5.277 -2.5975 -0.4569 -1.7091
 9856SOL    HW230403   5.507   2.177   5.128  0.8881 -0.9094 -1.1857
 9857SOL     OW30404   5.163   4.620   0.746  0.3857 -0.3586  0.2095
 9857SOL    HW130405   5.203   4.541   0.709  0.1634 -0.4824  0.2314
 9857SOL    HW230406   5.194   4.691   0.690  2.2365 -0.1713  1.3745
 9858SOL     OW30407   1.672   7.757   4.809  0.1873 -0.2749 -0.0087
 9858SOL    HW130408   1.605   7.763   4.741  1.4421 -2.5440 -1.5793
 9858SOL    HW230409   1.625   7.727   4.887 -1.3113  2.5337  0.3005
 9859SOL     OW30410   5.901   1.735   7.382 -0.6193  0.3683 -0.3091
 9859SOL    HW130411   5.901   1.650   7.426 -0.8091  0.7315  0.4094
 9859SOL    HW230412   5.819   1.776   7.409 -0.0993  1.1593  0.1023
 9860SOL     OW30413   3.817   1.689   3.492  0.1917  0.0744 -0.1548
 9860SOL    HW130414   3.875   1.729   3.428  0.5944  0.3724  0.3889
 9860SOL    HW230415   3.736   1.739   3.486 -0.2278 -0.6998 -1.3140
 9861SOL     OW30416   3.947   4.738   5.122 -0.5896  0.1445  0.2932
 9861SOL    HW130417   3.979   4.779   5.202 -1.2675 -0.4883  0.8879
 9861SOL    HW230418   3.992   4.654   5.118  1.0253  0.9936 -1.0782
 9862SOL     OW30419   3.368   2.245   1.739  0.6581  0.5089  0.4104
 9862SOL    HW130420   3.327   2.288   1.814 -1.3709  0.9487 -0.8461
 9862SOL    HW230421   3.420   2.313   1.697  1.3819  0.3951  1.0946
 9863SOL     OW30422   7.621   1.554   7.098  0.2272  0.3253  0.0943
 9863SOL    HW130423   7.587   1.643   7.109 -1.8731 -0.2423 -1.1550
 9863SOL    HW230424   7.651   1.550   7.007 -0.1005 -0.3563  0.0063
 9864SOL     OW30425   3.711   4.373   1.157  0.1518 -0.7723  0.2643
 9864SOL    HW130426   3.719   4.351   1.249 -0.8310 -1.2962  0.2381
 9864SOL    HW230427   3.732   4.467   1.152  3.2397 -1.3306  0.5430
 9865SOL     OW30428   5.745   6.001   0.236 -0.9563  0.3290  0.1411
 9865SOL    HW130429   5.657   5.977   0.263 -0.6588  0.2796  1.1088
 9865SOL    HW230430   5.747   6.096   0.243 -1.1338  0.3918 -0.5504
 9866SOL     OW30431   6.900   7.552   7.932  0.1902  0.7243  0.5408
 9866SOL    HW130432   6.805   7.560   7.927  0.2611  3.3236  1.7476
 9866SOL    HW230433   6.933   7.625   7.879  1.4716  0.6874  1.2536
 9867SOL     OW30434   7.526   6.738   0.022  0.7143  0.0945 -0.2817
 9867SOL    HW130435   7.508   6.821   0.067  0.6085  0.1424 -0.4122
 9867SOL    HW230436   7.610   6.709   0.059  0.1684 -0.3441  0.6340
 9868SOL     OW30437   6.702   7.615   1.803  0.4037  0.7871 -0.0011
 9868SOL    HW130438   6.687   7.576   1.889  0.3028  1.3435  0.2377
 9868SOL    HW230439   6.759   7.690   1.820  3.0578 -0.9031 -0.8233
 9869SOL     OW30440   0.157   3.622   4.959 -0.0842 -0.4808 -0.1178
 9869SOL    HW130441   0.231   3.598   5.014 -0.9647 -2.4872  0.2519
 9869SOL    HW230442   0.099   3.671   5.017 -0.7474 -2.1056  0.6441
 9870SOL     OW30443   0.681   0.328   2.829  0.1632 -0.0263  0.2316
 9870SOL    HW130444   0.641   0.403   2.873  0.3935  0.2131  0.0402
 9870SOL    HW230445   0.740   0.290   2.894  1.0611  0.7675 -0.0944
 9871SOL     OW30446   4.923   3.580   6.983  0.2636 -0.2592  0.1472
 9871SOL    HW130447   5.016   3.591   7.000  0.3497 -1.8804  0.8646
 9871SOL    HW230448   4.887   3.669   6.985  1.5321  0.2458  1.3737
 9872SOL     OW30449   4.224   0.095   0.013 -0.1248  1.0302  0.0311
 9872SOL    HW130450   4.241   0.135   0.099 -2.5440 -0.7140  1.4524
 9872SOL    HW230451   4.297   0.034   0.000 -0.2993  0.4715  1.4628
 9873SOL     OW30452   6.109   5.324   0.969  0.6791  0.1367  0.7116
 9873SOL    HW130453   6.101   5.239   0.926  0.3717  0.6100 -0.1794
 9873SOL    HW230454   6.202   5.345   0.962  0.4306  0.8027 -0.8953
 9874SOL     OW30455   6.660   5.496   5.958 -0.6696 -0.2420  0.5807
 9874SOL    HW130456   6.625   5.543   5.882 -0.0987 -0.3881  0.2182
 9874SOL    HW230457   6.644   5.404   5.938  2.8860 -0.6302 -1.2327
 9875SOL     OW30458   0.769   1.262   2.132  0.0974 -0.2982  0.2165
 9875SOL    HW130459   0.861   1.275   2.154  0.4240 -1.2249 -0.5239
 9875SOL    HW230460   0.727   1.242   2.216  0.6499 -0.2714  0.5042
 9876SOL     OW30461   7.426   1.772   3.602 -0.4157 -0.4437 -0.3186
 9876SOL    HW130462   7.346   1.783   3.550  0.7721 -0.7184 -2.2951
 9876SOL    HW230463   7.425   1.679   3.626 -0.1715 -0.7089 -1.2797
 9877SOL     OW30464   5.721   3.149   7.809  0.7923 -0.4436 -0.1449
 9877SOL    HW130465   5.724   3.236   7.769  1.2310 -0.0952  0.6353
 9877SOL    HW230466   5.795   3.102   7.770  0.7934 -0.3404 -0.2683
 9878SOL     OW30467   7.030   4.257   5.631  0.0413 -0.4995 -0.1128
 9878SOL    HW130468   7.050   4.345   5.598 -0.1628 -0.0285  0.9955
 9878SOL    HW230469   7.107   4.205   5.606  0.3257  0.0718 -0.4655
 9879SOL     OW30470   5.965   2.083   0.583  0.0810  0.4256 -0.0108
 9879SOL    HW130471   5.971   2.006   0.526  4.0690  0.3718  0.1413
 9879SOL    HW230472   6.000   2.154   0.530  2.6681  0.6370  1.7812
 9880SOL     OW30473   5.003   6.317   1.371 -0.4851  0.1550 -0.0274
 9880SOL    HW130474   5.022   6.225   1.354 -0.3220  0.0909  0.4895
 9880SOL    HW230475   4.909   6.325   1.358 -0.5177 -0.1103  0.0464
 9881SOL     OW30476   5.300   4.200   5.874  0.1867 -0.3386  0.2453
 9881SOL    HW130477   5.334   4.115   5.847  0.0863 -0.5739  0.8345
 9881SOL    HW230478   5.220   4.212   5.822  0.9142  0.0158 -0.8117
 9882SOL     OW30479   5.411   3.855   0.208 -0.0652 -0.2270 -0.3485
 9882SOL    HW130480   5.360   3.781   0.176  0.4927 -0.3050 -1.0807
 9882SOL    HW230481   5.345   3.918   0.239 -0.6113 -0.3216 -1.2934
 9883SOL     OW30482   1.972   6.964   4.853  0.7245 -0.7979  0.1090
 9883SOL    HW130483   1.884   6.927   4.855  0.0378  0.7515 -0.1242
 9883SOL    HW230484   2.030   6.888   4.857 -0.5950 -1.7979  1.5668
 9884SOL     OW30485   0.278   5.561   3.975  0.0894  0.1829  0.2066
 9884SOL    HW130486   0.292   5.551   4.069 -2.4865  0.5809  0.6869
 9884SOL    HW230487   0.332   5.493   3.935 -2.5494 -3.4339  2.2687
 9885SOL     OW30488   3.169   2.321   6.439 -0.0884 -0.4150 -0.2577
 9885SOL    HW130489   3.074   2.318   6.429 -0.1056 -1.0150  0.0547
 9885SOL    HW230490   3.183   2.331   6.534  0.0942  3.3155 -0.5203
 9886SOL     OW30491   6.128   3.656   0.370  0.5788 -0.3837 -0.5003
 9886SOL    HW130492   6.198   3.646   0.435 -0.0076  1.4487  0.4712
 9886SOL    HW230493   6.156   3.729   0.316  0.4652 -1.1070 -1.5691
 9887SOL     OW30494   7.506   1.319   6.030  0.9998 -1.3165  0.2774
 9887SOL    HW130495   7.528   1.407   5.998 -1.0803 -0.7048  0.3595
 9887SOL    HW230496   7.536   1.319   6.121 -3.2732  1.2863  2.0199
 9888SOL     OW30497   5.648   2.389   1.131 -0.0103 -0.3712 -0.1122
 9888SOL    HW130498   5.683   2.400   1.219 -0.9665 -1.7913  0.4901
 9888SOL    HW230499   5.560   2.425   1.135  0.1024 -0.0392 -0.6127
 9889SOL     OW30500   4.959   4.798   1.445 -0.4043  0.5366 -0.4893
 9889SOL    HW130501   5.016   4.863   1.404  1.3741 -0.4164  0.3476
 9889SOL    HW230502   4.933   4.838   1.529  3.5002 -0.9883  1.6872
 9890SOL     OW30503   6.323   4.329   1.804  0.0351 -0.3099  0.2928
 9890SOL    HW130504   6.263   4.393   1.767  0.0547 -0.1566  0.5240
 9890SOL    HW230505   6.365   4.288   1.729  0.9713  0.8458  0.1671
 9891SOL     OW30506   6.459   2.259   2.032  0.3902  0.3103  0.4533
 9891SOL    HW130507   6.504   2.275   1.949 -0.9771  0.0120 -0.3937
 9891SOL    HW230508   6.368   2.242   2.006  0.3276 -1.7898  1.8656
 9892SOL     OW30509   0.574   4.684   3.242  0.5082 -0.7266 -0.4453
 9892SOL    HW130510   0.584   4.755   3.179  0.0881  0.2967  0.6121
 9892SOL    HW230511   0.480   4.683   3.263  0.6101 -1.1964  0.0104
 9893SOL     OW30512   5.608   2.074   2.827 -0.0150  0.9395 -0.2158
 9893SOL    HW130513   5.655   2.153   2.853 -0.6971  0.9345  1.1052
 9893SOL    HW230514   5.516   2.101   2.821 -0.2244  0.3019  0.0382
 9894SOL     OW30515   0.628   4.306   3.098  0.2861 -0.1980  0.3304
 9894SOL    HW130516   0.679   4.374   3.142  3.0884 -0.0292 -2.7425
 9894SOL    HW230517   0.686   4.229   3.097 -1.7576 -1.8665  1.3859
 9895SOL     OW30518   2.787   1.673   1.222  0.1753  0.9520  0.1458
 9895SOL    HW130519   2.828   1.618   1.155  1.0484  0.2756  1.1973
 9895SOL    HW230520   2.774   1.614   1.296  0.7695  2.0643  1.1677
 9896SOL     OW30521   0.457   6.992   6.999 -0.1297  0.3254  0.5092
 9896SOL    HW130522   0.503   6.961   7.077  0.2564 -0.9255 -0.1895
 9896SOL    HW230523   0.521   7.049   6.956 -0.0739  0.4342  0.7333
 9897SOL     OW30524   2.199   3.195   7.098  0.6288  0.7372 -0.2615
 9897SOL    HW130525   2.139   3.263   7.067 -0.0965  0.6761  0.9168
 9897SOL    HW230526   2.165   3.172   7.185  1.2243 -0.6926 -0.3839
 9898SOL     OW30527   0.652   5.777   3.246  0.0574 -0.1395  0.2666
 9898SOL    HW130528   0.570   5.817   3.273 -1.1767 -1.9970 -0.5636
 9898SOL    HW230529   0.715   5.849   3.244 -2.0019  1.7235 -1.0487
 9899SOL     OW30530   5.802   0.636   5.629 -0.0444  0.0689  0.5341
 9899SOL    HW130531   5.712   0.605   5.641 -0.0067  0.2614  1.3515
 9899SOL    HW230532   5.794   0.731   5.621 -0.1647 -0.0794 -2.0293
 9900SOL     OW30533   4.159   1.019   7.834  0.1036  0.2285  0.4462
 9900SOL    HW130534   4.108   0.955   7.785 -0.9485  0.1248  1.6286
 9900SOL    HW230535   4.105   1.098   7.833  1.8428  1.5581 -1.9326
 9901SOL     OW30536   7.567   0.964   5.599 -0.4167 -0.1436 -0.0289
 9901SOL    HW130537   7.584   0.907   5.675 -0.8394 -0.1994  0.0306
 9901SOL    HW230538   7.571   1.053   5.634  2.4589  0.0195 -0.5477
 9902SOL     OW30539   7.590   3.696   6.663  0.0888 -0.0029  0.3846
 9902SOL    HW130540   7.521   3.755   6.636  0.7391 -0.3471 -2.3200
 9902SOL    HW230541   7.670   3.749   6.662  0.1969 -0.1261  1.3447
 9903SOL     OW30542   6.664   4.569   0.281 -0.4898  0.0293 -0.3510
 9903SOL    HW130543   6.602   4.628   0.239 -1.7105 -0.4471  0.7024
 9903SOL    HW230544   6.659   4.591   0.374 -0.7279 -1.4715  0.0249
 9904SOL     OW30545   0.800   0.968   1.061 -0.3899  0.1159  0.1822
 9904SOL    HW130546   0.721   0.954   1.009 -1.1428  0.4525  1.2028
 9904SOL    HW230547   0.840   1.047   1.024 -0.5334 -0.0550 -0.3363
 9905SOL     OW30548   6.117   2.939   3.609  0.4649  0.5130  0.1194
 9905SOL    HW130549   6.098   3.019   3.560  0.7641  1.0700  0.8847
 9905SOL    HW230550   6.206   2.952   3.643  0.4929 -0.1181  0.3076
 9906SOL     OW30551   7.007   1.710   7.831  0.4391 -0.1180 -0.5877
 9906SOL    HW130552   6.949   1.786   7.839 -0.9645 -1.0554 -1.3466
 9906SOL    HW230553   7.053   1.723   7.748  1.8711  0.9609  0.3356
 9907SOL     OW30554   5.396   2.546   4.418  0.8396  0.0329  0.1390
 9907SOL    HW130555   5.403   2.526   4.324  0.2254 -1.7904  0.4419
 9907SOL    HW230556   5.302   2.558   4.433  0.9999  1.0206  0.4077
 9908SOL     OW30557   7.876   6.121   4.567 -0.1541  0.2267 -0.3234
 9908SOL    HW130558   7.962   6.103   4.530 -0.7827 -2.2070 -0.7579
 9908SOL    HW230559   7.828   6.164   4.496 -0.2250 -1.1773 -1.1647
 9909SOL     OW30560   1.066   5.062   0.816  0.0751 -0.5126  0.0330
 9909SOL    HW130561   0.986   5.102   0.782 -0.3705 -0.1200  1.4903
 9909SOL    HW230562   1.119   5.044   0.738 -0.3893  1.4744 -0.7917
 9910SOL     OW30563   6.859   4.675   5.211  0.3282 -0.0212 -0.2535
 9910SOL    HW130564   6.883   4.668   5.119 -2.8031  0.6405 -1.2219
 9910SOL    HW230565   6.858   4.585   5.243  1.5710 -0.2469 -0.7980
 9911SOL     OW30566   4.221   5.053   4.469 -0.5686 -0.2029 -0.1187
 9911SOL    HW130567   4.202   5.043   4.376  0.7959  0.3094 -0.4659
 9911SOL    HW230568   4.311   5.021   4.479 -0.0321  1.4619  0.6801
 9912SOL     OW30569   2.307   2.567   5.690  0.6227  0.0934 -0.2670
 9912SOL    HW130570   2.357   2.602   5.616  1.8367 -0.1638  0.3992
 9912SOL    HW230571   2.333   2.475   5.695 -0.3458 -0.1930 -0.2285
 9913SOL     OW30572   6.266   3.321   1.179  0.6950 -0.2783 -0.3706
 9913SOL    HW130573   6.199   3.253   1.186  1.5500 -1.1555 -0.6045
 9913SOL    HW230574   6.221   3.402   1.204 -0.6622 -0.7186 -1.2687
 9914SOL     OW30575   7.431   4.180   5.194 -0.5383 -0.0402  0.3970
 9914SOL    HW130576   7.526   4.172   5.183 -0.3334  0.1040  1.8562
 9914SOL    HW230577   7.403   4.231   5.119  0.1645 -2.1703 -1.4155
 9915SOL     OW30578   5.419   3.383   0.048 -0.0222  0.6622  0.1380
 9915SOL    HW130579   5.466   3.438  -0.014  1.1386  0.7919  1.0980
 9915SOL    HW230580   5.337   3.430   0.065  0.4324  1.5093  0.0517
 9916SOL     OW30581   4.749   0.210   0.700  0.0271 -0.3866  0.3235
 9916SOL    HW130582   4.773   0.301   0.681  1.2455 -0.8458 -0.5363
 9916SOL    HW230583   4.741   0.206   0.795  0.0483  0.6018  0.3734
 9917SOL     OW30584   6.025   2.709   0.603  0.6219  0.2847  0.0055
 9917SOL    HW130585   6.007   2.758   0.684 -0.5980 -0.5315  0.2725
 9917SOL    HW230586   6.068   2.771   0.546  2.4634  0.6129  1.6378
 9918SOL     OW30587   4.538   0.465   3.208  0.4573 -0.0062 -0.0093
 9918SOL    HW130588   4.509   0.414   3.132  0.7183 -1.0405  0.5600
 9918SOL    HW230589   4.465   0.524   3.227 -0.8014 -1.6762  0.6180
 9919SOL     OW30590   1.134   4.087   3.732 -0.0490 -0.1590  0.4582
 9919SOL    HW130591   1.179   4.057   3.811  0.4886 -0.4238  0.0561
 9919SOL    HW230592   1.107   4.007   3.688  2.4671 -0.2068 -1.2463
 9920SOL     OW30593   0.276   0.209   1.838 -0.1546  0.6936 -0.6212
 9920SOL    HW130594   0.208   0.142   1.844  1.1036 -0.7322 -1.5925
 9920SOL    HW230595   0.289   0.239   1.928  0.0869 -1.2308  0.0230
 9921SOL     OW30596   4.754   4.131   4.784 -0.4776 -0.3431 -0.0766
 9921SOL    HW130597   4.763   4.039   4.809  1.0474 -0.5670 -1.3075
 9921SOL    HW230598   4.790   4.135   4.696  1.2519  1.7613  0.6472
 9922SOL     OW30599   3.111   1.669   6.781 -0.0387  0.1918  0.1879
 9922SOL    HW130600   3.140   1.760   6.793 -0.3754  0.1440  1.6076
 9922SOL    HW230601   3.182   1.617   6.819  1.1082 -0.2853 -2.4276
 9923SOL     OW30602   0.174   4.510   1.669  0.8279 -0.0666 -0.1563
 9923SOL    HW130603   0.202   4.600   1.682  0.2744 -0.0472  0.9980
 9923SOL    HW230604   0.078   4.513   1.674  0.8150 -0.7472  0.1337
 9924SOL     OW30605   1.112   0.808   3.256 -0.0993 -0.4007  0.8660
 9924SOL    HW130606   1.057   0.820   3.333 -0.5740 -1.6404  0.7424
 9924SOL    HW230607   1.197   0.780   3.292  0.3167  0.9505  1.0208
 9925SOL     OW30608   5.075   7.831   4.293  0.5177 -0.0540 -0.0112
 9925SOL    HW130609   5.138   7.773   4.249  0.8179  0.4487 -0.2519
 9925SOL    HW230610   5.063   7.904   4.233 -0.8323 -0.4650 -0.2816
 9926SOL     OW30611   7.926   2.286   6.022 -0.8829  0.5786  0.0995
 9926SOL    HW130612   7.953   2.230   5.950 -0.8391  2.3781 -1.3552
 9926SOL    HW230613   7.922   2.228   6.098  2.0999 -0.7910 -0.6572
 9927SOL     OW30614   2.012   3.788   7.839  0.2904 -0.5834  0.2544
 9927SOL    HW130615   2.074   3.845   7.794 -0.8414  0.2875 -0.2689
 9927SOL    HW230616   1.926   3.824   7.816 -0.4055 -1.6981  1.0204
 9928SOL     OW30617   4.072   0.876   4.057 -0.2789 -0.2364 -0.2896
 9928SOL    HW130618   4.034   0.925   3.985 -0.1697 -0.5873 -0.5902
 9928SOL    HW230619   4.120   0.805   4.015 -1.4649 -1.3449  0.1754
 9929SOL     OW30620   1.210   7.803   1.761  0.3746  0.4628 -0.2787
 9929SOL    HW130621   1.190   7.871   1.696  1.8707  1.2439  0.0245
 9929SOL    HW230622   1.267   7.847   1.825 -2.1234  0.1069  2.3714
 9930SOL     OW30623   0.824   7.009   3.980 -0.6221 -0.6438 -0.4227
 9930SOL    HW130624   0.841   6.980   3.890  0.5233  0.9832 -0.7730
 9930SOL    HW230625   0.895   6.972   4.032 -0.0856  0.1529 -0.5781
 9931SOL     OW30626   1.254   3.474   2.604 -0.6044 -0.6098 -0.5954
 9931SOL    HW130627   1.326   3.411   2.613 -0.8873 -0.7477  1.0845
 9931SOL    HW230628   1.232   3.497   2.694 -1.2793  1.0336 -1.1519
 9932SOL     OW30629   3.340   1.666   4.546  0.1052  0.3439  0.0853
 9932SOL    HW130630   3.256   1.629   4.520  0.1913  0.2534 -0.0699
 9932SOL    HW230631   3.393   1.590   4.569  0.2992  0.3645 -0.2848
 9933SOL     OW30632   0.548   3.953   1.947 -0.2400  0.3676  0.1702
 9933SOL    HW130633   0.609   4.024   1.925 -0.3747  0.2144 -0.7724
 9933SOL    HW230634   0.550   3.895   1.870 -1.0043 -0.0402  0.4412
 9934SOL     OW30635   4.955   4.057   3.791 -0.0974  0.2444 -0.0863
 9934SOL    HW130636   5.018   4.110   3.743  0.3357  0.3504  0.5764
 9934SOL    HW230637   4.906   4.120   3.843 -0.6079  0.1390 -0.4386
 9935SOL     OW30638   1.061   3.644   0.429 -0.1342 -0.2239  0.1003
 9935SOL    HW130639   1.098   3.713   0.484 -0.6995 -0.1900  0.4481
 9935SOL    HW230640   0.984   3.685   0.388  1.6171  0.5700 -2.7073
 9936SOL     OW30641   6.765   2.301   5.707  0.5234  0.2198  0.2063
 9936SOL    HW130642   6.767   2.205   5.710  1.4703  0.2586  1.5806
 9936SOL    HW230643   6.715   2.326   5.784  0.3705  0.8370 -0.0937
 9937SOL     OW30644   0.550   3.472   4.267  0.7819  0.5832 -0.1828
 9937SOL    HW130645   0.568   3.566   4.261 -0.7399  0.9210  0.0628
 9937SOL    HW230646   0.555   3.440   4.177 -0.0753  1.1965 -0.4612
 9938SOL     OW30647   5.740   4.758   1.429 -0.2506 -0.0234 -0.3153
 9938SOL    HW130648   5.805   4.693   1.455  0.3574  0.8186  0.3401
 9938SOL    HW230649   5.709   4.729   1.343  0.5953 -0.7289 -0.3925
 9939SOL     OW30650   4.266   2.433   5.844 -0.7851  0.5747  0.2005
 9939SOL    HW130651   4.219   2.411   5.764 -1.0148  0.2967  0.4063
 9939SOL    HW230652   4.357   2.442   5.817 -0.7407 -0.2458  0.0295
 9940SOL     OW30653   4.052   2.183   3.996 -0.3661  0.4674  0.0071
 9940SOL    HW130654   4.088   2.099   3.969  0.3086  1.0982 -1.1457
 9940SOL    HW230655   4.078   2.193   4.088 -1.6143 -1.1689  0.5748
 9941SOL     OW30656   7.614   2.147   0.129 -0.4727  0.1413  0.1528
 9941SOL    HW130657   7.570   2.205   0.068 -1.4948 -1.0738 -0.3006
 9941SOL    HW230658   7.708   2.162   0.113 -0.6724  2.1895  0.6018
 9942SOL     OW30659   6.962   7.932   1.637  0.1875  0.1847 -0.1109
 9942SOL    HW130660   6.985   7.857   1.693  1.0920 -0.3014 -1.1031
 9942SOL    HW230661   6.966   8.007   1.696  0.8317 -0.3519  0.5545
 9943SOL     OW30662   1.202   4.611   5.379  0.1358 -0.1001 -0.3042
 9943SOL    HW130663   1.200   4.516   5.367 -0.8296 -0.2835  1.0537
 9943SOL    HW230664   1.174   4.646   5.294 -2.2830 -1.1537 -0.0436
 9944SOL     OW30665   3.725   3.314   1.309 -0.2632  0.4689  0.3773
 9944SOL    HW130666   3.717   3.236   1.362 -0.2655  0.0612 -0.2135
 9944SOL    HW230667   3.638   3.355   1.313 -0.4291  0.1375  0.2301
 9945SOL     OW30668   0.731   5.610   4.682 -0.5586  0.2648  0.2915
 9945SOL    HW130669   0.771   5.615   4.595 -2.2088 -0.5609 -0.5558
 9945SOL    HW230670   0.672   5.686   4.686  0.1159  0.7703  1.0447
 9946SOL     OW30671   0.974   4.848   3.542  0.0536  0.7305  0.5583
 9946SOL    HW130672   0.885   4.852   3.507  0.3441  1.9271 -0.1240
 9946SOL    HW230673   0.963   4.831   3.635 -0.8107 -0.8156  0.1940
 9947SOL     OW30674   0.200   7.931   0.560  0.0816 -0.0088  0.2650
 9947SOL    HW130675   0.293   7.946   0.574  0.2217 -1.4842  1.1641
 9947SOL    HW230676   0.193   7.836   0.545 -1.2162  0.1509 -0.2885
 9948SOL     OW30677   4.492   4.863   1.711 -0.0882 -0.0231 -0.9157
 9948SOL    HW130678   4.407   4.898   1.684  0.7669  0.7559 -2.7990
 9948SOL    HW230679   4.550   4.879   1.636  1.6684 -0.7761  0.1979
 9949SOL     OW30680   1.649   1.826   0.235  0.1840  0.3546  0.0989
 9949SOL    HW130681   1.731   1.835   0.186  0.5472 -0.0236  0.6305
 9949SOL    HW230682   1.581   1.817   0.167  0.2919  2.7901 -0.3993
 9950SOL     OW30683   3.311   0.985   7.023  0.3250  0.6080  0.0906
 9950SOL    HW130684   3.356   0.945   6.948  1.6905  0.5149  0.9208
 9950SOL    HW230685   3.236   0.927   7.040  1.9742 -1.3986  0.9538
 9951SOL     OW30686   0.783   1.987   3.634  0.4956 -0.2745  0.8461
 9951SOL    HW130687   0.801   2.050   3.705  3.9572  1.1950 -1.0850
 9951SOL    HW230688   0.712   2.027   3.585  0.2573  0.3215  1.6418
 9952SOL     OW30689   5.941   7.104   3.042  0.0749 -0.2373  0.0006
 9952SOL    HW130690   5.956   7.191   3.079 -0.0591  0.0652 -0.6529
 9952SOL    HW230691   5.880   7.118   2.970 -0.0810 -0.8971 -0.0051
 9953SOL     OW30692   2.802   4.405   3.019 -0.0678 -0.5246 -0.2626
 9953SOL    HW130693   2.773   4.402   3.110  0.4664  0.1330 -0.0570
 9953SOL    HW230694   2.725   4.436   2.971  0.5888  2.6371  0.4695
 9954SOL     OW30695   4.881   4.439   4.442 -0.1799 -0.0729 -0.3878
 9954SOL    HW130696   4.807   4.475   4.492 -0.9620  0.3775 -1.8061
 9954SOL    HW230697   4.841   4.373   4.385  0.7854 -1.0047 -0.0146
 9955SOL     OW30698   0.993   4.987   7.165  0.5286  0.1152 -0.7985
 9955SOL    HW130699   0.994   4.896   7.134 -0.1041 -0.4281  0.6837
 9955SOL    HW230700   1.017   5.039   7.088  1.0999 -1.3137 -1.6283
 9956SOL     OW30701   1.647   7.655   0.613  0.0044  0.0340  0.4311
 9956SOL    HW130702   1.722   7.661   0.555  0.4447  0.6547  1.0569
 9956SOL    HW230703   1.677   7.601   0.686 -0.6670 -1.0711 -0.0833
 9957SOL     OW30704   5.914   0.118   3.537 -0.3058  0.4919  0.4241
 9957SOL    HW130705   5.890   0.147   3.449 -1.2631  0.9933  0.8273
 9957SOL    HW230706   5.976   0.184   3.568 -1.6818  1.6039  0.9465
 9958SOL     OW30707   7.326   1.073   3.543 -0.2939  0.3613 -0.0991
 9958SOL    HW130708   7.411   1.088   3.502 -1.2142  2.3101 -1.4843
 9958SOL    HW230709   7.331   1.118   3.627  0.1664  0.1637 -0.0231
 9959SOL     OW30710   6.126   2.411   1.178  0.3647  0.2479  0.1074
 9959SOL    HW130711   6.212   2.414   1.220  0.4222 -0.8154  0.1077
 9959SOL    HW230712   6.081   2.489   1.209  0.7983  0.0546  1.2885
 9960SOL     OW30713   3.638   7.728   4.551 -0.9997  0.0825  0.1182
 9960SOL    HW130714   3.562   7.741   4.494 -1.1260 -0.6140  0.1301
 9960SOL    HW230715   3.705   7.693   4.493 -1.2756 -1.0796  0.4859
 9961SOL     OW30716   0.728   2.361   0.075  0.1352 -0.1561  0.4665
 9961SOL    HW130717   0.668   2.311   0.129 -0.4265  0.3684  0.3370
 9961SOL    HW230718   0.678   2.438   0.048  1.1275  0.7270  1.0656
 9962SOL     OW30719   3.336   2.752   2.447 -0.0380 -0.0500 -0.3315
 9962SOL    HW130720   3.425   2.719   2.437  0.5122  1.5737 -1.2023
 9962SOL    HW230721   3.302   2.756   2.358 -0.1931  1.3500 -0.2292
 9963SOL     OW30722   2.441   6.853   5.896 -0.3069  0.4257 -0.3624
 9963SOL    HW130723   2.429   6.846   5.801 -0.3323  0.1365 -0.3378
 9963SOL    HW230724   2.413   6.942   5.917 -0.7243  0.3436 -0.5607
 9964SOL     OW30725   6.324   2.013   7.350 -0.1768 -0.2566 -0.2391
 9964SOL    HW130726   6.318   2.028   7.445 -0.4517  2.2044 -0.5792
 9964SOL    HW230727   6.296   1.922   7.338  1.4596 -1.1721  2.1803
 9965SOL     OW30728   4.329   5.158   0.931  0.2820 -0.2177  0.0836
 9965SOL    HW130729   4.264   5.169   0.862  0.2757  1.3020  0.2947
 9965SOL    HW230730   4.322   5.066   0.957  0.1756 -0.7691 -1.8032
 9966SOL     OW30731   0.354   6.818   6.200  0.2227  0.3786 -0.0376
 9966SOL    HW130732   0.304   6.899   6.186 -0.8312 -0.0562  1.0186
 9966SOL    HW230733   0.389   6.828   6.289 -0.2966 -0.5025  0.2772
 9967SOL     OW30734   6.274   3.117   2.394  0.7869  0.2722 -0.1379
 9967SOL    HW130735   6.338   3.157   2.453  0.1270  0.4044  0.4969
 9967SOL    HW230736   6.278   3.170   2.315  0.0693  1.4958  0.6209
 9968SOL     OW30737   5.877   2.699   6.313 -0.4418 -0.3977 -0.2077
 9968SOL    HW130738   5.849   2.670   6.226 -0.0293 -1.2321 -0.0651
 9968SOL    HW230739   5.964   2.661   6.325  0.2107  1.0430 -0.0815
 9969SOL     OW30740   1.351   2.829   7.667  0.3540  0.6622 -0.0760
 9969SOL    HW130741   1.367   2.761   7.733 -0.0847 -1.2622 -1.8429
 9969SOL    HW230742   1.257   2.844   7.670  0.2288  0.0684 -0.6806
 9970SOL     OW30743   6.917   4.071   1.852 -0.4170 -0.0037  0.5835
 9970SOL    HW130744   6.833   4.025   1.842  0.0392 -0.9973  1.1640
 9970SOL    HW230745   6.963   4.022   1.920 -0.5135  2.2100  2.3358
 9971SOL     OW30746   4.841   6.280   7.120  0.1638 -0.1095 -0.3434
 9971SOL    HW130747   4.871   6.189   7.113 -0.4859 -0.2831 -1.2079
 9971SOL    HW230748   4.830   6.295   7.213  1.6650 -0.4456 -0.0898
 9972SOL     OW30749   2.025   4.003   4.948  0.3847  0.0928  0.0014
 9972SOL    HW130750   1.947   3.995   5.002  1.3666 -0.7348  1.3401
 9972SOL    HW230751   2.078   4.069   4.992  1.1201 -0.4660 -0.0397
 9973SOL     OW30752   2.938   0.814   6.769 -0.2759 -0.3676  0.3491
 9973SOL    HW130753   2.973   0.903   6.774 -1.7349  0.1714  1.8410
 9973SOL    HW230754   2.981   0.775   6.693  1.8595  0.9472  0.8040
 9974SOL     OW30755   1.562   0.715   2.001  0.3076  0.1775 -0.2917
 9974SOL    HW130756   1.525   0.802   2.018  1.0763  0.2819  0.9164
 9974SOL    HW230757   1.647   0.717   2.043  1.4219 -0.3258 -2.3857
 9975SOL     OW30758   4.448   4.946   1.260  0.5252 -0.0697 -0.3491
 9975SOL    HW130759   4.487   4.962   1.175 -0.1964 -0.6033 -0.7912
 9975SOL    HW230760   4.365   4.903   1.241  1.3855 -2.3402  0.7080
 9976SOL     OW30761   1.979   6.712   3.135 -0.1148  1.1031 -0.6817
 9976SOL    HW130762   2.072   6.734   3.137  0.1372  0.1257 -1.0443
 9976SOL    HW230763   1.938   6.771   3.198  0.9455  0.6168  0.4863
 9977SOL     OW30764   5.926   4.579   1.516  0.0926  0.4203 -0.3984
 9977SOL    HW130765   5.957   4.492   1.540  1.6596  1.1535  0.3801
 9977SOL    HW230766   5.957   4.636   1.586 -1.1203  1.5722 -0.7631
 9978SOL     OW30767   7.459   3.964   2.171  0.0266 -0.1151  0.3075
 9978SOL    HW130768   7.507   3.884   2.149  1.6299  1.0233 -0.5072
 9978SOL    HW230769   7.368   3.935   2.179  0.6520 -2.1511  0.8194
 9979SOL     OW30770   5.432   5.723   2.411 -0.4160 -0.1222 -0.0446
 9979SOL    HW130771   5.366   5.655   2.397 -1.3904  1.0592 -1.4909
 9979SOL    HW230772   5.498   5.681   2.467 -0.4998 -2.5475 -1.6035
 9980SOL     OW30773   4.647   3.913   1.227 -0.2795  0.3452  0.3429
 9980SOL    HW130774   4.575   3.913   1.290 -0.2371 -2.2491  0.4783
 9980SOL    HW230775   4.726   3.921   1.281 -0.3331  0.4200  0.4107
 9981SOL     OW30776   2.866   6.925   0.399 -0.2478 -1.1258  0.1307
 9981SOL    HW130777   2.870   6.963   0.487 -0.7031 -2.9648  0.9842
 9981SOL    HW230778   2.858   7.001   0.341 -0.9219  0.0950  1.7337
 9982SOL     OW30779   6.357   5.181   7.469 -0.1736  0.2693  0.1273
 9982SOL    HW130780   6.307   5.113   7.425  0.8385 -0.3132 -0.1507
 9982SOL    HW230781   6.448   5.151   7.464  0.1932  1.2397  0.7281
 9983SOL     OW30782   0.833   4.445   4.991 -0.1176 -0.0594  0.2028
 9983SOL    HW130783   0.814   4.452   5.085  2.4202  1.6512  0.6812
 9983SOL    HW230784   0.830   4.351   4.973 -1.3852 -0.3702  1.8097
 9984SOL     OW30785   6.398   1.901   7.845 -0.3138 -0.4888 -0.2532
 9984SOL    HW130786   6.486   1.877   7.873 -0.5109 -1.0332 -0.0899
 9984SOL    HW230787   6.350   1.818   7.841 -0.9927 -0.1356  0.2769
 9985SOL     OW30788   3.418   7.692   4.406  0.3019  0.1516 -0.3827
 9985SOL    HW130789   3.345   7.674   4.466 -0.4730  1.6724 -0.8262
 9985SOL    HW230790   3.407   7.628   4.336  0.4641 -0.8009  0.4340
 9986SOL     OW30791   5.863   1.434   3.273 -0.5871 -0.3008 -0.0670
 9986SOL    HW130792   5.840   1.526   3.274 -1.0650 -0.4196  0.5028
 9986SOL    HW230793   5.868   1.409   3.366  1.2124 -0.4456 -0.1709
 9987SOL     OW30794   5.846   1.541   6.986 -0.5801  0.1039  0.1809
 9987SOL    HW130795   5.820   1.464   7.037 -2.4305 -0.4099 -1.4253
 9987SOL    HW230796   5.908   1.507   6.922 -1.1487 -0.0321 -0.3149
 9988SOL     OW30797   4.781   3.101   7.309 -0.4244  0.2669  0.1856
 9988SOL    HW130798   4.700   3.114   7.357 -0.4469  1.1116 -0.0733
 9988SOL    HW230799   4.769   3.018   7.262 -1.0469  0.2910  0.3048
 9989SOL     OW30800   5.649   6.304   1.096 -0.0272  0.0117 -0.6874
 9989SOL    HW130801   5.741   6.302   1.071 -0.3112 -1.1715 -1.7251
 9989SOL    HW230802   5.627   6.212   1.115 -0.8886  0.3334 -0.0592
 9990SOL     OW30803   2.024   3.344   3.035  0.3785  0.1650 -0.5249
 9990SOL    HW130804   1.931   3.346   3.060  0.1117 -0.5031 -1.3988
 9990SOL    HW230805   2.059   3.268   3.082  0.6871  0.9007  0.4506
 9991SOL     OW30806   0.781   1.968   4.801 -0.5677  1.4208  0.8554
 9991SOL    HW130807   0.863   1.985   4.847  0.2778  0.0895 -0.1193
 9991SOL    HW230808   0.780   1.874   4.787 -1.8995  1.5178  0.1612
 9992SOL     OW30809   2.232   5.526   6.147  0.9691 -0.2065  0.7576
 9992SOL    HW130810   2.146   5.484   6.151  1.9088 -2.1846  1.6619
 9992SOL    HW230811   2.223   5.605   6.199 -0.1982 -0.6231  1.2098
 9993SOL     OW30812   0.425   7.203   1.403  0.5228  0.0063 -0.1489
 9993SOL    HW130813   0.469   7.206   1.488  2.0860 -2.3225 -0.7657
 9993SOL    HW230814   0.492   7.230   1.340 -0.5529  1.4864 -0.7040
 9994SOL     OW30815   0.227   5.288   0.197  0.3765 -0.2905  0.2790
 9994SOL    HW130816   0.194   5.366   0.242  0.2244 -0.3453  0.2634
 9994SOL    HW230817   0.322   5.298   0.198  0.4073 -0.6413  1.2459
 9995SOL     OW30818   6.435   7.518   1.179  0.0741 -0.0698  0.5262
 9995SOL    HW130819   6.386   7.549   1.103 -1.2171 -0.8064  1.0181
 9995SOL    HW230820   6.512   7.475   1.142  0.4717  1.2826 -0.2616
 9996SOL     OW30821   4.500   7.510   7.182 -0.1474 -0.1576 -0.0940
 9996SOL    HW130822   4.448   7.429   7.188 -0.4847  0.1409  1.4406
 9996SOL    HW230823   4.467   7.565   7.253  2.1080  0.1408  0.8066
 9997SOL     OW30824   7.560   7.356   1.833 -0.0944  0.0919  0.5667
 9997SOL    HW130825   7.633   7.295   1.826 -2.0310 -2.5271  1.5715
 9997SOL    HW230826   7.536   7.377   1.743  1.1461  0.0814  0.2229
 9998SOL     OW30827   2.157   0.714   3.342 -0.2789  0.0834  0.5712
 9998SOL    HW130828   2.105   0.684   3.417 -0.5765 -0.4345  0.1714
 9998SOL    HW230829   2.196   0.633   3.307 -2.3196 -0.1370 -1.4647
 9999SOL     OW30830   6.248   0.805   1.336 -0.4759 -0.1550  0.3162
 9999SOL    HW130831   6.210   0.841   1.416 -1.1352  0.0801 -0.0966
 9999SOL    HW230832   6.340   0.792   1.357 -0.2635  1.5417  0.5495
10000SOL     OW30833   4.413   6.837   3.278  0.1054  0.4855 -0.0199
10000SOL    HW130834   4.324   6.873   3.276  1.3247  3.9566 -3.2996
10000SOL    HW230835   4.452   6.873   3.358 -0.5527  1.5354 -0.1508
10001SOL     OW30836   5.054   4.159   1.839  0.3351 -0.1531 -0.1449
10001SOL    HW130837   5.013   4.243   1.862  0.8563  0.5056 -1.5257
10001SOL    HW230838   5.148   4.177   1.843  0.4592 -0.0809 -2.3863
10002SOL     OW30839   3.741   4.781   0.397  0.2538 -0.0868 -0.0181
10002SOL    HW130840   3.668   4.831   0.360  1.0357  1.0214 -0.1421
10002SOL    HW230841   3.749   4.813   0.486  1.1282  0.4511 -0.2764
10003SOL     OW30842   5.599   2.554   6.476  0.0166 -0.4044  0.3766
10003SOL    HW130843   5.666   2.496   6.512 -1.0899 -1.0071  1.5654
10003SOL    HW230844   5.648   2.625   6.435  1.3707 -0.5759  1.6314
10004SOL     OW30845   5.325   0.208   5.010  0.1384  0.4841 -0.2117
10004SOL    HW130846   5.388   0.272   4.977 -1.3615  1.2152 -1.8281
10004SOL    HW230847   5.329   0.136   4.947 -0.8343  0.6655 -0.4856
10005SOL     OW30848   4.427   5.351   5.781 -0.1035  0.5975  0.2792
10005SOL    HW130849   4.453   5.442   5.791  0.8961  0.8204 -3.1021
10005SOL    HW230850   4.353   5.353   5.720  1.7469 -0.8716 -2.2347
10006SOL     OW30851   2.668   5.257   1.715 -0.0785  0.3609  0.8026
10006SOL    HW130852   2.679   5.307   1.635  0.2108 -2.3615 -0.9960
10006SOL    HW230853   2.573   5.249   1.727 -0.1309  0.1620  0.2790
10007SOL     OW30854   6.742   1.214   6.700 -0.6793  0.4162 -0.2866
10007SOL    HW130855   6.655   1.237   6.669 -0.4261  0.1421 -1.2398
10007SOL    HW230856   6.791   1.296   6.696 -0.8421  0.5272  0.0473
10008SOL     OW30857   1.681   6.331   5.117 -0.2905 -0.1794 -0.1701
10008SOL    HW130858   1.754   6.300   5.170 -1.4039 -0.2658  1.3957
10008SOL    HW230859   1.708   6.315   5.027  1.1114 -1.3340  0.4148
10009SOL     OW30860   1.626   0.489   0.335  0.3118  0.0971  0.2793
10009SOL    HW130861   1.696   0.456   0.392 -1.0363 -0.9723  1.3741
10009SOL    HW230862   1.622   0.582   0.353  2.3718  0.4713 -0.8571
10010SOL     OW30863   7.084   7.772   7.547  0.1818 -0.3699 -0.2636
10010SOL    HW130864   7.069   7.863   7.523 -0.2235 -0.7397 -1.4889
10010SOL    HW230865   7.086   7.725   7.463 -1.2754 -1.7275  0.4050
10011SOL     OW30866   6.308   1.443   1.224 -0.1857 -0.5021  0.0240
10011SOL    HW130867   6.391   1.431   1.271 -1.0464 -3.5513  0.9984
10011SOL    HW230868   6.316   1.389   1.146 -0.4646  0.9847 -1.0770
10012SOL     OW30869   6.212   1.774   4.807 -0.7917 -0.3956 -0.1163
10012SOL    HW130870   6.202   1.789   4.713 -0.3878 -0.0310 -0.1029
10012SOL    HW230871   6.273   1.841   4.836  0.4003 -1.5150  0.0900
10013SOL     OW30872   4.415   5.156   4.774 -0.0607 -0.1182 -0.0787
10013SOL    HW130873   4.451   5.198   4.696  0.3336 -1.3675 -0.6031
10013SOL    HW230874   4.490   5.143   4.832  0.0308 -1.0185 -0.3724
10014SOL     OW30875   3.550   5.345   7.634 -0.1070  0.0145 -0.0265
10014SOL    HW130876   3.631   5.305   7.602 -0.9436 -0.8699 -1.1488
10014SOL    HW230877   3.564   5.439   7.624  0.2336 -0.1783 -1.6872
10015SOL     OW30878   6.026   4.716   4.886  0.2521  0.1807 -0.5284
10015SOL    HW130879   5.944   4.766   4.885  0.7143  0.9591 -2.2443
10015SOL    HW230880   6.088   4.772   4.933 -0.4066 -0.8675  1.7420
10016SOL     OW30881   6.522   6.465   5.067 -0.4567  0.1449  0.2135
10016SOL    HW130882   6.518   6.436   4.976  0.4700  0.2822  0.1264
10016SOL    HW230883   6.537   6.559   5.061 -1.4599  0.3391  0.5130
10017SOL     OW30884   5.395   5.449   2.225 -0.5167  0.4811 -0.2384
10017SOL    HW130885   5.326   5.408   2.276  0.6383 -0.7968  0.3522
10017SOL    HW230886   5.383   5.415   2.136  0.1719 -0.8527  0.1552
10018SOL     OW30887   4.446   2.723   7.122  0.5009 -0.2599 -0.0901
10018SOL    HW130888   4.435   2.640   7.075 -1.2013 -0.6962  0.9526
10018SOL    HW230889   4.488   2.698   7.204  2.6758  0.3736 -0.9567
10019SOL     OW30890   0.993   3.471   3.973 -0.0184 -0.3118 -0.0447
10019SOL    HW130891   1.087   3.462   3.959 -0.1437  0.8702 -2.0546
10019SOL    HW230892   0.954   3.411   3.909 -0.6571 -0.2879  0.3154
10020SOL     OW30893   6.254   1.287   0.645 -0.2008 -0.2945 -0.4586
10020SOL    HW130894   6.185   1.285   0.578 -0.4207  0.1814 -0.2499
10020SOL    HW230895   6.326   1.335   0.604  0.2184 -1.2412 -0.8670
10021SOL     OW30896   6.017   2.354   5.115 -0.2646 -0.2663 -0.5369
10021SOL    HW130897   6.063   2.435   5.093 -0.7381 -0.1334 -1.0557
10021SOL    HW230898   5.926   2.381   5.126 -0.1399 -0.3969  1.1870
10022SOL     OW30899   0.611   4.806   0.368 -0.8036  0.5075  0.2226
10022SOL    HW130900   0.647   4.757   0.442 -0.5871  0.3419  0.0117
10022SOL    HW230901   0.681   4.805   0.303 -1.7836 -1.2901 -0.8729
10023SOL     OW30902   3.550   3.094   0.750 -0.1935  0.0927  0.5564
10023SOL    HW130903   3.636   3.135   0.742 -0.3534  0.6118  1.3999
10023SOL    HW230904   3.542   3.073   0.843 -0.4772 -1.0751  0.2775
10024SOL     OW30905   5.975   1.759   1.983  0.1845  0.4272  0.1222
10024SOL    HW130906   6.004   1.760   1.892  1.4924 -1.9646  0.4102
10024SOL    HW230907   6.010   1.840   2.020  1.0989  0.6380 -1.1280
10025SOL     OW30908   3.080   0.111   0.046 -0.3219  0.3581  0.2423
10025SOL    HW130909   3.022   0.130   0.120 -1.1847 -1.3244  0.0272
10025SOL    HW230910   3.128   0.033   0.072 -0.2544  0.0520 -0.7713
10026SOL     OW30911   2.270   0.097   7.481  0.0860 -0.6461 -0.4194
10026SOL    HW130912   2.270   0.102   7.386 -0.8984 -0.3701 -0.4168
10026SOL    HW230913   2.177   0.092   7.505  0.1490  1.6193  0.6292
10027SOL     OW30914   5.613   3.243   3.340 -0.6135  0.0238  0.4467
10027SOL    HW130915   5.670   3.245   3.416 -0.2893  1.8859  0.2013
10027SOL    HW230916   5.616   3.332   3.305 -0.6967 -0.7791 -1.7924
10028SOL     OW30917   4.536   6.850   6.696 -0.7915 -0.1275 -0.0880
10028SOL    HW130918   4.454   6.845   6.647 -0.8184 -1.5864  0.0567
10028SOL    HW230919   4.555   6.760   6.721  1.3039  0.0127 -0.8753
10029SOL     OW30920   7.186   0.864   6.795  0.0299 -0.1819  0.0731
10029SOL    HW130921   7.261   0.821   6.754  1.0128  0.8291  0.7705
10029SOL    HW230922   7.122   0.873   6.724  1.4834  1.0355 -1.1463
10030SOL     OW30923   0.939   0.869   5.338  0.3577 -0.1298 -0.5519
10030SOL    HW130924   0.994   0.887   5.414 -0.1633 -0.4052 -0.1040
10030SOL    HW230925   0.857   0.915   5.355 -0.3781 -1.5289 -0.1503
10031SOL     OW30926   3.276   2.519   1.135 -0.3075 -0.1442  0.0007
10031SOL    HW130927   3.256   2.578   1.062 -2.8715 -0.7664  0.1296
10031SOL    HW230928   3.294   2.578   1.208 -0.8195  0.4901 -0.3673
10032SOL     OW30929   7.231   0.777   5.471  0.5376  0.2381  0.0664
10032SOL    HW130930   7.240   0.832   5.549 -0.6578  1.4223 -0.5772
10032SOL    HW230931   7.319   0.744   5.455  0.9639  0.6390  1.4451
10033SOL     OW30932   2.920   0.206   0.232 -0.3408 -0.4543  0.2233
10033SOL    HW130933   2.843   0.174   0.281 -0.0905 -1.1894  0.1517
10033SOL    HW230934   2.883   0.251   0.156 -0.6939 -1.4225 -0.1878
10034SOL     OW30935   2.119   1.868   5.879  0.1858  0.0052  0.3630
10034SOL    HW130936   2.077   1.941   5.835  0.8790  0.5003  0.5083
10034SOL    HW230937   2.091   1.791   5.830 -2.2299  0.1229  1.4625
10035SOL     OW30938   4.560   5.720   1.628 -0.1941  0.0412  0.6916
10035SOL    HW130939   4.583   5.627   1.619  1.7721  0.5719 -0.5505
10035SOL    HW230940   4.641   5.761   1.659 -0.5113  1.5573 -0.3895
10036SOL     OW30941   2.713   0.352   6.405  0.2295  0.2381  0.5577
10036SOL    HW130942   2.682   0.430   6.451 -1.2998  0.2390 -0.4191
10036SOL    HW230943   2.780   0.384   6.345 -2.7656  1.5469 -2.4355
10037SOL     OW30944   4.284   2.037   1.688 -0.2834 -0.3458 -0.8583
10037SOL    HW130945   4.259   1.945   1.676 -0.6583 -0.3165 -0.2969
10037SOL    HW230946   4.319   2.063   1.602 -0.7236 -0.8414 -1.1969
10038SOL     OW30947   6.728   6.796   0.852 -1.3993 -0.4056  0.2376
10038SOL    HW130948   6.822   6.817   0.852 -1.2167 -0.8230  2.8683
10038SOL    HW230949   6.685   6.881   0.862 -1.2556 -0.3011 -0.0272
10039SOL     OW30950   0.722   4.188   7.401  0.1781  0.1058 -0.0083
10039SOL    HW130951   0.681   4.103   7.414 -1.3158  0.7679 -0.1488
10039SOL    HW230952   0.798   4.188   7.459  0.4794 -1.4842 -0.3611
10040SOL     OW30953   4.975   1.353   7.248  0.1339 -0.2990  0.2399
10040SOL    HW130954   5.035   1.289   7.209 -0.1920 -0.6013  0.2273
10040SOL    HW230955   4.942   1.402   7.173  1.4165  0.8073  0.3632
10041SOL     OW30956   5.138   1.654   5.230  0.0568 -0.6160  0.0655
10041SOL    HW130957   5.223   1.699   5.225  0.7687 -1.9373 -0.3301
10041SOL    HW230958   5.073   1.725   5.230  1.1739  0.6871  3.9679
10042SOL     OW30959   3.075   6.890   5.811 -0.3275  0.1105  0.2828
10042SOL    HW130960   3.079   6.916   5.903 -0.2851 -0.5162  0.4650
10042SOL    HW230961   3.162   6.911   5.777 -0.1918 -0.0799  0.5056
10043SOL     OW30962   7.471   5.784   4.155 -0.3495  0.2815  0.5325
10043SOL    HW130963   7.463   5.703   4.105  0.5267  1.1694 -1.1206
10043SOL    HW230964   7.383   5.821   4.154 -0.5003 -0.0732  0.2953
10044SOL     OW30965   1.639   1.148   7.738  0.5251 -0.2776 -0.0942
10044SOL    HW130966   1.638   1.140   7.643 -0.3815  1.7983 -0.2984
10044SOL    HW230967   1.727   1.176   7.759  0.4183  0.3067 -0.4265
10045SOL     OW30968   6.572   2.176   1.771 -0.3288  0.5243  0.6471
10045SOL    HW130969   6.660   2.141   1.784 -0.2308 -0.6296 -2.3269
10045SOL    HW230970   6.514   2.110   1.809  0.0191 -0.8716 -1.1164
10046SOL     OW30971   3.095   5.773   2.518 -0.4251 -0.5003  0.1028
10046SOL    HW130972   3.111   5.866   2.501 -0.4508 -0.1318  1.8809
10046SOL    HW230973   3.181   5.739   2.542 -0.4483 -0.9066 -0.3884
10047SOL     OW30974   1.046   5.417   2.538  0.0828 -0.2843  0.1226
10047SOL    HW130975   1.033   5.479   2.467 -1.6289  0.1292  0.7385
10047SOL    HW230976   1.126   5.446   2.582 -0.1954  0.9401 -0.1549
10048SOL     OW30977   2.381   6.018   7.381 -0.2249  0.1896  0.2101
10048SOL    HW130978   2.398   6.090   7.320 -0.1316  0.0399  0.0593
10048SOL    HW230979   2.403   5.939   7.331  0.0747  0.0789  0.5169
10049SOL     OW30980   6.282   3.267   0.464  0.0456  0.1352  0.6100
10049SOL    HW130981   6.327   3.324   0.526  0.2024  0.1809  0.4553
10049SOL    HW230982   6.339   3.266   0.387  0.2992 -0.6500  0.8043
10050SOL     OW30983   7.457   1.304   4.202 -0.3237 -0.1686 -0.4272
10050SOL    HW130984   7.514   1.380   4.216 -1.9494  1.2084 -0.9618
10050SOL    HW230985   7.510   1.229   4.228  1.3306  1.1483  0.1527
10051SOL     OW30986   7.264   4.111   5.585 -0.1185 -0.2659  0.2889
10051SOL    HW130987   7.276   4.022   5.617 -1.5838  0.1096  2.0503
10051SOL    HW230988   7.353   4.142   5.566  0.5537 -1.5587  1.2012
10052SOL     OW30989   1.731   5.463   1.333  0.3935  0.5115  0.1935
10052SOL    HW130990   1.804   5.408   1.304  0.3996  0.0739  1.0079
10052SOL    HW230991   1.763   5.505   1.412 -1.3875 -2.4931  2.7620
10053SOL     OW30992   5.681   5.551   6.138  0.6360  0.0729 -0.4293
10053SOL    HW130993   5.687   5.620   6.072 -0.1719 -1.1222 -1.7977
10053SOL    HW230994   5.700   5.470   6.090 -0.8211 -0.9190  0.5955
10054SOL     OW30995   6.549   5.881   0.487 -0.2175 -0.0617 -0.4051
10054SOL    HW130996   6.494   5.902   0.412  0.0923 -0.3570 -0.7221
10054SOL    HW230997   6.576   5.965   0.522 -1.0205  0.0927 -0.1282
10055SOL     OW30998   4.487   6.972   5.767 -0.2304  0.3370 -0.1674
10055SOL    HW130999   4.406   6.961   5.717  0.1301  0.4364 -0.7741
10055SOL    HW231000   4.506   6.884   5.800  0.3618 -0.0633 -1.4997
10056SOL     OW31001   1.960   0.753   6.784 -0.2275  0.0177 -0.6861
10056SOL    HW131002   1.879   0.723   6.744 -0.8404  1.7431 -0.8458
10056SOL    HW231003   1.932   0.822   6.844  1.0214 -0.1799  0.1561
10057SOL     OW31004   7.896   7.831   6.361 -0.7454  0.0864 -0.1457
10057SOL    HW131005   7.931   7.836   6.272  1.5279 -0.1016  0.6727
10057SOL    HW231006   7.904   7.921   6.394 -1.8425  0.2151 -0.2019
10058SOL     OW31007   0.320   5.126   6.666  0.0064 -0.3659 -0.5145
10058SOL    HW131008   0.374   5.203   6.650  2.6845 -2.3150 -1.4660
10058SOL    HW231009   0.283   5.141   6.753 -0.5862  2.4973 -1.1573
10059SOL     OW31010   5.035   5.026   7.234  0.6491 -0.0944  0.2410
10059SOL    HW131011   5.000   5.065   7.154  0.4728 -0.5565  0.0924
10059SOL    HW231012   4.990   4.942   7.242  1.2467 -0.4047  0.3942
10060SOL     OW31013   7.682   0.489   3.789  0.5548 -0.5044  0.8277
10060SOL    HW131014   7.755   0.453   3.738  0.4555 -0.2976  0.5359
10060SOL    HW231015   7.640   0.413   3.828  1.3151 -0.5845  1.5299
10061SOL     OW31016   1.414   5.943   5.429 -0.1805 -0.2239  0.6792
10061SOL    HW131017   1.348   5.997   5.385  1.0138 -0.4234 -1.5151
10061SOL    HW231018   1.490   6.001   5.436  0.2385 -0.7919  0.8233
10062SOL     OW31019   5.998   7.572   1.610  0.2196 -0.1661 -0.1253
10062SOL    HW131020   5.972   7.546   1.699  1.9235  1.8494  1.0499
10062SOL    HW231021   5.964   7.502   1.554  1.8113 -3.2618  2.4036
10063SOL     OW31022   0.563   4.659   5.660 -0.5763  0.4382 -0.3729
10063SOL    HW131023   0.547   4.566   5.642  0.9408  0.1315 -0.2782
10063SOL    HW231024   0.643   4.679   5.612  1.3460  0.6476  2.6644
10064SOL     OW31025   7.867   3.716   3.223  0.1441 -0.4813 -0.5180
10064SOL    HW131026   7.908   3.700   3.308 -1.0951 -0.8445  0.0311
10064SOL    HW231027   7.823   3.634   3.202 -2.8401  0.7601  0.3803
10065SOL     OW31028   0.353   0.629   4.388  0.2144 -0.1379 -0.3100
10065SOL    HW131029   0.351   0.725   4.392  0.7242 -0.1019 -0.8152
10065SOL    HW231030   0.445   0.607   4.397 -0.1046 -0.7126  2.0900
10066SOL     OW31031   5.061   5.350   6.381 -0.4224 -0.8723  0.0837
10066SOL    HW131032   5.136   5.293   6.401  0.5300 -0.0274 -0.9719
10066SOL    HW231033   5.090   5.438   6.404 -1.2045 -0.5636 -0.0730
10067SOL     OW31034   5.496   7.225   6.036  0.1277 -0.5366 -0.3504
10067SOL    HW131035   5.523   7.241   5.946 -0.0803 -0.9167 -0.4841
10067SOL    HW231036   5.508   7.131   6.049 -1.8315 -0.8858 -0.6812
10068SOL     OW31037   3.098   1.576   3.631  0.4914 -0.1954 -0.2062
10068SOL    HW131038   3.191   1.577   3.610  0.2397  0.8343 -1.3867
10068SOL    HW231039   3.059   1.637   3.568 -1.2443 -2.0113 -0.9861
10069SOL     OW31040   4.958   1.230   3.704 -0.3445 -0.4782 -0.1017
10069SOL    HW131041   4.943   1.321   3.730  2.9579  0.2309 -0.2531
10069SOL    HW231042   4.939   1.228   3.611  0.6416  0.3801 -0.3382
10070SOL     OW31043   1.980   5.496   6.930 -0.0576  0.3941  0.0896
10070SOL    HW131044   1.993   5.508   7.024 -0.6282  0.3181  0.1779
10070SOL    HW231045   1.907   5.553   6.908  1.2790  1.8903 -0.6743
10071SOL     OW31046   2.720   0.981   6.373 -0.0558 -0.4280  0.2048
10071SOL    HW131047   2.701   1.069   6.404  0.7939  0.9827 -2.8743
10071SOL    HW231048   2.814   0.969   6.390 -0.0886 -0.5890  0.2750
10072SOL     OW31049   6.921   7.493   0.294 -0.0654  0.4907  0.3476
10072SOL    HW131050   6.833   7.488   0.258 -0.5411  0.7990  1.4399
10072SOL    HW231051   6.926   7.420   0.356  0.9837 -0.4673 -0.8102
10073SOL     OW31052   3.122   2.553   6.699  0.0488 -0.4391 -0.1796
10073SOL    HW131053   3.204   2.602   6.704 -0.2404  0.3337 -2.1933
10073SOL    HW231054   3.149   2.461   6.708  0.6897 -0.0888  2.6718
10074SOL     OW31055   3.829   6.484   4.498 -1.0030 -0.4079  0.6896
10074SOL    HW131056   3.734   6.483   4.498 -1.0128 -0.1095 -0.3312
10074SOL    HW231057   3.855   6.405   4.451 -0.7545 -0.3029  0.6456
10075SOL     OW31058   3.339   6.944   0.037 -0.1049  0.3163  0.1124
10075SOL    HW131059   3.261   6.985   0.075  0.5123 -1.4885  3.7924
10075SOL    HW231060   3.406   6.951   0.106  1.7739 -1.6180 -1.3659
10076SOL     OW31061   7.678   0.809   0.487  0.3211  0.1714  0.4070
10076SOL    HW131062   7.633   0.847   0.411  1.2296  0.1151 -0.1766
10076SOL    HW231063   7.611   0.756   0.531  0.1720 -1.0982 -1.2571
10077SOL     OW31064   0.924   4.057   7.900 -0.2754  0.3974  0.6839
10077SOL    HW131065   0.830   4.051   7.915 -0.5822  0.2834 -1.0559
10077SOL    HW231066   0.941   3.995   7.829  1.1889  0.1330  1.2332
10078SOL     OW31067   5.331   1.470   3.377  0.0354 -0.5802  0.0891
10078SOL    HW131068   5.369   1.555   3.397  0.6496 -0.3544 -1.8398
10078SOL    HW231069   5.284   1.445   3.456  1.1246  0.8421  1.2273
10079SOL     OW31070   4.325   2.967   4.982  1.1972 -0.8413 -0.2061
10079SOL    HW131071   4.416   2.993   4.971  0.1509  3.3504 -0.7627
10079SOL    HW231072   4.293   2.954   4.892  1.1777 -2.1353 -0.0222
10080SOL     OW31073   5.461   4.907   2.343  0.3365  0.4370  0.4680
10080SOL    HW131074   5.449   4.814   2.365 -0.7538  1.0857  2.9681
10080SOL    HW231075   5.555   4.918   2.336  0.6453 -0.3793  2.6972
10081SOL     OW31076   5.692   6.772   4.418  0.1257  0.1661 -0.1653
10081SOL    HW131077   5.690   6.721   4.336 -1.0600 -0.6540  0.3478
10081SOL    HW231078   5.632   6.844   4.403  0.2928  0.2998 -0.1927
10082SOL     OW31079   3.424   5.175   3.468 -0.4209 -0.1045  0.6409
10082SOL    HW131080   3.376   5.092   3.465 -0.5744 -0.0662  1.8523
10082SOL    HW231081   3.379   5.227   3.535  0.1253  0.6843  0.4105
10083SOL     OW31082   5.650   7.205   4.548 -0.0845  0.0893 -0.4222
10083SOL    HW131083   5.564   7.165   4.562  0.5045 -0.8072  0.7899
10083SOL    HW231084   5.632   7.282   4.494 -1.6489 -0.0694 -0.1675
10084SOL     OW31085   5.672   2.595   6.954 -0.0384  0.2485  0.2977
10084SOL    HW131086   5.679   2.677   6.905  1.2670  0.0989  0.2035
10084SOL    HW231087   5.634   2.620   7.038  1.3781  1.1464  0.7028
10085SOL     OW31088   0.566   0.946   5.766 -0.3969 -0.2893  0.0652
10085SOL    HW131089   0.636   0.949   5.701 -0.2682  1.7945  0.2234
10085SOL    HW231090   0.501   1.010   5.735 -0.4019  0.6682  1.8620
10086SOL     OW31091   3.047   7.063   6.288 -0.2822  0.1257  0.3592
10086SOL    HW131092   2.958   7.095   6.282 -0.0107  0.9525  0.6699
10086SOL    HW231093   3.090   7.120   6.351  1.4658  2.1508 -2.3831
10087SOL     OW31094   1.730   6.624   4.671 -0.2624 -0.0622 -0.2253
10087SOL    HW131095   1.712   6.697   4.731  1.7242 -0.7501  1.3147
10087SOL    HW231096   1.785   6.565   4.721  0.1368 -1.4918 -2.2310
10088SOL     OW31097   0.695   1.475   4.182  0.2330 -0.6403  0.7800
10088SOL    HW131098   0.716   1.447   4.271  0.0530  3.3065  2.2890
10088SOL    HW231099   0.776   1.462   4.133  0.6859 -1.8628  1.7833
10089SOL     OW31100   6.231   3.668   3.788 -0.2379  0.2529  0.2591
10089SOL    HW131101   6.145   3.707   3.804 -0.4464  0.6242 -1.5477
10089SOL    HW231102   6.233   3.652   3.693  1.4284 -0.3570  0.3646
10090SOL     OW31103   3.093   3.808   5.656  0.4842 -0.3419  0.8514
10090SOL    HW131104   3.097   3.784   5.564  0.2888 -0.4808  0.8784
10090SOL    HW231105   3.023   3.873   5.661  0.9603  0.1873  0.7899
10091SOL     OW31106   6.633   6.130   0.602 -0.0087  0.2390 -0.1229
10091SOL    HW131107   6.607   6.185   0.675  2.0566  2.1735 -0.7255
10091SOL    HW231108   6.728   6.121   0.611  0.3996  0.9281 -2.7485
10092SOL     OW31109   5.155   0.438   2.198 -0.1395 -0.0737  0.3060
10092SOL    HW131110   5.216   0.375   2.160 -1.1439 -0.2820 -1.0381
10092SOL    HW231111   5.198   0.523   2.187 -0.0951 -0.2103 -0.6663
10093SOL     OW31112   3.838   6.599   3.757 -0.3065 -0.4649  0.2174
10093SOL    HW131113   3.817   6.682   3.800 -1.5433 -1.3149  1.3050
10093SOL    HW231114   3.814   6.613   3.665 -0.9203  0.2408  0.4798
10094SOL     OW31115   3.780   3.417   7.546  0.2758 -0.4100 -0.0554
10094SOL    HW131116   3.799   3.499   7.592 -0.7218  0.2148 -0.7241
10094SOL    HW231117   3.843   3.355   7.583 -0.8373 -0.1128  2.5887
10095SOL     OW31118   2.237   5.980   5.747  0.3016 -0.4166  0.2534
10095SOL    HW131119   2.144   5.998   5.740  0.6426  1.4574 -0.0938
10095SOL    HW231120   2.244   5.914   5.816 -1.2423 -0.3076  0.5392
10096SOL     OW31121   5.075   6.557   3.038  0.2130  0.0314  0.3134
10096SOL    HW131122   5.071   6.575   2.945 -0.7452 -0.7329  0.1867
10096SOL    HW231123   5.063   6.462   3.045  0.1967  0.0881  1.2106
10097SOL     OW31124   0.128   1.432   4.742  0.7396 -0.0962  0.3955
10097SOL    HW131125   0.047   1.415   4.790  1.0470 -1.6010  0.4214
10097SOL    HW231126   0.170   1.504   4.789 -0.9970  1.3520 -0.1500
10098SOL     OW31127   4.131   3.032   6.606 -0.0578 -0.2473  0.2737
10098SOL    HW131128   4.152   2.958   6.550 -0.8509  0.1580 -0.5911
10098SOL    HW231129   4.151   3.002   6.695 -0.0086 -1.3571 -0.1025
10099SOL     OW31130   3.431   1.345   7.915  0.3545  0.1391  0.0303
10099SOL    HW131131   3.392   1.424   7.953  0.1790 -0.7524  1.7598
10099SOL    HW231132   3.423   1.359   7.820 -1.3368  1.3830  0.3045
10100SOL     OW31133   5.032   5.179   1.247 -0.3579  0.3254  0.2612
10100SOL    HW131134   5.045   5.164   1.153  0.2067  1.8194  0.0631
10100SOL    HW231135   4.938   5.194   1.256 -0.5711 -0.8298  0.1103
10101SOL     OW31136   5.678   6.897   4.777  0.2061 -0.4169  0.0771
10101SOL    HW131137   5.773   6.891   4.792  0.1602 -0.0123  0.5484
10101SOL    HW231138   5.646   6.954   4.847 -0.0708  1.3441 -1.3999
10102SOL     OW31139   1.710   7.567   5.716 -0.6647  0.1570  0.2621
10102SOL    HW131140   1.760   7.561   5.797 -0.0687  0.7903 -0.0446
10102SOL    HW231141   1.757   7.632   5.664 -0.4145 -1.0131 -1.0342
10103SOL     OW31142   6.932   5.583   4.706  0.4674  0.4886  0.5341
10103SOL    HW131143   6.952   5.675   4.724 -0.6698  0.6631  0.9993
10103SOL    HW231144   6.888   5.552   4.785 -1.3702  0.2441 -0.5322
10104SOL     OW31145   7.323   5.251   7.368  0.3932  0.5642  0.0623
10104SOL    HW131146   7.249   5.270   7.311  0.8182  0.2485 -0.5978
10104SOL    HW231147   7.346   5.336   7.408 -0.0386  0.7408 -0.0655
10105SOL     OW31148   7.451   4.877   7.310  0.7297 -0.0807 -0.6032
10105SOL    HW131149   7.471   4.963   7.346  1.1402 -0.4277  0.0235
10105SOL    HW231150   7.496   4.876   7.225 -1.9888  1.5327 -2.1914
10106SOL     OW31151   6.975   4.288   7.646  0.8623  0.6633 -0.6551
10106SOL    HW131152   7.021   4.240   7.714 -0.1767 -0.8408 -0.9578
10106SOL    HW231153   6.921   4.352   7.693  1.4451  0.8059 -0.1768
10107SOL     OW31154   3.287   6.153   7.199  0.2315  0.1619 -0.3950
10107SOL    HW131155   3.309   6.187   7.112  1.6264  1.8086  0.5181
10107SOL    HW231156   3.343   6.077   7.210 -0.9344 -0.8838 -1.4247
10108SOL     OW31157   3.835   3.457   7.836 -0.0881  0.6417  0.2400
10108SOL    HW131158   3.926   3.457   7.809  0.4271  0.6984  1.8595
10108SOL    HW231159   3.831   3.396   7.910 -1.9605 -1.6126 -1.5600
10109SOL     OW31160   3.713   7.024   3.326 -0.4240  0.3956 -0.2016
10109SOL    HW131161   3.642   6.971   3.361 -1.2244  0.4069 -1.7380
10109SOL    HW231162   3.670   7.089   3.270  0.4955  2.7846  1.6580
10110SOL     OW31163   3.694   4.420   6.599  0.1074  0.0916 -0.2676
10110SOL    HW131164   3.726   4.340   6.639  0.0238  0.7232  1.1001
10110SOL    HW231165   3.743   4.427   6.517  0.6155 -0.9869 -0.0703
10111SOL     OW31166   4.449   6.713   4.272 -0.0845 -0.4617 -0.5298
10111SOL    HW131167   4.364   6.669   4.267  0.0235 -0.4967 -2.9139
10111SOL    HW231168   4.429   6.806   4.261 -0.0480 -0.0938  1.9221
10112SOL     OW31169   5.161   3.263   5.736 -0.3749 -0.0238  0.2991
10112SOL    HW131170   5.244   3.243   5.778 -0.9331  0.8490  1.9189
10112SOL    HW231171   5.123   3.333   5.789 -0.7823  1.7599 -2.1575
10113SOL     OW31172   7.768   7.578   2.675 -0.1953  0.4881 -0.3791
10113SOL    HW131173   7.854   7.581   2.632 -0.0916 -0.9971 -0.3243
10113SOL    HW231174   7.742   7.486   2.671 -0.2318  0.2682  2.5747
10114SOL     OW31175   7.512   2.642   1.236  0.3054  0.1698 -0.8264
10114SOL    HW131176   7.491   2.714   1.297  0.7211  0.0776 -0.5756
10114SOL    HW231177   7.516   2.564   1.291  2.8257  0.3996 -0.6018
10115SOL     OW31178   1.154   7.041   7.058  0.6071  0.3215 -0.0412
10115SOL    HW131179   1.127   6.955   7.024  0.4215  0.3423  0.0547
10115SOL    HW231180   1.187   7.023   7.146  0.2687  0.3942  0.1019
10116SOL     OW31181   0.204   0.512   5.783 -0.2049 -0.4127 -0.1682
10116SOL    HW131182   0.158   0.538   5.704 -0.9786  0.4909  0.5505
10116SOL    HW231183   0.139   0.520   5.853  1.5255  3.3275  1.3227
10117SOL     OW31184   0.123   7.939   4.089 -0.2147  0.2023  0.1148
10117SOL    HW131185   0.133   7.921   3.995  1.6237  0.9356  0.1341
10117SOL    HW231186   0.206   7.911   4.127 -1.4158 -1.3268  1.7730
10118SOL     OW31187   1.174   2.370   3.211 -0.1371 -0.1656 -0.4319
10118SOL    HW131188   1.112   2.299   3.197 -2.2548  0.6128  3.4445
10118SOL    HW231189   1.234   2.336   3.277  0.2584  0.8449 -0.2554
10119SOL     OW31190   0.962   1.048   2.296 -0.0774  0.2342  0.1282
10119SOL    HW131191   1.017   1.047   2.218 -0.2933  0.7216 -0.0387
10119SOL    HW231192   0.877   1.079   2.265 -0.6048 -0.9917  0.2882
10120SOL     OW31193   1.998   2.850   5.978 -0.6961  0.2522 -0.7100
10120SOL    HW131194   2.036   2.809   6.056 -1.2417  1.6381  0.3450
10120SOL    HW231195   2.070   2.855   5.915 -0.2794 -1.0274 -0.3598
10121SOL     OW31196   3.338   3.994   1.647 -0.5871 -0.1678  0.3338
10121SOL    HW131197   3.332   3.914   1.594 -2.2054 -0.8085  1.4202
10121SOL    HW231198   3.253   4.036   1.638 -0.0136  1.0445  0.4021
10122SOL     OW31199   5.476   4.163   1.095  0.1809 -0.1826  0.2810
10122SOL    HW131200   5.544   4.106   1.130  0.7359  0.6691  0.6419
10122SOL    HW231201   5.491   4.247   1.140 -1.5185 -0.1633  0.8552
10123SOL     OW31202   4.754   0.194   4.834  0.0051 -0.5761 -0.0655
10123SOL    HW131203   4.703   0.113   4.841  0.3746 -1.0069 -1.8484
10123SOL    HW231204   4.712   0.254   4.895 -1.5009 -1.5011 -0.1386
10124SOL     OW31205   7.593   4.368   4.815 -0.0174 -0.4543  0.0637
10124SOL    HW131206   7.544   4.286   4.812  1.2171 -1.1940 -1.5101
10124SOL    HW231207   7.665   4.355   4.754  0.0493  1.9201 -0.4698
10125SOL     OW31208   4.525   3.923   1.882  0.0619  0.0747 -0.1567
10125SOL    HW131209   4.576   3.963   1.812  0.3152  1.1985  0.6324
10125SOL    HW231210   4.587   3.865   1.926  1.5889  3.2701  2.3589
10126SOL     OW31211   5.159   3.239   3.524  0.8469 -0.3363 -0.4595
10126SOL    HW131212   5.116   3.265   3.606  1.3664 -0.7980 -0.0282
10126SOL    HW231213   5.237   3.294   3.519  1.2969 -0.9282 -0.1697
10127SOL     OW31214   4.506   4.757   6.675  0.2155  0.2695 -1.0467
10127SOL    HW131215   4.447   4.750   6.600  1.2660 -0.0852 -1.8624
10127SOL    HW231216   4.552   4.673   6.677  1.8696  1.1247 -1.4542
10128SOL     OW31217   4.252   6.423   0.671 -0.0387  0.4638 -0.0489
10128SOL    HW131218   4.228   6.426   0.764  1.2965  1.0091  0.3041
10128SOL    HW231219   4.237   6.332   0.646  2.5501 -0.5521  1.6053
10129SOL     OW31220   1.166   0.309   0.793  0.4152  0.2043  0.5039
10129SOL    HW131221   1.243   0.277   0.745  2.2024  2.1608  1.8995
10129SOL    HW231222   1.118   0.362   0.728  0.9819  0.0852 -0.0252
10130SOL     OW31223   6.678   7.888   1.259 -0.3230  0.8980 -0.1991
10130SOL    HW131224   6.774   7.891   1.253  0.0140 -0.2283  2.6662
10130SOL    HW231225   6.659   7.796   1.278 -1.8999  1.2835  0.1884
10131SOL     OW31226   1.541   3.045   0.525  0.2247  0.0580 -0.4504
10131SOL    HW131227   1.488   3.086   0.594 -2.2025 -1.5578 -1.2082
10131SOL    HW231228   1.598   2.984   0.571  0.4830  0.8665  0.3146
10132SOL     OW31229   2.596   0.096   1.093 -0.3536  0.7715 -0.5266
10132SOL    HW131230   2.527   0.130   1.035 -1.4491  0.7050  0.6891
10132SOL    HW231231   2.632   0.174   1.135 -1.8489  0.6193  1.1491
10133SOL     OW31232   0.218   7.778   4.802 -0.2457 -0.1020 -0.0865
10133SOL    HW131233   0.271   7.700   4.787 -0.2128 -0.3991  1.4325
10133SOL    HW231234   0.280   7.844   4.831 -0.5160 -0.0622  0.4156
10134SOL     OW31235   4.122   6.697   2.552  0.4888  0.1435  0.5864
10134SOL    HW131236   4.061   6.710   2.625  0.2302 -0.1723  0.4292
10134SOL    HW231237   4.169   6.780   2.545  0.8384  0.0215  1.4026
10135SOL     OW31238   5.282   0.334   2.511 -0.4306 -0.3870  0.1523
10135SOL    HW131239   5.324   0.405   2.462  1.3180 -2.5179 -1.6828
10135SOL    HW231240   5.190   0.360   2.517 -0.4512  0.7299 -3.0464
10136SOL     OW31241   5.267   1.709   1.566 -0.1786 -0.5843 -0.0169
10136SOL    HW131242   5.185   1.750   1.595  0.4484  0.9891 -0.4102
10136SOL    HW231243   5.256   1.699   1.472 -0.9254 -2.7804  0.2376
10137SOL     OW31244   0.096   4.227   1.963 -0.4900  0.6662  0.2285
10137SOL    HW131245   0.110   4.150   2.017  2.4449  0.5149 -0.5666
10137SOL    HW231246   0.090   4.300   2.025 -0.0145  0.1688  0.8668
10138SOL     OW31247   1.211   5.864   4.832  0.1630 -0.0226 -0.0801
10138SOL    HW131248   1.119   5.874   4.857  0.1430 -0.8496  0.1987
10138SOL    HW231249   1.260   5.883   4.913  0.2294  0.2517 -0.1848
10139SOL     OW31250   2.123   5.564   4.338  0.2187 -0.6489 -0.1144
10139SOL    HW131251   2.072   5.582   4.417 -0.8971  0.4107 -1.0383
10139SOL    HW231252   2.148   5.650   4.305  0.2992 -1.0518 -1.1444
10140SOL     OW31253   3.661   7.123   4.211  0.1322  0.1747 -0.3456
10140SOL    HW131254   3.719   7.156   4.143  0.5432  2.4105  0.9953
10140SOL    HW231255   3.718   7.079   4.273 -0.3364 -2.6459 -1.7631
10141SOL     OW31256   3.021   1.621   4.124  0.4060  0.8171  0.0855
10141SOL    HW131257   2.958   1.646   4.192  0.3981  1.4880 -0.1667
10141SOL    HW231258   3.095   1.680   4.136  0.3862  0.9667 -0.5179
10142SOL     OW31259   1.583   6.870   2.002 -0.8589  0.1832  0.3202
10142SOL    HW131260   1.654   6.898   1.944  0.0065  1.1117  1.7657
10142SOL    HW231261   1.564   6.947   2.056 -2.1058 -0.4441  0.8214
10143SOL     OW31262   4.490   1.742   1.544 -0.0172  0.0642  0.0154
10143SOL    HW131263   4.524   1.759   1.632  0.6182 -2.8675  0.4332
10143SOL    HW231264   4.410   1.692   1.559 -0.2702  0.1205 -1.0844
10144SOL     OW31265   6.867   5.980   2.487 -0.4211  0.6488 -0.2557
10144SOL    HW131266   6.911   5.927   2.419 -2.0895 -3.4498  1.5164
10144SOL    HW231267   6.925   5.974   2.563 -0.6516  1.4039 -0.0115
10145SOL     OW31268   6.551   1.417   1.362 -0.3329  0.1931  0.1275
10145SOL    HW131269   6.643   1.410   1.387 -0.3568 -0.4941  0.0474
10145SOL    HW231270   6.515   1.484   1.421  0.3757  0.9780 -0.3194
10146SOL     OW31271   4.653   6.742   3.065  0.2269 -0.1618  0.2326
10146SOL    HW131272   4.642   6.835   3.083  0.9288 -0.5276  3.1043
10146SOL    HW231273   4.688   6.738   2.976 -0.2210  2.2681 -0.1068
10147SOL     OW31274   0.175   4.231   4.368 -0.5428 -0.0719  0.1413
10147SOL    HW131275   0.138   4.250   4.454 -0.2232  0.0357  0.2577
10147SOL    HW231276   0.251   4.176   4.386  0.0294  0.6567 -0.0079
10148SOL     OW31277   3.073   5.009   7.280  0.2341  0.4836  0.6217
10148SOL    HW131278   3.089   5.036   7.371  1.0977  0.4980  0.4713
10148SOL    HW231279   3.065   5.091   7.232 -1.4576  0.4935  0.8758
10149SOL     OW31280   3.947   7.445   7.639  0.4811 -0.1752 -0.1844
10149SOL    HW131281   3.960   7.457   7.545  1.3237  1.2508  0.0712
10149SOL    HW231282   4.018   7.387   7.666  1.3574  0.8830 -0.1543
10150SOL     OW31283   0.214   6.476   2.098  0.1616 -0.0050  0.0795
10150SOL    HW131284   0.293   6.471   2.152  1.3290 -1.2248 -1.6164
10150SOL    HW231285   0.241   6.522   2.018 -1.7042  2.4322  0.7160
10151SOL     OW31286   3.000   7.049   7.145  0.1562 -0.4334  0.2857
10151SOL    HW131287   3.004   7.094   7.060 -0.7791  1.0582  0.9991
10151SOL    HW231288   3.058   7.100   7.201 -0.4955 -0.4437  0.9751
10152SOL     OW31289   0.456   5.976   7.020  0.0651  0.0382  0.1840
10152SOL    HW131290   0.529   6.031   6.991 -0.4878  0.0595 -1.2713
10152SOL    HW231291   0.379   6.030   7.006 -0.3499 -0.5101  0.3220
10153SOL     OW31292   5.100   1.808   3.527  0.1271 -0.4271 -0.3062
10153SOL    HW131293   5.127   1.719   3.550 -0.0535 -0.5988 -0.7488
10153SOL    HW231294   5.056   1.840   3.605 -0.3316 -0.9425 -0.3437
10154SOL     OW31295   4.085   5.748   0.412  0.2820  0.2185  0.4297
10154SOL    HW131296   4.041   5.783   0.334 -0.5268  1.1752  1.3016
10154SOL    HW231297   4.129   5.669   0.380  1.5283  1.5776 -1.4347
10155SOL     OW31298   5.507   6.581   1.043  0.2798  0.0856  0.2109
10155SOL    HW131299   5.550   6.497   1.058 -1.1929 -0.4631  1.6392
10155SOL    HW231300   5.424   6.558   1.000 -0.2522  0.7738  0.8476
10156SOL     OW31301   3.063   7.070   1.971  0.3395  0.2086 -0.0870
10156SOL    HW131302   3.054   6.983   2.011  2.0971  0.3552  0.6814
10156SOL    HW231303   2.981   7.114   1.993  0.1369 -0.6589  1.0179
10157SOL     OW31304   2.419   0.998   5.353  0.2730  0.3614  0.4432
10157SOL    HW131305   2.453   0.947   5.426 -1.9088 -2.2939 -0.2622
10157SOL    HW231306   2.409   0.935   5.282  0.4320  2.4581 -1.5733
10158SOL     OW31307   3.483   6.719   3.709  0.2718  0.0940 -0.0827
10158SOL    HW131308   3.493   6.623   3.711 -1.1734 -0.0739  0.3149
10158SOL    HW231309   3.541   6.750   3.779  0.7227 -0.4852 -0.1867
10159SOL     OW31310   0.902   6.146   6.369 -0.0190  0.0538 -0.3888
10159SOL    HW131311   0.824   6.151   6.313  0.0879  0.5856 -0.4962
10159SOL    HW231312   0.867   6.149   6.459 -0.0708  1.5077 -0.4302
10160SOL     OW31313   4.271   7.234   7.931 -0.2717  0.0302 -0.3913
10160SOL    HW131314   4.270   7.309   7.990 -0.6436 -0.6089  0.4410
10160SOL    HW231315   4.181   7.200   7.933  0.1834 -1.2182  0.2894
10161SOL     OW31316   3.271   0.416   1.124  0.3354  0.3886 -0.5836
10161SOL    HW131317   3.303   0.441   1.211 -0.5453  0.5452 -0.2992
10161SOL    HW231318   3.253   0.323   1.131  0.0981  0.4377 -0.5502
10162SOL     OW31319   3.618   5.733   7.875  0.5196 -0.3941 -0.6815
10162SOL    HW131320   3.691   5.701   7.927  1.6981 -0.1443 -2.1207
10162SOL    HW231321   3.636   5.704   7.786 -0.6287  0.5133 -1.2511
10163SOL     OW31322   3.517   4.378   1.479 -0.4528  0.7358  0.1845
10163SOL    HW131323   3.437   4.424   1.506  0.2582  1.6780  0.7566
10163SOL    HW231324   3.530   4.312   1.547 -0.7297  0.6084  0.1138
10164SOL     OW31325   3.899   4.333   2.477 -0.4478  0.0781 -0.3666
10164SOL    HW131326   3.887   4.239   2.488  1.7578 -0.2351 -0.2569
10164SOL    HW231327   3.846   4.373   2.546  0.5642 -1.1904  1.1927
10165SOL     OW31328   4.471   3.595   1.399  0.1799  0.1631  0.0916
10165SOL    HW131329   4.414   3.559   1.467  1.0019 -1.1091  0.1477
10165SOL    HW231330   4.519   3.519   1.366  1.5742  1.1522 -0.2093
10166SOL     OW31331   1.952   2.525   7.773 -0.0309 -0.3562 -0.6537
10166SOL    HW131332   1.960   2.567   7.858  1.4248 -0.7036 -0.5961
10166SOL    HW231333   1.916   2.593   7.716 -0.5017  0.0450  0.0981
10167SOL     OW31334   1.620   7.792   7.617 -0.2933  0.1622  0.8600
10167SOL    HW131335   1.656   7.736   7.686  0.9195 -0.9044 -0.5631
10167SOL    HW231336   1.556   7.847   7.662  0.8735 -0.0614  2.9315
10168SOL     OW31337   7.362   6.395   3.179 -0.2564 -0.0849 -0.0397
10168SOL    HW131338   7.388   6.303   3.190  0.6524  0.4842  4.5038
10168SOL    HW231339   7.442   6.444   3.200 -1.0113  1.8219 -1.3656
10169SOL     OW31340   6.283   7.784   1.387  0.4284  0.3918 -0.2008
10169SOL    HW131341   6.334   7.865   1.390 -0.7885  1.1422  1.4936
10169SOL    HW231342   6.253   7.778   1.296  1.0992  1.4531 -0.5116
10170SOL     OW31343   4.723   2.502   4.736  0.0487  0.3473  0.8969
10170SOL    HW131344   4.686   2.505   4.648  1.3912 -0.8089  0.2446
10170SOL    HW231345   4.756   2.591   4.751  1.4527  0.1314 -0.5665
10171SOL     OW31346   2.905   5.266   3.322 -0.1524  0.1744  0.6480
10171SOL    HW131347   2.969   5.333   3.344 -0.7672  0.6630  0.9700
10171SOL    HW231348   2.950   5.209   3.259  0.6197  0.4607  0.9297
10172SOL     OW31349   4.230   7.623   5.575 -0.0751 -0.2850 -0.0840
10172SOL    HW131350   4.158   7.577   5.532 -0.1968 -0.1673 -0.0059
10172SOL    HW231351   4.306   7.607   5.519  0.2404 -1.8804  0.7060
10173SOL     OW31352   4.421   2.992   3.650 -0.5312  0.4179  0.3905
10173SOL    HW131353   4.369   2.976   3.729 -0.3574  0.1002  0.4427
10173SOL    HW231354   4.508   2.958   3.671  0.1821  2.4270  0.9104
10174SOL     OW31355   4.768   5.678   4.998  0.4360 -0.0415  0.4933
10174SOL    HW131356   4.857   5.715   4.996  0.6645 -0.4825 -2.9379
10174SOL    HW231357   4.711   5.754   5.006  1.0665  0.6302 -0.9914
10175SOL     OW31358   5.147   1.605   0.241 -0.1311  0.0982 -0.3384
10175SOL    HW131359   5.197   1.662   0.299 -0.7835  0.1229  0.2151
10175SOL    HW231360   5.080   1.565   0.298 -0.2514 -0.5266 -0.8969
10176SOL     OW31361   5.637   5.473   2.326  0.2974  0.1296 -0.6255
10176SOL    HW131362   5.551   5.445   2.295 -0.2540 -0.0326  0.9808
10176SOL    HW231363   5.623   5.497   2.417  2.6244 -3.5058  0.9312
10177SOL     OW31364   0.828   0.125   5.649  0.5559  0.7437 -0.1525
10177SOL    HW131365   0.869   0.128   5.736 -0.3903 -0.0124  0.3342
10177SOL    HW231366   0.753   0.066   5.660 -0.7840  2.2348 -0.9828
10178SOL     OW31367   4.982   5.211   0.394 -0.2484 -0.1229  0.0637
10178SOL    HW131368   4.968   5.278   0.461  0.0087 -0.5874  0.5881
10178SOL    HW231369   5.041   5.253   0.331  0.6364 -0.1464  0.8492
10179SOL     OW31370   3.083   6.051   7.369 -0.3602  0.0299 -0.1443
10179SOL    HW131371   3.135   6.080   7.294  1.0544  2.3116  1.5784
10179SOL    HW231372   2.992   6.064   7.342  0.1433  2.8242 -0.8334
10180SOL     OW31373   2.818   2.046   4.223  0.0028  0.2088  0.2650
10180SOL    HW131374   2.733   2.072   4.186 -0.6903  1.0909  2.3012
10180SOL    HW231375   2.861   1.997   4.153 -1.0037  2.1306 -1.8368
10181SOL     OW31376   4.929   1.549   1.655 -0.3653 -0.3516 -1.0150
10181SOL    HW131377   4.899   1.476   1.709  0.3137 -0.6317 -1.0139
10181SOL    HW231378   4.903   1.627   1.704  3.8824 -0.4772  1.9633
10182SOL     OW31379   6.219   2.785   1.409 -0.3186 -0.2770 -0.2337
10182SOL    HW131380   6.255   2.732   1.480  0.0800 -0.8451 -0.8511
10182SOL    HW231381   6.294   2.806   1.353 -0.6701 -0.0540 -0.6335
10183SOL     OW31382   4.269   0.713   6.588  0.7382 -0.1137  0.1195
10183SOL    HW131383   4.260   0.783   6.653  0.4233  0.2965 -0.3586
10183SOL    HW231384   4.363   0.711   6.568  0.6103  0.9611 -0.7096
10184SOL     OW31385   1.747   2.587   5.024  0.2030 -0.0786  0.0298
10184SOL    HW131386   1.695   2.660   4.990  2.2973  0.9447 -1.1615
10184SOL    HW231387   1.769   2.536   4.947 -1.2663 -2.0855  0.8530
10185SOL     OW31388   5.035   2.297   0.333 -0.1701 -0.3957  0.3615
10185SOL    HW131389   4.983   2.219   0.318  0.2221 -0.5008 -0.4959
10185SOL    HW231390   5.029   2.312   0.428 -1.2921 -0.7192  0.3535
10186SOL     OW31391   7.376   1.103   5.901  0.2941  0.4146  0.1538
10186SOL    HW131392   7.309   1.083   5.966  0.9152  0.0032  0.6768
10186SOL    HW231393   7.430   1.172   5.941  0.9548 -0.1635  0.2731
10187SOL     OW31394   4.237   7.465   1.951 -0.9373 -0.0485 -0.3962
10187SOL    HW131395   4.240   7.462   1.855  1.8542  0.3133 -0.4179
10187SOL    HW231396   4.328   7.455   1.978 -1.8371 -2.3542  2.3579
10188SOL     OW31397   3.994   0.036   2.009  0.4707 -0.1349 -0.0951
10188SOL    HW131398   4.060  -0.018   1.965  0.1547 -1.1084  0.5754
10188SOL    HW231399   4.021   0.126   1.993  1.8309 -0.5186 -0.0185
10189SOL     OW31400   0.410   7.533   0.476 -0.3512  0.5437 -0.0109
10189SOL    HW131401   0.482   7.493   0.427 -0.5700 -0.6081  0.5795
10189SOL    HW231402   0.448   7.611   0.515  0.8666 -0.5582  1.0924
10190SOL     OW31403   2.119   6.650   6.798  0.2198  0.4038 -0.3844
10190SOL    HW131404   2.130   6.555   6.787  3.3779  0.5315  0.6302
10190SOL    HW231405   2.162   6.669   6.881 -1.2040  2.6364 -0.1020
10191SOL     OW31406   4.406   2.178   4.881  0.6208  0.0110  0.0138
10191SOL    HW131407   4.430   2.265   4.850 -0.2750  0.4901  0.6048
10191SOL    HW231408   4.486   2.127   4.876  1.2846  1.0130  0.1479
10192SOL     OW31409   7.854   4.068   5.862 -0.0729  0.3948 -0.2397
10192SOL    HW131410   7.774   4.035   5.821 -0.3366  0.9170 -0.1490
10192SOL    HW231411   7.826   4.143   5.914  0.6733  1.4387 -1.2859
10193SOL     OW31412   3.816   7.162   4.941 -0.1209  0.1623  0.2375
10193SOL    HW131413   3.880   7.093   4.925  1.2464  0.8689  2.2259
10193SOL    HW231414   3.739   7.115   4.974  0.7556 -0.4820  1.4630
10194SOL     OW31415   3.962   6.296   7.483  0.5505 -0.2158  0.3031
10194SOL    HW131416   4.054   6.297   7.457  0.6339  1.5364  0.5263
10194SOL    HW231417   3.919   6.358   7.424 -0.6678 -1.5589 -0.2957
10195SOL     OW31418   0.617   5.746   7.619  0.2072  0.0435 -0.4433
10195SOL    HW131419   0.604   5.664   7.573  0.3418 -0.7441  0.8729
10195SOL    HW231420   0.530   5.785   7.626  0.4182  1.1263 -2.9959
10196SOL     OW31421   5.632   2.507   2.207  0.2180  0.3560  0.1556
10196SOL    HW131422   5.697   2.440   2.230 -0.5027  0.0239  1.3008
10196SOL    HW231423   5.677   2.590   2.222  1.0598  0.1640 -1.0963
10197SOL     OW31424   6.920   6.596   2.833 -0.1551  0.2044  0.0612
10197SOL    HW131425   6.960   6.512   2.811  0.5984  0.5791 -0.0349
10197SOL    HW231426   6.992   6.648   2.870 -0.5721  0.8612 -0.0352
10198SOL     OW31427   7.560   1.731   2.967  1.2733  0.1052 -0.0906
10198SOL    HW131428   7.527   1.725   2.878  2.1165 -2.5652 -0.3034
10198SOL    HW231429   7.590   1.821   2.976 -2.5673  1.6774 -1.0542
10199SOL     OW31430   0.236   1.762   1.014  0.0030  0.1698  0.2617
10199SOL    HW131431   0.188   1.679   1.010 -0.0953  0.2707 -1.0645
10199SOL    HW231432   0.326   1.738   0.992  0.4039  0.1273  1.8252
10200SOL     OW31433   4.156   6.590   3.786 -0.2809 -0.2130 -0.0664
10200SOL    HW131434   4.193   6.659   3.841 -0.2181 -1.3134  1.3106
10200SOL    HW231435   4.094   6.636   3.729 -1.8143  0.7638  2.2161
10201SOL     OW31436   4.855   5.234   3.115 -0.8988 -0.5661  0.3071
10201SOL    HW131437   4.854   5.317   3.163 -0.3223 -0.8819  0.8788
10201SOL    HW231438   4.780   5.240   3.056  0.6194  1.4811 -1.5973
10202SOL     OW31439   5.479   3.508   6.915  0.0248  0.2613 -0.6191
10202SOL    HW131440   5.569   3.485   6.938  0.0286  1.8565  1.2367
10202SOL    HW231441   5.481   3.603   6.904 -1.4390  0.3236 -0.4616
10203SOL     OW31442   5.134   2.761   6.614 -0.4548 -0.0445 -0.1509
10203SOL    HW131443   5.211   2.737   6.564 -0.6468 -0.5845 -0.1966
10203SOL    HW231444   5.107   2.679   6.657 -0.5847  0.2960  0.4258
10204SOL     OW31445   3.060   1.657   0.136 -0.1466  0.1902  0.4487
10204SOL    HW131446   2.985   1.627   0.085  0.2834 -0.8985  0.4300
10204SOL    HW231447   3.045   1.751   0.147 -1.5259 -0.0147  0.4936
10205SOL     OW31448   6.644   0.051   0.270  0.0173 -0.3410  0.3762
10205SOL    HW131449   6.584   0.035   0.343 -1.6967 -1.1366 -1.1267
10205SOL    HW231450   6.701  -0.026   0.269  0.6725  0.1007  1.3968
10206SOL     OW31451   0.874   5.208   2.176 -0.8384  0.0638  0.2384
10206SOL    HW131452   0.814   5.160   2.119  1.6433 -0.9700 -1.7191
10206SOL    HW231453   0.882   5.294   2.136  0.2641 -0.3894 -0.5874
10207SOL     OW31454   7.200   7.285   4.266 -0.3871  0.0408  0.0978
10207SOL    HW131455   7.118   7.291   4.315 -0.7543  1.1232 -0.6214
10207SOL    HW231456   7.199   7.196   4.230 -0.0766 -0.7989  2.0430
10208SOL     OW31457   1.644   2.781   4.033 -0.0189  0.6618 -0.1011
10208SOL    HW131458   1.616   2.805   4.121 -1.7491 -0.7590 -0.2106
10208SOL    HW231459   1.609   2.693   4.019 -0.6200  1.1942 -2.5442
10209SOL     OW31460   5.026   4.833   3.701 -0.1365 -0.4006 -0.3406
10209SOL    HW131461   5.041   4.925   3.725  1.2091 -0.4544 -0.9123
10209SOL    HW231462   5.050   4.828   3.608 -0.1890 -1.3376 -0.3108
10210SOL     OW31463   5.617   6.919   3.245 -0.2895 -0.0038  0.2141
10210SOL    HW131464   5.599   6.940   3.337  0.5031  1.2481  0.1124
10210SOL    HW231465   5.545   6.959   3.196  1.1813  2.6456  0.0271
10211SOL     OW31466   1.296   1.195   6.387  0.5220  0.6886  0.0300
10211SOL    HW131467   1.389   1.214   6.397  0.4835  0.7521  0.2889
10211SOL    HW231468   1.286   1.170   6.296  0.4851  2.4713 -0.4903
10212SOL     OW31469   1.557   3.352   5.904  0.2045  0.4467  0.4493
10212SOL    HW131470   1.523   3.319   5.988 -1.2905  1.2489  0.1748
10212SOL    HW231471   1.583   3.273   5.857 -0.8602 -0.1614  0.8556
10213SOL     OW31472   5.212   2.663   1.213 -0.0976  0.4028  0.1647
10213SOL    HW131473   5.137   2.713   1.180 -1.5397 -1.3384  0.6354
10213SOL    HW231474   5.184   2.632   1.299  1.0534 -0.5141  0.2387
10214SOL     OW31475   5.501   4.290   2.165 -0.2608 -0.0918  0.1251
10214SOL    HW131476   5.502   4.274   2.260  1.3533  1.3330  0.3962
10214SOL    HW231477   5.551   4.371   2.154 -1.6171  0.5592 -1.8298
10215SOL     OW31478   6.414   0.804   0.194 -0.0784  0.7629 -0.3152
10215SOL    HW131479   6.330   0.849   0.182 -0.7122  0.3640  2.0288
10215SOL    HW231480   6.439   0.824   0.284  1.8161 -0.0128 -0.6324
10216SOL     OW31481   2.224   2.771   2.720  0.1028  0.1261 -0.1017
10216SOL    HW131482   2.161   2.790   2.650  0.6103 -0.6874 -0.7967
10216SOL    HW231483   2.171   2.766   2.799 -0.2985  2.6181 -0.1187
10217SOL     OW31484   6.521   6.140   5.982  0.0432 -0.3659 -0.2413
10217SOL    HW131485   6.467   6.104   6.052 -1.5544  0.8939 -0.7714
10217SOL    HW231486   6.518   6.074   5.913  1.9614 -1.8052  0.9439
10218SOL     OW31487   4.657   5.797   0.604  0.0845 -0.6968  0.4062
10218SOL    HW131488   4.607   5.760   0.531 -0.3274  0.8406 -0.1268
10218SOL    HW231489   4.592   5.811   0.672  0.2218 -0.8538  0.5701
10219SOL     OW31490   5.975   1.346   5.311  0.6853 -0.0074 -0.8079
10219SOL    HW131491   5.938   1.320   5.227 -1.0351 -0.0468 -0.0845
10219SOL    HW231492   5.914   1.412   5.345  0.6962 -0.8390  0.9328
10220SOL     OW31493   2.400   4.665   2.256 -0.2301  0.5811  0.3478
10220SOL    HW131494   2.348   4.707   2.325 -2.3098 -0.1147 -0.7142
10220SOL    HW231495   2.444   4.737   2.212 -0.3646  1.2161  1.2379
10221SOL     OW31496   2.455   2.780   1.869 -0.1914 -0.1576 -0.1060
10221SOL    HW131497   2.461   2.692   1.907  2.2047 -0.2810 -0.6310
10221SOL    HW231498   2.486   2.838   1.939  2.4839 -0.2147 -1.1440
10222SOL     OW31499   6.212   7.213   5.649 -0.7969 -0.0887  0.3471
10222SOL    HW131500   6.176   7.297   5.622  0.4425  0.3418 -0.0190
10222SOL    HW231501   6.145   7.149   5.623 -1.3479  0.6897 -0.1914
10223SOL     OW31502   2.273   0.883   6.505 -0.3775  0.3152  0.4807
10223SOL    HW131503   2.243   0.944   6.437 -2.3949  0.3374  1.3204
10223SOL    HW231504   2.301   0.939   6.577  1.4353  0.2818 -0.1475
10224SOL     OW31505   2.192   3.438   0.277  0.5790 -0.3029 -0.3607
10224SOL    HW131506   2.124   3.388   0.322  0.6099  1.2186  1.4895
10224SOL    HW231507   2.149   3.520   0.254  1.8733  0.8711  1.2602
10225SOL     OW31508   4.979   3.998   0.100 -0.9154  0.0790  0.4981
10225SOL    HW131509   4.891   3.963   0.115 -1.0994  0.7191  0.9677
10225SOL    HW231510   5.021   3.993   0.185 -0.5154 -0.1628  0.2879
10226SOL     OW31511   4.336   0.484   5.033 -0.3141  0.2937  0.0842
10226SOL    HW131512   4.322   0.477   4.939 -0.5972  0.3911  0.1196
10226SOL    HW231513   4.380   0.568   5.045 -0.7613  0.5275  0.0934
10227SOL     OW31514   6.064   2.195   1.680  0.4073 -0.5890 -0.0045
10227SOL    HW131515   6.040   2.114   1.635 -1.3644 -0.0897 -0.0367
10227SOL    HW231516   5.986   2.218   1.731 -0.2055  2.4918 -2.0655
10228SOL     OW31517   0.681   1.996   6.481 -0.1270  0.2660  0.4061
10228SOL    HW131518   0.676   2.062   6.413 -0.1402  0.0763  0.2218
10228SOL    HW231519   0.696   2.045   6.562  2.3467  0.3795 -0.0401
10229SOL     OW31520   1.002   3.195   6.432 -0.3861  0.1902 -0.1958
10229SOL    HW131521   1.057   3.233   6.363 -0.4341 -2.4637 -1.8465
10229SOL    HW231522   1.064   3.152   6.491 -0.4150 -3.4903 -2.4816
10230SOL     OW31523   6.566   0.166   4.862 -0.3966 -0.3549  0.4414
10230SOL    HW131524   6.488   0.221   4.863  0.1398  0.5838 -1.8625
10230SOL    HW231525   6.639   0.227   4.851  0.3010 -1.4122 -1.1965
10231SOL     OW31526   0.789   6.805   6.790 -0.5218  0.4709  0.1904
10231SOL    HW131527   0.884   6.814   6.802 -0.3872 -0.9996  0.4139
10231SOL    HW231528   0.779   6.766   6.704 -0.8707 -0.2922  0.5730
10232SOL     OW31529   2.679   6.825   4.448  0.4773 -0.3702  0.0543
10232SOL    HW131530   2.688   6.822   4.353 -0.7628  1.3717 -0.1645
10232SOL    HW231531   2.646   6.738   4.472  1.5150 -1.0753 -1.0035
10233SOL     OW31532   6.260   1.787   5.895 -0.0606 -0.2322  0.0056
10233SOL    HW131533   6.200   1.725   5.854  0.5135 -0.5048 -0.4352
10233SOL    HW231534   6.283   1.848   5.825 -0.6612  0.5287  0.4455
10234SOL     OW31535   5.744   5.314   6.831 -0.7621 -0.0813  0.0792
10234SOL    HW131536   5.746   5.219   6.831  0.0668 -0.0688 -0.6170
10234SOL    HW231537   5.821   5.341   6.781 -0.7457  0.9632  0.6280
10235SOL     OW31538   1.944   5.876   1.101 -0.0098 -0.1759 -0.2987
10235SOL    HW131539   1.979   5.898   1.187  0.5252 -1.7968 -0.0664
10235SOL    HW231540   2.021   5.875   1.044 -0.4863  1.9544 -1.0872
10236SOL     OW31541   1.259   2.007   1.668  0.5441  0.1683  0.3177
10236SOL    HW131542   1.220   1.994   1.755  1.5446  1.0198  0.9196
10236SOL    HW231543   1.185   2.000   1.607 -0.2295 -0.1023  1.2700
10237SOL     OW31544   3.606   5.997   4.487 -0.8643  0.3453 -0.0551
10237SOL    HW131545   3.612   5.907   4.521  1.3930  1.0576  1.6848
10237SOL    HW231546   3.671   6.000   4.417  0.5550  1.0941  1.2335
10238SOL     OW31547   0.155   5.824   4.684 -0.5000 -0.1686 -0.3506
10238SOL    HW131548   0.167   5.911   4.723 -1.7254  0.3978 -1.1915
10238SOL    HW231549   0.170   5.838   4.590 -1.7339 -0.6369 -0.6280
10239SOL     OW31550   0.728   5.195   1.714 -0.1331 -0.4224 -0.0436
10239SOL    HW131551   0.812   5.164   1.680  0.7239  1.8407 -0.2328
10239SOL    HW231552   0.666   5.178   1.644  0.3711 -1.2090 -0.3152
10240SOL     OW31553   2.398   2.998   3.924  0.0199 -0.8863 -0.4952
10240SOL    HW131554   2.432   3.005   4.013  0.4550 -2.9264 -0.4460
10240SOL    HW231555   2.326   3.060   3.920  1.3242  0.8073  0.5916
10241SOL     OW31556   6.978   2.361   3.765 -0.4714 -0.5989  0.4700
10241SOL    HW131557   6.971   2.456   3.772 -0.2243 -0.4516 -1.0920
10241SOL    HW231558   7.073   2.345   3.761 -0.3317 -1.1662  3.3672
10242SOL     OW31559   0.213   7.091   4.334  0.0417  0.6745  0.4720
10242SOL    HW131560   0.149   7.124   4.396  0.1849  1.9543 -0.0387
10242SOL    HW231561   0.267   7.167   4.311  1.1317 -0.1618  0.1537
10243SOL     OW31562   7.758   2.066   5.127  0.4836  0.2913  0.3591
10243SOL    HW131563   7.843   2.027   5.148  0.9734  0.9544 -0.3352
10243SOL    HW231564   7.731   2.111   5.207  0.5525 -0.3229  0.7334
10244SOL     OW31565   2.002   6.676   7.208  0.5869 -0.1381 -0.1465
10244SOL    HW131566   2.080   6.646   7.160  0.6596 -2.5189  1.2613
10244SOL    HW231567   2.033   6.688   7.298 -0.6444 -1.2679  0.4677
10245SOL     OW31568   7.616   3.313   0.167  0.2664 -0.2408  0.6580
10245SOL    HW131569   7.590   3.224   0.144 -2.4697  0.0792  2.0906
10245SOL    HW231570   7.572   3.368   0.103 -0.4528  0.2047  1.5191
10246SOL     OW31571   7.852   4.780   0.465  0.1936 -0.5553  0.1765
10246SOL    HW131572   7.905   4.839   0.518  0.6333 -2.2042  1.6647
10246SOL    HW231573   7.906   4.702   0.454 -1.1176 -1.4826  0.0084
10247SOL     OW31574   6.949   2.804   6.961  0.3548 -0.2505  0.5199
10247SOL    HW131575   7.008   2.819   7.035 -0.5376 -0.5785  1.3211
10247SOL    HW231576   7.007   2.775   6.890  1.2451  0.2172  1.0355
10248SOL     OW31577   6.308   5.853   7.288 -0.0651  0.2561 -0.3843
10248SOL    HW131578   6.258   5.822   7.363 -0.6239 -0.6090 -1.0889
10248SOL    HW231579   6.399   5.831   7.307 -0.2585 -0.3333 -0.1424
10249SOL     OW31580   4.663   3.363   2.757 -0.2969 -0.2915  0.1968
10249SOL    HW131581   4.578   3.405   2.767 -0.6646 -0.8073 -0.6535
10249SOL    HW231582   4.703   3.407   2.682 -0.6483 -1.3643 -0.6474
10250SOL     OW31583   4.176   6.789   4.235 -0.2851 -0.0067  0.2243
10250SOL    HW131584   4.200   6.865   4.182  0.9231 -1.0979 -0.8588
10250SOL    HW231585   4.116   6.739   4.179  0.9613 -1.1437 -0.1535
10251SOL     OW31586   3.987   1.744   4.555 -0.1282  0.2418 -0.1891
10251SOL    HW131587   3.926   1.787   4.615 -1.0267  0.6136 -1.3293
10251SOL    HW231588   4.047   1.813   4.527  0.5006 -0.0041  0.5068
10252SOL     OW31589   5.040   4.632   1.232 -0.2499 -0.2008 -0.4230
10252SOL    HW131590   4.990   4.692   1.287 -1.6327 -0.7714 -0.9960
10252SOL    HW231591   5.036   4.671   1.144 -1.2235 -1.1100 -0.8147
10253SOL     OW31592   3.027   6.968   4.966 -0.9001  0.3159 -0.1905
10253SOL    HW131593   3.019   7.059   4.993 -0.9858  0.0323  0.8155
10253SOL    HW231594   3.035   6.971   4.871  0.8283  1.4956 -0.0641
10254SOL     OW31595   4.782   0.092   6.044 -0.3340 -0.6127  0.0350
10254SOL    HW131596   4.728   0.168   6.024  1.3212  0.7574  0.5421
10254SOL    HW231597   4.829   0.073   5.963  2.0556  1.3462  0.8148
10255SOL     OW31598   0.510   7.152   1.907  0.1714 -0.1359 -0.0572
10255SOL    HW131599   0.423   7.191   1.915  0.0805 -0.4035  0.2862
10255SOL    HW231600   0.541   7.144   1.997  0.3342 -0.5243 -0.1443
10256SOL     OW31601   7.215   5.545   5.030 -0.0160 -0.7161 -0.5874
10256SOL    HW131602   7.136   5.600   5.031  0.7962  0.4903  0.3939
10256SOL    HW231603   7.181   5.455   5.032 -1.4266 -0.2535  2.5818
10257SOL     OW31604   1.774   6.190   0.800 -0.4131 -0.2770  0.3359
10257SOL    HW131605   1.685   6.195   0.835 -0.7335  0.2444 -0.5179
10257SOL    HW231606   1.814   6.274   0.823  0.4133 -1.1105  2.1051
10258SOL     OW31607   3.075   2.326   3.199  0.5215 -0.4831  0.2282
10258SOL    HW131608   3.130   2.255   3.168 -0.6057 -0.7870 -1.1691
10258SOL    HW231609   3.064   2.309   3.293  0.8015 -1.7698  0.0375
10259SOL     OW31610   5.092   0.562   7.853  0.4644 -0.3593 -0.3204
10259SOL    HW131611   5.183   0.536   7.871  0.3740  0.3143  1.2547
10259SOL    HW231612   5.063   0.605   7.933 -1.3665 -0.8425 -0.6802
10260SOL     OW31613   0.521   6.766   4.249  0.2065  0.2538 -0.4450
10260SOL    HW131614   0.547   6.830   4.183  0.1984  0.4901 -0.2180
10260SOL    HW231615   0.504   6.817   4.328  0.8996 -0.0922 -0.0591
10261SOL     OW31616   2.987   2.083   7.125  0.3907 -0.7193 -0.0309
10261SOL    HW131617   3.026   2.159   7.082 -0.7646  0.2200  0.4922
10261SOL    HW231618   3.018   2.088   7.215 -0.1448 -0.5110  0.1502
10262SOL     OW31619   6.765   4.626   2.283  0.2227  0.0211 -0.9105
10262SOL    HW131620   6.729   4.547   2.324  1.0688  0.4637  0.8069
10262SOL    HW231621   6.691   4.687   2.278 -0.2861 -0.6501 -1.6589
10263SOL     OW31622   2.285   0.379   0.569  0.6258 -0.0501 -0.0340
10263SOL    HW131623   2.206   0.326   0.576  0.5787  0.0975  0.6036
10263SOL    HW231624   2.284   0.412   0.479 -0.0662 -0.0010 -0.0140
10264SOL     OW31625   3.691   5.442   2.237  0.0567 -0.5828  0.5158
10264SOL    HW131626   3.782   5.470   2.244 -0.2772  0.2978  1.7591
10264SOL    HW231627   3.657   5.488   2.161  1.0985 -2.3393 -1.1032
10265SOL     OW31628   3.101   0.513   1.820 -0.5192 -0.1704 -0.7166
10265SOL    HW131629   3.086   0.552   1.734 -1.9547  0.6618 -0.1204
10265SOL    HW231630   3.022   0.534   1.870 -0.2289 -1.6559  0.4417
10266SOL     OW31631   5.824   0.323   6.427 -0.1303 -0.2872  0.3869
10266SOL    HW131632   5.820   0.349   6.334  2.7926  0.6047  0.4010
10266SOL    HW231633   5.910   0.353   6.456 -0.1639 -2.3248  2.8920
10267SOL     OW31634   2.089   4.799   0.866  0.2931  0.3260 -0.3201
10267SOL    HW131635   2.147   4.862   0.824  0.8480 -0.2567 -0.4457
10267SOL    HW231636   2.143   4.757   0.933  0.4651 -1.2544 -1.4018
10268SOL     OW31637   1.765   5.853   0.923 -0.0837  0.0816  0.1542
10268SOL    HW131638   1.700   5.919   0.949  0.6910  0.1291  2.1354
10268SOL    HW231639   1.833   5.858   0.990  0.5225 -2.0173 -0.2185
10269SOL     OW31640   5.488   1.540   2.994  0.9578 -0.4337  0.0786
10269SOL    HW131641   5.491   1.634   2.976 -0.3021 -0.2849  0.5759
10269SOL    HW231642   5.434   1.532   3.073  2.5899 -1.4326  1.1717
10270SOL     OW31643   0.299   4.044   2.545 -0.4401  0.6841  0.7903
10270SOL    HW131644   0.359   4.102   2.592  1.2322 -0.4729  0.1523
10270SOL    HW231645   0.328   3.956   2.568  1.8184 -0.0508 -3.8808
10271SOL     OW31646   5.307   6.549   2.405  0.0227  0.2079 -0.1818
10271SOL    HW131647   5.352   6.569   2.323  0.2523 -0.5058 -0.2407
10271SOL    HW231648   5.236   6.490   2.379 -0.5431  0.8070 -0.0026
10272SOL     OW31649   0.372   0.410   5.970  0.3086 -0.3367 -0.6311
10272SOL    HW131650   0.289   0.448   5.939  1.1305  0.0394 -2.5319
10272SOL    HW231651   0.402   0.355   5.898  2.3538  0.5828 -0.5685
10273SOL     OW31652   1.908   6.811   3.612 -0.0715 -0.1232  0.1165
10273SOL    HW131653   1.858   6.857   3.679 -1.3012 -0.4149 -0.5780
10273SOL    HW231654   1.995   6.798   3.651 -0.6353  0.0793  1.4763
10274SOL     OW31655   1.149   3.719   6.797 -0.3566 -0.4134 -0.2820
10274SOL    HW131656   1.137   3.641   6.744 -0.8053 -0.4112 -0.1868
10274SOL    HW231657   1.235   3.752   6.773  0.4180 -1.6797  0.6511
10275SOL     OW31658   1.601   6.866   5.893  0.0634 -0.3412  0.7764
10275SOL    HW131659   1.595   6.945   5.947  0.4478 -0.0436  0.3828
10275SOL    HW231660   1.513   6.856   5.856  0.4206  0.8124 -0.4564
10276SOL     OW31661   7.512   0.360   0.508  0.1285 -0.4528 -0.2181
10276SOL    HW131662   7.433   0.369   0.455  1.8715 -0.8697 -3.1177
10276SOL    HW231663   7.581   0.340   0.444  2.1675 -2.4213  2.4019
10277SOL     OW31664   3.042   5.074   3.146  0.1229  0.2633 -0.1389
10277SOL    HW131665   3.130   5.071   3.183  0.6412  1.5605 -1.1695
10277SOL    HW231666   3.055   5.105   3.056 -1.1610 -1.8552 -1.1489
10278SOL     OW31667   0.902   4.833   1.261 -0.1828  0.0008  0.0839
10278SOL    HW131668   0.881   4.903   1.322  1.1092 -0.3418  0.9747
10278SOL    HW231669   0.864   4.860   1.178  1.2029  2.3186  0.1176
10279SOL     OW31670   2.946   3.334   1.327  0.1913 -0.0157  0.6355
10279SOL    HW131671   2.866   3.309   1.373  0.8106  0.7686  2.1918
10279SOL    HW231672   2.929   3.310   1.235 -2.1290  0.8412  0.7813
10280SOL     OW31673   7.758   6.605   0.898  0.8379  0.8425  0.1929
10280SOL    HW131674   7.776   6.656   0.977  0.8398 -0.2527  0.9303
10280SOL    HW231675   7.680   6.554   0.920  1.2280  0.0316 -0.2586
10281SOL     OW31676   5.800   1.088   2.255 -0.1111  0.2462  0.4855
10281SOL    HW131677   5.842   1.003   2.256 -0.2292  0.1349  3.0938
10281SOL    HW231678   5.774   1.103   2.346 -0.7170  2.7587 -0.0221
10282SOL     OW31679   2.873   5.210   4.343  0.2029 -0.2492  0.0733
10282SOL    HW131680   2.788   5.236   4.307 -0.1006 -0.6594  0.4652
10282SOL    HW231681   2.935   5.272   4.306 -0.5079  1.1157  1.0779
10283SOL     OW31682   4.878   7.383   4.209  0.4802 -0.1895 -0.0823
10283SOL    HW131683   4.961   7.335   4.208 -0.4327 -1.8533  0.0366
10283SOL    HW231684   4.854   7.389   4.301  0.6757  0.7184 -0.0764
10284SOL     OW31685   0.405   3.652   3.710  0.0385  0.1643 -0.4772
10284SOL    HW131686   0.325   3.680   3.665  1.0367  0.1813 -2.3916
10284SOL    HW231687   0.395   3.558   3.722 -0.6223  0.3016  0.0693
10285SOL     OW31688   7.932   3.529   0.990 -0.3026 -0.0485 -0.0128
10285SOL    HW131689   8.007   3.480   1.023 -1.0203 -0.9302  0.3456
10285SOL    HW231690   7.856   3.476   1.015 -1.0610  0.9755 -0.1126
10286SOL     OW31691   4.702   2.924   3.039 -0.7010  0.2158 -0.3396
10286SOL    HW131692   4.774   2.983   3.060 -1.0410  0.2485  0.8120
10286SOL    HW231693   4.635   2.980   3.000  0.2671  0.0204 -2.4660
10287SOL     OW31694   2.123   0.820   4.570 -0.0704  0.4539 -0.4500
10287SOL    HW131695   2.076   0.823   4.654  2.2503  0.1983  0.9557
10287SOL    HW231696   2.080   0.751   4.520 -3.2001  2.3264 -0.6424
10288SOL     OW31697   0.854   0.726   0.223 -0.4259 -0.0036 -0.3595
10288SOL    HW131698   0.851   0.704   0.316 -1.6839  1.4908 -0.0104
10288SOL    HW231699   0.850   0.641   0.179  0.6193 -0.7699  0.9170
10289SOL     OW31700   1.721   7.509   3.804 -0.3107 -0.1374 -0.0111
10289SOL    HW131701   1.675   7.426   3.811  0.4059 -0.5235  0.0955
10289SOL    HW231702   1.761   7.508   3.717 -0.8783  0.4042 -0.2959
10290SOL     OW31703   5.359   4.512   1.941  0.3089 -0.3437  0.0693
10290SOL    HW131704   5.420   4.575   1.979  0.5891  0.1477 -1.1294
10290SOL    HW231705   5.404   4.428   1.946  1.1833  0.0458 -0.9675
10291SOL     OW31706   2.090   2.192   3.407 -0.4611  0.0522 -0.5861
10291SOL    HW131707   2.053   2.254   3.344 -0.3079 -0.6266 -1.3577
10291SOL    HW231708   2.184   2.192   3.389 -0.3661  0.1271 -0.1066
10292SOL     OW31709   4.162   2.518   4.236  0.1106  0.5807 -0.1763
10292SOL    HW131710   4.088   2.538   4.293  1.3366 -0.2288  1.8074
10292SOL    HW231711   4.166   2.422   4.235  1.8812  0.6092  0.8252
10293SOL     OW31712   7.882   1.039   0.508 -0.2242  0.1438 -0.2894
10293SOL    HW131713   7.843   0.952   0.504  1.2516 -0.5433 -0.6456
10293SOL    HW231714   7.835   1.091   0.443 -2.8218  0.3968  1.6356
10294SOL     OW31715   6.960   7.143   2.946 -0.6540  0.5950  0.2477
10294SOL    HW131716   6.924   7.228   2.971 -1.7208  0.2242  0.0231
10294SOL    HW231717   6.999   7.109   3.026  1.4569  2.0672 -0.0607
10295SOL     OW31718   1.204   6.358   6.541  0.4508 -0.4062  0.2201
10295SOL    HW131719   1.161   6.292   6.595  1.2350 -1.8575 -0.8401
10295SOL    HW231720   1.298   6.344   6.558  0.6169  0.7415  0.3011
10296SOL     OW31721   5.996   4.414   7.031 -0.0356  0.2063  0.1018
10296SOL    HW131722   6.083   4.454   7.032 -0.2456  0.8239  2.8118
10296SOL    HW231723   5.951   4.457   6.959  1.7139  0.2615 -1.0229
10297SOL     OW31724   0.112   1.097   2.069 -0.2145  0.2285 -0.1133
10297SOL    HW131725   0.118   1.021   2.011  0.1651 -0.2064  0.4933
10297SOL    HW231726   0.192   1.147   2.050  0.2059 -0.2154  0.4456
10298SOL     OW31727   3.623   0.776   2.445 -0.4233  0.9009 -0.1570
10298SOL    HW131728   3.677   0.771   2.367  0.5113 -2.5560  0.5555
10298SOL    HW231729   3.536   0.802   2.413  0.0189 -0.1261 -2.3002
10299SOL     OW31730   7.658   6.332   6.767  0.3994  0.5045 -0.4976
10299SOL    HW131731   7.735   6.370   6.724  0.4843 -1.1646 -1.9302
10299SOL    HW231732   7.585   6.356   6.710  0.3612 -0.7735 -1.0301
10300SOL     OW31733   7.342   2.225   2.009  0.0936 -0.1283 -0.0079
10300SOL    HW131734   7.326   2.164   1.937 -0.4308  0.3990 -0.3531
10300SOL    HW231735   7.269   2.287   2.004  0.1159 -0.0204  0.9110
10301SOL     OW31736   6.770   4.534   3.563 -0.6732  0.4578 -0.3949
10301SOL    HW131737   6.813   4.516   3.479  0.6574 -1.5100  0.6357
10301SOL    HW231738   6.677   4.532   3.543 -0.4017 -0.6953 -1.7232
10302SOL     OW31739   1.425   5.068   7.247  0.2782 -0.0014  0.8788
10302SOL    HW131740   1.457   5.138   7.305  1.4529  0.7002 -0.5642
10302SOL    HW231741   1.337   5.096   7.223  1.1643  1.6741 -0.6517
10303SOL     OW31742   6.943   2.154   2.647  0.0818 -0.0373  0.0953
10303SOL    HW131743   6.998   2.082   2.617  1.3762  0.4707  1.1423
10303SOL    HW231744   6.930   2.208   2.570  0.2356 -0.6781 -0.3925
10304SOL     OW31745   1.645   0.596   6.233 -0.6373  0.1212  0.0134
10304SOL    HW131746   1.613   0.544   6.159  0.0487  1.5136 -1.3183
10304SOL    HW231747   1.566   0.632   6.273 -0.9572  0.5037 -0.9377
10305SOL     OW31748   3.694   4.031   6.019 -0.0732  0.3256 -0.2287
10305SOL    HW131749   3.690   3.939   5.996  1.8751  0.1304  0.0726
10305SOL    HW231750   3.695   4.077   5.935  0.2595  0.0055 -0.4005
10306SOL     OW31751   3.551   2.123   1.389  0.3475  0.2327 -0.2226
10306SOL    HW131752   3.620   2.059   1.371  0.8596  1.1149 -1.6284
10306SOL    HW231753   3.480   2.098   1.331  1.1751  1.8305 -2.0493
10307SOL     OW31754   1.489   5.977   2.328  0.2812  0.2277 -0.0519
10307SOL    HW131755   1.400   5.959   2.299  0.4662 -0.6252 -0.1111
10307SOL    HW231756   1.522   6.042   2.265 -0.1036  0.1304 -0.3568
10308SOL     OW31757   2.707   1.749   0.123  0.4193  0.0956 -0.3873
10308SOL    HW131758   2.739   1.677   0.178 -1.3706 -0.0471  0.5558
10308SOL    HW231759   2.738   1.727   0.035  1.9460 -0.5463  0.2837
10309SOL     OW31760   7.132   6.022   1.105  0.1697  0.0827 -0.7915
10309SOL    HW131761   7.083   6.099   1.076 -1.7596 -0.2891  1.2024
10309SOL    HW231762   7.224   6.047   1.095 -0.3848  1.6164 -2.6766
10310SOL     OW31763   7.435   1.536   1.972 -0.2544 -0.0589 -0.2628
10310SOL    HW131764   7.429   1.506   1.881  0.2998 -0.5826 -0.1299
10310SOL    HW231765   7.349   1.515   2.009  0.2616 -1.9958 -0.0385
10311SOL     OW31766   5.067   1.252   0.452 -0.2459  0.6230  0.1703
10311SOL    HW131767   5.026   1.337   0.438 -1.4914  0.1778  0.9867
10311SOL    HW231768   5.049   1.202   0.373 -1.1815  0.4766  0.4701
10312SOL     OW31769   0.352   2.375   6.066 -0.1306 -0.0660 -0.3246
10312SOL    HW131770   0.271   2.350   6.110 -0.6131 -0.7149 -1.5317
10312SOL    HW231771   0.411   2.399   6.136 -1.5983  1.1445  0.5610
10313SOL     OW31772   2.254   4.808   4.872  0.0753 -0.2552 -0.0791
10313SOL    HW131773   2.322   4.760   4.823 -0.3874 -0.3781 -0.6106
10313SOL    HW231774   2.292   4.820   4.959  0.0622 -1.9230  0.1944
10314SOL     OW31775   3.334   3.167   3.547 -0.8971  0.3021 -0.1049
10314SOL    HW131776   3.262   3.217   3.587 -1.0018 -0.2928  0.4742
10314SOL    HW231777   3.292   3.111   3.482 -0.6861  1.5276 -1.3508
10315SOL     OW31778   4.616   1.749   6.372  0.2327  0.7108  0.2859
10315SOL    HW131779   4.588   1.838   6.350 -1.4126  0.5516  1.5661
10315SOL    HW231780   4.631   1.751   6.467 -0.5937 -0.5514  0.4667
10316SOL     OW31781   7.106   2.229   6.414  0.2826  0.4126  0.1383
10316SOL    HW131782   7.132   2.204   6.503 -0.3978 -0.2856  0.1543
10316SOL    HW231783   7.014   2.203   6.409 -0.3980  2.6927  0.0467
10317SOL     OW31784   2.448   5.327   7.201  0.3661 -0.2632 -0.0801
10317SOL    HW131785   2.491   5.374   7.272 -0.7748 -1.7293  1.6624
10317SOL    HW231786   2.518   5.306   7.139  1.3993  0.9284  0.6593
10318SOL     OW31787   3.831   4.592   7.374  0.1155 -0.0681 -0.4590
10318SOL    HW131788   3.868   4.615   7.289  0.6725  1.0208  0.0690
10318SOL    HW231789   3.827   4.674   7.422 -2.3289 -0.2372 -0.2237
10319SOL     OW31790   1.694   5.965   3.132 -0.4108 -0.0917 -0.0251
10319SOL    HW131791   1.672   5.885   3.085 -1.0050 -0.5247  0.9540
10319SOL    HW231792   1.769   6.001   3.085 -0.2053 -1.1681 -0.5408
10320SOL     OW31793   5.866   2.376   4.580 -0.3747 -0.2753  0.6029
10320SOL    HW131794   5.819   2.442   4.530 -1.1561 -0.8415  0.5684
10320SOL    HW231795   5.888   2.419   4.662  0.7951  0.6182 -0.1461
10321SOL     OW31796   0.587   5.758   3.920 -0.2544  0.5963  0.4512
10321SOL    HW131797   0.677   5.745   3.949 -0.4989  0.0327  0.9689
10321SOL    HW231798   0.534   5.742   3.998 -0.7531  1.9768  0.4348
10322SOL     OW31799   5.743   5.009   7.133 -0.2230 -0.3090 -0.6176
10322SOL    HW131800   5.771   5.048   7.050 -0.5810  0.7590 -0.2524
10322SOL    HW231801   5.654   5.042   7.146  0.0238 -0.0067  0.4495
10323SOL     OW31802   6.154   4.738   4.408  0.1942 -0.7605 -0.3208
10323SOL    HW131803   6.229   4.735   4.348  0.4936 -0.1569  0.0142
10323SOL    HW231804   6.088   4.786   4.359  0.7123  0.4303  0.1144
10324SOL     OW31805   2.592   2.282   1.024 -0.3912  0.4020 -0.6064
10324SOL    HW131806   2.541   2.358   0.997 -0.3263  1.1216  1.1342
10324SOL    HW231807   2.670   2.319   1.066 -0.4454 -0.6054  0.4321
10325SOL     OW31808   1.177   0.029   3.417  0.1455  0.0608 -0.0257
10325SOL    HW131809   1.114   0.042   3.489  0.7636 -2.1731  0.9954
10325SOL    HW231810   1.256   0.072   3.448  0.0315  0.2174  0.0534
10326SOL     OW31811   2.990   4.458   3.320  0.6843 -0.3735 -0.0737
10326SOL    HW131812   3.022   4.541   3.285  0.1358 -0.7481 -1.5289
10326SOL    HW231813   3.038   4.447   3.402  1.5035  0.8822 -0.3495
10327SOL     OW31814   2.457   1.009   0.544 -0.5369  0.2186 -0.2591
10327SOL    HW131815   2.426   1.025   0.454  0.6294 -2.1307 -1.1874
10327SOL    HW231816   2.417   0.925   0.568  0.6742 -0.1352  0.6403
10328SOL     OW31817   6.176   7.866   6.575 -0.1126 -0.0803  0.0700
10328SOL    HW131818   6.250   7.841   6.630 -0.9770  1.8405  2.2474
10328SOL    HW231819   6.201   7.951   6.540 -0.4062 -0.4154 -0.9928
10329SOL     OW31820   2.366   0.136   7.868  0.1388  0.9760  0.5483
10329SOL    HW131821   2.406   0.182   7.794  0.1432  1.8960  1.1145
10329SOL    HW231822   2.316   0.065   7.827  0.8282  0.9471 -0.2810
10330SOL     OW31823   0.258   3.909   1.958 -0.0648  0.0710 -0.3180
10330SOL    HW131824   0.235   3.951   2.040 -0.8822 -0.3647 -0.3173
10330SOL    HW231825   0.354   3.913   1.955  0.0804 -1.3305  1.4133
10331SOL     OW31826   4.050   0.403   7.476  0.1547  0.4302  0.3491
10331SOL    HW131827   4.009   0.488   7.488 -1.4378 -0.0626 -1.0982
10331SOL    HW231828   4.135   0.423   7.436  0.9488  1.4161  2.3812
10332SOL     OW31829   7.060   5.881   1.320  0.0916  0.7536 -0.2382
10332SOL    HW131830   7.082   5.938   1.246 -1.0231  1.3115 -0.1628
10332SOL    HW231831   7.115   5.804   1.307  0.5015  1.1789 -1.2030
10333SOL     OW31832   6.878   3.557   2.766  0.1010 -0.4704  0.1050
10333SOL    HW131833   6.972   3.543   2.755 -0.0262 -0.4650 -1.0393
10333SOL    HW231834   6.868   3.652   2.764  0.3682 -0.2869  2.9782
10334SOL     OW31835   1.391   1.478   1.789 -0.5893  0.0293  0.0146
10334SOL    HW131836   1.410   1.563   1.828  1.5050 -0.1581 -0.5071
10334SOL    HW231837   1.295   1.470   1.794 -0.6863  1.6678  1.5659
10335SOL     OW31838   7.093   2.677   3.821 -0.4568  0.3287  0.4230
10335SOL    HW131839   7.047   2.741   3.767  1.5380  0.6518 -1.0163
10335SOL    HW231840   7.183   2.679   3.788 -0.1678 -2.7089  0.8105
10336SOL     OW31841   0.607   2.769   5.454  0.4127  0.3577 -0.0256
10336SOL    HW131842   0.536   2.737   5.397 -0.4189 -0.9162  1.6450
10336SOL    HW231843   0.662   2.822   5.396  0.0007 -1.4319 -2.2071
10337SOL     OW31844   0.983   4.214   1.091 -0.6227 -0.1056  0.2855
10337SOL    HW131845   0.959   4.290   1.144 -1.1442  0.2578 -0.4559
10337SOL    HW231846   0.979   4.140   1.153  0.4268  0.5296  1.1414
10338SOL     OW31847   1.038   5.986   1.726 -0.0800 -0.0835  0.4642
10338SOL    HW131848   1.105   5.921   1.744 -0.0140  0.0980  0.8962
10338SOL    HW231849   1.080   6.048   1.666 -0.4647 -0.9704 -0.7597
10339SOL     OW31850   1.270   3.244   6.897 -0.2288 -0.2667  0.2964
10339SOL    HW131851   1.246   3.278   6.983 -0.3695  0.2106  0.0714
10339SOL    HW231852   1.351   3.196   6.911 -0.0948  0.0591  0.6408
10340SOL     OW31853   7.664   6.039   1.543  0.1180 -0.3580 -0.5183
10340SOL    HW131854   7.582   5.993   1.523 -1.3648  1.6612  0.5041
10340SOL    HW231855   7.696   5.997   1.623 -1.0134  0.0840  0.1946
10341SOL     OW31856   6.877   5.772   3.906 -0.0542  0.3103 -0.3235
10341SOL    HW131857   6.933   5.786   3.829 -0.4822  0.5084 -0.6017
10341SOL    HW231858   6.927   5.810   3.978  0.8921 -0.9198 -0.2808
10342SOL     OW31859   3.788   6.918   5.732 -0.3349 -0.1496  0.1916
10342SOL    HW131860   3.743   6.907   5.816  2.3820  2.0231  2.1027
10342SOL    HW231861   3.855   6.850   5.733  0.6421  0.8008  0.5072
10343SOL     OW31862   7.789   4.643   7.436  0.0047  0.6177 -0.1229
10343SOL    HW131863   7.813   4.571   7.494 -2.1973 -1.6620 -1.7986
10343SOL    HW231864   7.695   4.654   7.449  0.1781  2.9059 -0.3154
10344SOL     OW31865   4.281   7.483   2.826 -1.0540  0.3192  0.2011
10344SOL    HW131866   4.210   7.497   2.763  1.0799  0.4628 -2.3967
10344SOL    HW231867   4.320   7.400   2.799  1.0239  1.2551  0.1213
10345SOL     OW31868   5.848   0.434   6.186  0.4297 -0.1766 -0.8435
10345SOL    HW131869   5.841   0.365   6.120  0.5824 -2.4200  1.3195
10345SOL    HW231870   5.942   0.445   6.200  0.3940 -0.3742 -0.4049
10346SOL     OW31871   6.075   3.121   7.289 -0.0175  0.3241 -0.2260
10346SOL    HW131872   6.134   3.195   7.301  0.7633 -0.1037 -1.2600
10346SOL    HW231873   6.064   3.085   7.377  2.6912 -0.6393 -0.1738
10347SOL     OW31874   6.005   3.220   3.130 -0.9797 -0.1769  0.0000
10347SOL    HW131875   6.025   3.208   3.037  0.2163 -0.0106  0.2179
10347SOL    HW231876   5.988   3.314   3.138 -2.1718 -0.3681 -0.2412
10348SOL     OW31877   6.549   7.819   0.714 -0.0350  0.0421  0.2080
10348SOL    HW131878   6.615   7.751   0.725  0.6471  0.7906  0.8586
10348SOL    HW231879   6.526   7.845   0.803  0.2219  1.1314 -0.0271
10349SOL     OW31880   6.332   1.951   1.640 -0.0793 -0.2966  0.5089
10349SOL    HW131881   6.374   1.907   1.565  1.3704  0.2146  0.9857
10349SOL    HW231882   6.254   1.899   1.657 -0.7013 -0.1585 -1.6532
10350SOL     OW31883   6.407   2.263   6.120 -0.1880 -0.0917  0.1196
10350SOL    HW131884   6.356   2.190   6.084 -0.5283  1.0173 -1.8294
10350SOL    HW231885   6.345   2.311   6.174 -0.5323 -0.1469 -0.2158
10351SOL     OW31886   5.534   3.423   6.142 -0.5641  0.5235  0.2652
10351SOL    HW131887   5.441   3.436   6.123 -0.4927  0.3189 -0.2191
10351SOL    HW231888   5.536   3.346   6.199 -0.5844 -0.2785 -0.7996
10352SOL     OW31889   3.524   7.812   4.798  0.0376 -0.1742  0.6981
10352SOL    HW131890   3.562   7.762   4.726 -1.1593 -0.8763  0.5107
10352SOL    HW231891   3.521   7.902   4.766  3.2358  0.3063  1.4601
10353SOL     OW31892   3.739   2.667   5.776 -0.1158  0.3848  0.6195
10353SOL    HW131893   3.727   2.706   5.863 -0.5218  0.3663  0.5725
10353SOL    HW231894   3.772   2.739   5.722 -0.8853  0.6738  0.5259
10354SOL     OW31895   2.000   1.314   4.557 -0.7166 -0.8373 -0.0159
10354SOL    HW131896   2.087   1.285   4.585 -1.1141 -0.4114  1.7668
10354SOL    HW231897   1.940   1.265   4.613 -1.5670  0.1246 -0.0695
10355SOL     OW31898   0.652   6.448   0.303  0.4791  0.4045 -0.9004
10355SOL    HW131899   0.650   6.459   0.208 -1.3809 -3.2889 -1.4857
10355SOL    HW231900   0.596   6.518   0.337 -0.3842  0.6408 -2.7272
10356SOL     OW31901   3.604   5.113   6.490 -0.2805  0.3220  0.1313
10356SOL    HW131902   3.587   5.100   6.583  0.4402 -0.4123  0.1725
10356SOL    HW231903   3.558   5.194   6.468  1.1754  1.6132  1.5631
10357SOL     OW31904   7.553   3.027   0.205  0.4461 -0.3622  0.0355
10357SOL    HW131905   7.508   2.945   0.224  0.2853 -0.1585  0.5547
10357SOL    HW231906   7.610   3.041   0.280  0.6791 -0.1405 -0.1813
10358SOL     OW31907   2.885   0.048   4.131  0.3991 -0.3065 -0.0710
10358SOL    HW131908   2.875   0.143   4.121  1.2450 -0.2061 -0.0929
10358SOL    HW231909   2.815   0.023   4.190 -1.0676  0.0146 -1.5995
10359SOL     OW31910   6.882   3.919   7.801  0.2499 -0.8031 -0.2697
10359SOL    HW131911   6.925   4.002   7.821 -2.0527  1.0069 -2.1371
10359SOL    HW231912   6.841   3.893   7.884  2.3992 -1.0363  0.7712
10360SOL     OW31913   3.126   0.520   6.643  0.1919 -0.2362 -0.8373
10360SOL    HW131914   3.121   0.574   6.564  0.1393 -0.2154 -0.8193
10360SOL    HW231915   3.036   0.513   6.674 -0.0288 -1.6455 -1.7122
10361SOL     OW31916   3.306   0.509   0.576 -0.0571  0.2693  0.3146
10361SOL    HW131917   3.323   0.472   0.662 -1.8655 -0.7065  0.3181
10361SOL    HW231918   3.289   0.433   0.520  2.4223  0.7899 -1.2940
10362SOL     OW31919   1.263   0.048   6.441 -0.3171 -0.1784 -0.0529
10362SOL    HW131920   1.301  -0.038   6.455 -1.0102 -0.3108  1.1405
10362SOL    HW231921   1.273   0.064   6.347  1.9333 -0.5301  0.0928
10363SOL     OW31922   2.249   5.362   5.253  0.5354  0.2356  0.5680
10363SOL    HW131923   2.154   5.379   5.254  0.6069  0.6802  0.1752
10363SOL    HW231924   2.276   5.375   5.343 -0.2504 -2.7425  1.3298
10364SOL     OW31925   4.664   7.136   4.881  0.0326 -0.8974  0.6089
10364SOL    HW131926   4.745   7.101   4.917  0.6370 -0.0128  0.1645
10364SOL    HW231927   4.692   7.198   4.814 -1.0305 -1.2195 -0.1779
10365SOL     OW31928   6.887   5.980   0.695  0.5336 -0.1267  0.0340
10365SOL    HW131929   6.945   5.954   0.767  1.3507  0.0308 -0.5568
10365SOL    HW231930   6.899   5.913   0.628 -0.6574 -0.5914  0.2540
10366SOL     OW31931   1.202   1.872   0.751 -0.4677 -0.0749 -0.1365
10366SOL    HW131932   1.160   1.886   0.836 -1.3951  0.0072 -0.6039
10366SOL    HW231933   1.230   1.959   0.723  1.2244 -0.2822  0.7677
10367SOL     OW31934   1.273   5.910   7.586 -0.2830 -0.1420 -0.2876
10367SOL    HW131935   1.358   5.895   7.545  1.0238  0.4648  2.0494
10367SOL    HW231936   1.230   5.824   7.586  0.7421 -0.6616 -0.5834
10368SOL     OW31937   0.137   6.550   2.505  0.2460  0.3715 -0.5301
10368SOL    HW131938   0.170   6.635   2.475 -0.7407  1.2119  0.6891
10368SOL    HW231939   0.210   6.490   2.492  1.3556  1.6453 -0.3340
10369SOL     OW31940   3.848   6.925   0.584  0.1592 -0.5778  0.6599
10369SOL    HW131941   3.825   6.999   0.641 -1.4123 -0.3975 -0.1418
10369SOL    HW231942   3.942   6.934   0.570  0.2009  0.5958  1.5078
10370SOL     OW31943   1.357   4.263   5.541 -0.0439 -0.3800 -0.0761
10370SOL    HW131944   1.420   4.195   5.563 -0.8393 -0.7637  1.1362
10370SOL    HW231945   1.273   4.230   5.574 -0.9205  0.0627 -1.7282
10371SOL     OW31946   2.734   6.810   4.060  0.0657  0.9108  0.4885
10371SOL    HW131947   2.687   6.728   4.049  2.2428 -0.5238  1.3455
10371SOL    HW231948   2.683   6.873   4.008 -1.5334 -0.9905 -0.3954
10372SOL     OW31949   4.087   5.539   4.288 -0.4583 -0.2325  0.1302
10372SOL    HW131950   4.026   5.568   4.356  0.9532  1.5724  0.7383
10372SOL    HW231951   4.114   5.620   4.245  1.1363 -1.0057 -0.4046
10373SOL     OW31952   4.624   5.118   5.731 -0.6243  0.0292  0.1423
10373SOL    HW131953   4.715   5.108   5.759 -0.8439 -0.0335  0.8394
10373SOL    HW231954   4.616   5.212   5.711  0.5889 -0.4759 -3.4897
10374SOL     OW31955   1.479   2.289   4.711 -0.0676  0.0036 -0.1877
10374SOL    HW131956   1.539   2.249   4.648 -0.7036  0.2995 -0.9868
10374SOL    HW231957   1.432   2.215   4.749 -0.2203 -0.1177 -0.6109
10375SOL     OW31958   1.721   5.366   3.938  0.5096 -0.1998  0.2056
10375SOL    HW131959   1.689   5.389   4.025 -4.3571  0.3582 -1.4660
10375SOL    HW231960   1.678   5.282   3.918 -1.0453  1.1671 -2.7066
10376SOL     OW31961   1.580   0.703   2.413 -0.0036  0.5714 -0.1495
10376SOL    HW131962   1.557   0.779   2.359  0.1209  0.1426 -0.8241
10376SOL    HW231963   1.663   0.726   2.453  1.7183 -0.3953 -2.8548
10377SOL     OW31964   6.537   6.833   4.868 -0.1742  0.1166 -0.5788
10377SOL    HW131965   6.473   6.762   4.872 -2.3059  1.9287 -0.2544
10377SOL    HW231966   6.527   6.878   4.952  0.3070  1.4484 -1.2144
10378SOL     OW31967   4.237   3.527   5.810 -0.3245  0.2777  0.4393
10378SOL    HW131968   4.286   3.537   5.728 -1.8986 -2.5374 -1.0180
10378SOL    HW231969   4.171   3.596   5.807 -0.6018 -0.0134 -0.9297
10379SOL     OW31970   4.041   0.037   1.287 -0.3629 -0.1500 -0.6065
10379SOL    HW131971   4.083  -0.031   1.339  0.5611  0.6123 -0.3202
10379SOL    HW231972   4.039   0.001   1.198 -1.9347 -1.4454 -0.0798
10380SOL     OW31973   4.609   2.426   1.602 -0.3295 -0.2002  0.4586
10380SOL    HW131974   4.534   2.478   1.573  0.8615  1.0612 -0.5437
10380SOL    HW231975   4.624   2.364   1.530 -0.8204 -0.9239  0.9714
10381SOL     OW31976   3.811   0.897   3.452 -0.3579 -0.6740 -0.4844
10381SOL    HW131977   3.791   0.926   3.541 -3.3897  1.0932 -1.5778
10381SOL    HW231978   3.739   0.838   3.429 -0.6733  0.3566 -2.3649
10382SOL     OW31979   5.708   3.207   4.432  0.4013  0.0022 -0.5809
10382SOL    HW131980   5.677   3.126   4.473  2.0970 -0.4340 -0.0836
10382SOL    HW231981   5.759   3.251   4.500  0.8315  0.6989 -1.3343
10383SOL     OW31982   4.521   1.935   7.662  0.0941  0.0942 -0.8605
10383SOL    HW131983   4.553   2.025   7.666  0.8422 -0.1982  1.2470
10383SOL    HW231984   4.590   1.883   7.703 -0.1913 -1.5010 -2.2931
10384SOL     OW31985   5.236   2.895   5.369  0.0749  0.7697  0.2809
10384SOL    HW131986   5.208   2.803   5.363 -2.6379  1.5288 -0.1869
10384SOL    HW231987   5.328   2.894   5.343  0.1426 -1.8177  0.3663
10385SOL     OW31988   7.640   2.018   3.926 -0.1171  0.1336 -0.4226
10385SOL    HW131989   7.616   2.053   4.012 -0.6223 -2.0885  0.4048
10385SOL    HW231990   7.732   1.993   3.935 -0.5380 -1.3577 -0.0492
10386SOL     OW31991   4.129   0.913   3.606 -0.2513 -0.0753 -0.7651
10386SOL    HW131992   4.201   0.976   3.610 -1.4310  1.3633 -1.2267
10386SOL    HW231993   4.172   0.827   3.601  1.4466  0.4068  2.6183
10387SOL     OW31994   5.614   6.263   3.540  0.5714 -0.0413  0.6677
10387SOL    HW131995   5.526   6.283   3.573  0.5571 -0.9757  1.2567
10387SOL    HW231996   5.670   6.327   3.582  0.1085  0.9587 -0.1896
10388SOL     OW31997   6.749   2.231   3.641 -0.4121  0.2389 -0.3863
10388SOL    HW131998   6.825   2.220   3.584 -0.8286 -1.3037 -0.7056
10388SOL    HW231999   6.711   2.315   3.616  0.5798  0.5295 -0.9560
10389SOL     OW32000   2.210   5.627   1.739  0.1118 -0.3638  0.0343
10389SOL    HW132001   2.160   5.708   1.748 -0.6104 -0.6064 -1.5266
10389SOL    HW232002   2.276   5.648   1.673  0.4853 -0.7987  0.2671
10390SOL     OW32003   0.245   1.618   5.909 -0.5000 -0.2709  0.3963
10390SOL    HW132004   0.272   1.636   5.999  2.2031  1.1580 -0.5681
10390SOL    HW232005   0.219   1.526   5.909 -0.1929 -0.3935  2.5476
10391SOL     OW32006   6.020   4.996   0.398  0.7192  0.0740  0.5985
10391SOL    HW132007   6.059   5.079   0.424  0.9257  0.2339 -0.2039
10391SOL    HW232008   6.042   4.986   0.306 -2.1224  0.7780 -0.2702
10392SOL     OW32009   0.510   2.369   5.409 -0.1694  0.3225  0.0546
10392SOL    HW132010   0.587   2.385   5.464 -1.5247  1.8012  1.6221
10392SOL    HW232011   0.546   2.342   5.325  2.1124  1.9754  0.4089
10393SOL     OW32012   4.772   6.896   7.175 -0.6828 -0.1399  0.0712
10393SOL    HW132013   4.780   6.812   7.219 -0.9859 -1.3945 -2.1159
10393SOL    HW232014   4.862   6.919   7.150 -0.5537  0.4048  0.9793
10394SOL     OW32015   4.736   2.743   1.854 -0.1357  0.4729  0.8006
10394SOL    HW132016   4.770   2.686   1.785  0.6071  0.1656  1.4047
10394SOL    HW232017   4.652   2.774   1.820  0.0189 -0.0058 -0.0582
10395SOL     OW32018   6.791   6.653   0.355  0.1989 -0.4950 -0.0047
10395SOL    HW132019   6.803   6.730   0.411 -3.0309 -0.4123  0.7663
10395SOL    HW232020   6.703   6.622   0.375  0.5626 -3.1275 -1.9053
10396SOL     OW32021   6.224   5.035   7.288  0.3908  0.4227 -0.2776
10396SOL    HW132022   6.223   4.940   7.302 -0.1637  0.4294 -0.2371
10396SOL    HW232023   6.134   5.062   7.307  0.3413  0.8362 -1.0979
10397SOL     OW32024   3.903   5.649   4.466  0.0865 -0.2156 -0.4461
10397SOL    HW132025   3.848   5.632   4.542 -0.2974  0.0092 -0.6687
10397SOL    HW232026   3.946   5.732   4.484  0.6095 -0.5454 -0.1309
10398SOL     OW32027   3.487   0.221   7.746  0.0052  0.5158 -0.0170
10398SOL    HW132028   3.479   0.290   7.680  0.5722 -0.2252 -0.8838
10398SOL    HW232029   3.429   0.151   7.715  0.3247  0.1344  0.2308
10399SOL     OW32030   2.186   6.668   3.737 -0.0396  0.1271  0.2317
10399SOL    HW132031   2.168   6.606   3.666 -0.0535  0.4031 -0.0098
10399SOL    HW232032   2.116   6.653   3.801  1.6297 -2.2571  1.6658
10400SOL     OW32033   0.593   6.454   3.571  0.2937  0.2167 -0.5254
10400SOL    HW132034   0.619   6.545   3.586 -0.6777  0.2479  1.2367
10400SOL    HW232035   0.509   6.461   3.525  0.0172  0.2421 -0.0303
10401SOL     OW32036   2.857   6.890   1.030 -0.0276  0.4844  0.3007
10401SOL    HW132037   2.869   6.966   1.086  0.0378  1.3473 -0.8520
10401SOL    HW232038   2.900   6.818   1.078 -0.2962  1.0970  1.5077
10402SOL     OW32039   5.732   2.873   1.074 -0.5471  0.1371  0.1187
10402SOL    HW132040   5.672   2.806   1.107 -1.0206  0.8424  0.7042
10402SOL    HW232041   5.675   2.940   1.037 -0.0937  0.5324  0.1283
10403SOL     OW32042   3.064   2.305   2.537 -0.0409  0.3509  0.1030
10403SOL    HW132043   2.980   2.299   2.582  0.5466 -0.7899  1.0968
10403SOL    HW232044   3.088   2.397   2.542  0.4320  0.1660  3.0131
10404SOL     OW32045   1.863   3.637   0.784  0.6090  0.1597 -0.6384
10404SOL    HW132046   1.791   3.578   0.806 -1.5108  2.4042 -1.0127
10404SOL    HW232047   1.879   3.686   0.865  0.9581  0.4246 -0.8605
10405SOL     OW32048   6.744   2.941   4.565 -0.6180 -0.0105 -0.4132
10405SOL    HW132049   6.724   2.957   4.657  0.9158 -0.0875 -0.0327
10405SOL    HW232050   6.684   2.997   4.516  1.2620  3.2298  0.7463
10406SOL     OW32051   4.826   1.973   7.121  0.4250 -0.0019 -0.9650
10406SOL    HW132052   4.893   1.908   7.141 -0.4088 -0.9625 -1.1750
10406SOL    HW232053   4.872   2.057   7.120  1.0852 -0.2415  1.8524
10407SOL     OW32054   1.028   0.934   3.703 -0.1599 -0.3216  0.4294
10407SOL    HW132055   1.104   0.966   3.751  0.3872  2.8876 -2.2045
10407SOL    HW232056   0.953   0.981   3.741 -0.0532  0.4007 -0.2185
10408SOL     OW32057   3.462   4.449   0.589 -0.1877  0.3501  0.1036
10408SOL    HW132058   3.484   4.502   0.512  2.3050 -0.1121  0.4141
10408SOL    HW232059   3.546   4.427   0.628 -1.2679 -1.6206  1.5184
10409SOL     OW32060   2.131   2.248   3.825  0.0750  0.2238 -0.0324
10409SOL    HW132061   2.186   2.293   3.762 -0.2674  0.5842 -0.0796
10409SOL    HW232062   2.179   2.253   3.908 -0.2174  1.1717  0.0846
10410SOL     OW32063   7.247   2.717   3.380 -0.2316 -0.0118  0.2526
10410SOL    HW132064   7.159   2.753   3.365  0.4545  0.9589 -1.7636
10410SOL    HW232065   7.231   2.624   3.395 -1.5117 -0.3679 -2.5810
10411SOL     OW32066   6.280   0.186   1.852 -0.6845 -0.2607 -0.1658
10411SOL    HW132067   6.341   0.114   1.835 -0.8762 -0.5864  0.4910
10411SOL    HW232068   6.225   0.190   1.774 -1.4180 -1.5896  0.2539
10412SOL     OW32069   7.381   0.563   6.293  0.0122  0.2444 -0.6659
10412SOL    HW132070   7.303   0.538   6.341 -0.3068  0.5795 -0.9994
10412SOL    HW232071   7.454   0.532   6.346 -0.3335  0.6462  0.0513
10413SOL     OW32072   6.262   2.906   4.940  0.5063  0.1640  0.1727
10413SOL    HW132073   6.169   2.892   4.923  0.3591  0.9407  0.3069
10413SOL    HW232074   6.271   2.893   5.034  0.6692 -0.5965  0.0608
10414SOL     OW32075   3.457   1.304   4.068 -0.1260 -0.7098 -0.0181
10414SOL    HW132076   3.430   1.377   4.124  1.4255 -1.0038  1.1835
10414SOL    HW232077   3.426   1.226   4.114  0.1387 -0.9054 -0.1735
10415SOL     OW32078   7.216   7.033   0.189 -0.5651  1.0364  0.1992
10415SOL    HW132079   7.278   6.991   0.248 -1.4651  1.1775  1.2931
10415SOL    HW232080   7.244   7.007   0.101  0.7162  0.6916  0.6875
10416SOL     OW32081   4.266   4.719   7.794  0.8376 -0.2832  0.1505
10416SOL    HW132082   4.330   4.648   7.800  0.9790 -0.2313 -0.6101
10416SOL    HW232083   4.184   4.680   7.825  1.7556  0.4464  4.0320
10417SOL     OW32084   5.739   4.082   2.657 -0.8997  0.4326  0.9416
10417SOL    HW132085   5.645   4.100   2.660 -1.1714 -0.7806  0.3720
10417SOL    HW232086   5.746   3.999   2.610  0.4978  0.7511  0.5473
10418SOL     OW32087   7.440   7.803   1.443 -0.3866 -0.5406 -0.2305
10418SOL    HW132088   7.394   7.847   1.515 -0.7574 -0.6546 -0.3910
10418SOL    HW232089   7.469   7.720   1.481  0.9540  0.1339  0.2812
10419SOL     OW32090   0.021   5.694   2.954 -0.1588  0.0548 -1.1716
10419SOL    HW132091  -0.067   5.721   2.926 -0.1230  0.7684 -0.6337
10419SOL    HW232092   0.050   5.633   2.886 -1.1382 -0.3275 -1.2665
10420SOL     OW32093   3.452   0.810   0.258 -0.2281 -0.4651  0.6936
10420SOL    HW132094   3.375   0.759   0.232 -0.4228 -0.1195  0.5858
10420SOL    HW232095   3.501   0.751   0.316 -0.2907 -0.8841  0.3232
10421SOL     OW32096   0.304   0.711   6.183  0.4508  0.1619  0.3695
10421SOL    HW132097   0.209   0.723   6.188  0.4165 -0.6182  2.6363
10421SOL    HW232098   0.333   0.775   6.118 -1.5631  0.7138 -0.0496
10422SOL     OW32099   3.811   3.678   6.581  0.1200 -0.3998  0.4879
10422SOL    HW132100   3.828   3.585   6.595 -0.2515 -0.2973  1.7817
10422SOL    HW232101   3.879   3.723   6.630 -0.9074 -0.0078  1.6193
10423SOL     OW32102   3.312   4.920   3.460 -0.1476 -0.1403 -0.1453
10423SOL    HW132103   3.375   4.853   3.485  0.3404  1.0110  1.9498
10423SOL    HW232104   3.234   4.900   3.513  0.2022  1.1959  0.9575
10424SOL     OW32105   4.099   5.942   5.045 -0.1275  0.1816  0.1019
10424SOL    HW132106   4.055   5.879   5.102 -2.0991  1.9336  0.6491
10424SOL    HW232107   4.028   5.992   5.005  1.2785  3.4888  1.3610
10425SOL     OW32108   5.694   7.603   1.186 -0.1791  0.0860  0.4358
10425SOL    HW132109   5.642   7.676   1.154 -1.2024 -0.2479  1.2765
10425SOL    HW232110   5.673   7.597   1.279  1.6209  0.1264  0.8841
10426SOL     OW32111   0.011   6.418   0.869  0.5834 -0.5589  0.4812
10426SOL    HW132112  -0.047   6.482   0.911  0.8227 -0.3460  0.4899
10426SOL    HW232113  -0.005   6.336   0.916 -2.1192 -1.3512 -1.5572
10427SOL     OW32114   7.850   7.847   4.197  0.3196 -0.3240 -0.1933
10427SOL    HW132115   7.930   7.876   4.153  0.0411 -0.1780 -0.6119
10427SOL    HW232116   7.788   7.919   4.184  0.3161 -0.1564  0.6846
10428SOL     OW32117   4.299   4.284   7.488  0.0902 -0.1910 -0.4895
10428SOL    HW132118   4.218   4.241   7.461  1.0260 -1.5516 -1.2197
10428SOL    HW232119   4.331   4.231   7.562 -0.2065  0.9613  0.5052
10429SOL     OW32120   2.050   3.461   6.343  0.5741  0.0333 -1.2093
10429SOL    HW132121   1.974   3.402   6.340  0.3852  0.2824 -1.3931
10429SOL    HW232122   2.113   3.422   6.283  0.1368  0.4401 -1.9511
10430SOL     OW32123   0.560   5.580   2.072 -0.2045 -0.4293  0.5550
10430SOL    HW132124   0.575   5.628   1.990 -1.6758 -0.1530  0.4127
10430SOL    HW232125   0.586   5.491   2.053 -1.0784 -0.4982 -0.4309
10431SOL     OW32126   0.647   3.537   2.522  0.3468 -0.0204 -0.3006
10431SOL    HW132127   0.726   3.530   2.575  0.2975  3.6210  0.5328
10431SOL    HW232128   0.580   3.491   2.572  1.3145 -0.6305  0.4598
10432SOL     OW32129   2.059   2.483   3.361  0.2729 -0.2292  0.6486
10432SOL    HW132130   2.149   2.505   3.386 -0.2084  0.7979  1.5266
10432SOL    HW232131   2.016   2.461   3.444 -0.9213  1.6258  0.5564
10433SOL     OW32132   0.446   1.699   7.313  0.4098 -0.6686  0.4347
10433SOL    HW132133   0.396   1.779   7.295  1.0403  0.2186  2.3506
10433SOL    HW232134   0.503   1.689   7.237  0.7309  1.0524  0.4094
10434SOL     OW32135   4.259   2.251   1.140  0.1176 -0.2047 -0.7786
10434SOL    HW132136   4.285   2.168   1.099 -1.1620 -0.9478 -0.1458
10434SOL    HW232137   4.183   2.279   1.089  0.2047  0.2892 -0.6372
10435SOL     OW32138   2.003   1.888   3.323  0.0892  0.1573  0.0682
10435SOL    HW132139   2.076   1.928   3.277 -0.5085 -1.6299 -2.7102
10435SOL    HW232140   1.928   1.944   3.302  0.1428  0.3745  0.4541
10436SOL     OW32141   4.051   0.935   0.716 -0.2112 -0.2658  0.4452
10436SOL    HW132142   4.103   0.960   0.639  0.5415  1.7928  1.5469
10436SOL    HW232143   4.116   0.901   0.778 -0.5049 -0.0034  0.9033
10437SOL     OW32144   6.425   7.222   4.948 -0.1145 -0.0994  0.1581
10437SOL    HW132145   6.439   7.279   4.872  0.8365 -0.8849 -0.2763
10437SOL    HW232146   6.332   7.200   4.945  0.2069 -1.3512 -1.6860
10438SOL     OW32147   5.097   4.615   2.469  0.4362 -0.8365  0.1036
10438SOL    HW132148   5.064   4.557   2.537 -0.9803  1.3170  1.3496
10438SOL    HW232149   5.171   4.661   2.510 -1.5594  1.8227  0.9852
10439SOL     OW32150   0.648   0.430   3.819  0.1685  0.2108 -0.1045
10439SOL    HW132151   0.624   0.521   3.840  1.6064  0.7257 -0.5957
10439SOL    HW232152   0.717   0.438   3.754 -1.3703 -1.3003 -2.0328
10440SOL     OW32153   3.083   4.413   5.244  0.8682  0.0860  0.2489
10440SOL    HW132154   2.994   4.428   5.212  1.0121  1.3370  0.3752
10440SOL    HW232155   3.127   4.369   5.172  0.2752 -0.1387  0.0152
10441SOL     OW32156   1.211   6.340   0.093 -0.4202  0.3112  0.1038
10441SOL    HW132157   1.186   6.377   0.177 -1.1321  1.1241 -0.4395
10441SOL    HW232158   1.133   6.352   0.038 -0.0768 -0.4822 -0.5832
10442SOL     OW32159   4.690   7.707   2.337 -0.6565  0.2315  0.5333
10442SOL    HW132160   4.707   7.801   2.342  0.2596  0.2722 -1.8142
10442SOL    HW232161   4.763   7.667   2.385 -0.6130  0.7071  0.8673
10443SOL     OW32162   0.102   6.739   2.243 -0.2305  0.0470 -0.2516
10443SOL    HW132163   0.132   6.660   2.197  2.0214  0.6494  0.0672
10443SOL    HW232164   0.007   6.738   2.232 -0.1262 -1.8975 -1.5534
10444SOL     OW32165   6.089   2.631   5.042 -0.1674  0.1927 -0.0317
10444SOL    HW132166   6.042   2.689   4.982 -0.2200 -1.0294 -1.2102
10444SOL    HW232167   6.071   2.667   5.129  0.9572  2.7686 -0.7769
10445SOL     OW32168   5.427   5.933   4.695 -0.0703  0.2764 -0.2224
10445SOL    HW132169   5.358   5.994   4.669 -0.2291  0.4523  0.5721
10445SOL    HW232170   5.421   5.930   4.790  1.3285  0.6581 -0.1062
10446SOL     OW32171   7.446   1.038   4.735 -0.0036  0.5468  0.7206
10446SOL    HW132172   7.396   0.961   4.710  0.5253  0.4704 -0.1366
10446SOL    HW232173   7.474   1.021   4.825  0.8246 -0.6367  0.2493
10447SOL     OW32174   2.199   7.353   2.608  0.2967 -0.2971 -0.0185
10447SOL    HW132175   2.126   7.295   2.588 -0.1893 -0.7156  2.6694
10447SOL    HW232176   2.252   7.305   2.672  1.2584  1.2126  0.3779
10448SOL     OW32177   2.309   2.048   2.054  0.0174  0.7202 -0.0937
10448SOL    HW132178   2.218   2.076   2.050 -0.4766 -0.9335 -1.1843
10448SOL    HW232179   2.309   1.974   2.114  0.5234  0.2935 -0.6134
10449SOL     OW32180   7.914   7.559   0.681 -0.3388 -0.0301  0.0243
10449SOL    HW132181   7.883   7.491   0.740 -1.1172  0.1856 -0.1247
10449SOL    HW232182   7.846   7.626   0.683 -0.2005  0.1522 -0.8275
10450SOL     OW32183   4.838   7.502   3.968  0.2843  0.0201 -0.3222
10450SOL    HW132184   4.864   7.427   3.916  0.0487  0.4522 -1.0784
10450SOL    HW232185   4.853   7.475   4.059  2.0286 -0.2490 -0.6550
10451SOL     OW32186   7.596   1.554   1.109 -0.2767  0.3895 -0.0057
10451SOL    HW132187   7.580   1.583   1.019 -0.6021  1.4908  0.3952
10451SOL    HW232188   7.674   1.498   1.103 -1.5140 -1.2914 -1.2830
10452SOL     OW32189   1.126   0.415   5.138  0.0863 -0.0306 -0.2849
10452SOL    HW132190   1.074   0.393   5.215 -0.4128 -0.5161 -0.7448
10452SOL    HW232191   1.190   0.479   5.169  1.2580 -1.7233  0.9801
10453SOL     OW32192   2.885   2.633   1.370  0.2842  0.2980 -0.3733
10453SOL    HW132193   2.888   2.541   1.397  0.5787  0.3952 -0.0671
10453SOL    HW232194   2.897   2.630   1.275  1.9055  0.1128 -0.1863
10454SOL     OW32195   2.552   1.620   0.823  0.2816 -0.1636 -0.0875
10454SOL    HW132196   2.547   1.702   0.871 -0.0388 -0.7414  0.9092
10454SOL    HW232197   2.526   1.643   0.734  1.3799  1.0259 -0.1317
10455SOL     OW32198   5.482   4.130   6.659 -0.0267 -0.0721 -0.0441
10455SOL    HW132199   5.456   4.087   6.578 -1.3293  0.2954  0.1639
10455SOL    HW232200   5.544   4.068   6.699 -1.5907 -1.6534  0.0786
10456SOL     OW32201   5.227   4.597   1.716  0.3349  0.0013 -0.1434
10456SOL    HW132202   5.253   4.555   1.799  0.2733  1.1646  0.4763
10456SOL    HW232203   5.310   4.624   1.677  0.3167  0.1552 -0.0771
10457SOL     OW32204   4.601   2.966   4.672 -0.2992  0.5415 -0.5206
10457SOL    HW132205   4.634   3.005   4.591  1.6401  0.0281 -0.0295
10457SOL    HW232206   4.666   2.900   4.695  0.2397  1.9333  2.4426
10458SOL     OW32207   3.575   4.017   0.408  0.6975 -0.4446  0.5842
10458SOL    HW132208   3.556   3.936   0.455  0.7405 -0.6963  0.1743
10458SOL    HW232209   3.645   4.059   0.458  1.0199 -0.9066  0.5228
10459SOL     OW32210   7.255   5.621   0.363 -0.4357  0.0043 -0.1866
10459SOL    HW132211   7.222   5.630   0.273 -0.1590 -0.0819 -0.2977
10459SOL    HW232212   7.282   5.709   0.388  0.8754 -0.2108 -0.7322
10460SOL     OW32213   1.860   7.006   7.835  0.0016 -0.2895 -0.7534
10460SOL    HW132214   1.922   6.970   7.898  0.6598  0.4308 -0.9773
10460SOL    HW232215   1.849   6.937   7.769 -0.0792 -0.7355 -0.2790
10461SOL     OW32216   6.174   5.837   2.999 -0.2110 -1.1225  0.0896
10461SOL    HW132217   6.186   5.834   3.094  1.6669  1.7982  0.0753
10461SOL    HW232218   6.263   5.836   2.964 -0.8314 -0.8616 -1.5858
10462SOL     OW32219   1.277   5.499   4.570 -0.3077  0.7662  0.3266
10462SOL    HW132220   1.245   5.580   4.529  1.2845  0.7462 -1.0569
10462SOL    HW232221   1.341   5.529   4.634  1.0778  0.6152 -0.9322
10463SOL     OW32222   7.825   3.269   5.356  0.2886  0.0723 -0.4235
10463SOL    HW132223   7.778   3.335   5.407  1.7927  0.4662  0.5300
10463SOL    HW232224   7.916   3.277   5.385  0.4597 -2.7990  0.1348
10464SOL     OW32225   1.980   6.246   2.767  0.6184  0.6083  0.1428
10464SOL    HW132226   1.948   6.259   2.678 -0.4793  0.1738  0.4571
10464SOL    HW232227   2.029   6.164   2.763 -0.0455  0.2094  0.0903
10465SOL     OW32228   6.313   1.177   4.900  0.4625 -0.1503 -0.3158
10465SOL    HW132229   6.327   1.140   4.987  0.7968  2.1597  0.7046
10465SOL    HW232230   6.237   1.131   4.866 -0.0235 -0.7351  1.4439
10466SOL     OW32231   0.318   4.582   7.053  0.3637 -0.2893  0.7110
10466SOL    HW132232   0.345   4.593   6.961  0.7163 -1.0629  0.7135
10466SOL    HW232233   0.235   4.536   7.047  1.1554 -1.7821  0.8042
10467SOL     OW32234   3.494   0.647   7.832  0.6192 -0.6274 -0.4238
10467SOL    HW132235   3.495   0.726   7.777 -0.2841 -0.7044 -0.5704
10467SOL    HW232236   3.562   0.591   7.795  1.0386 -0.0646 -0.5297
10468SOL     OW32237   6.013   1.072   3.428  0.4221  0.1776 -0.1244
10468SOL    HW132238   6.087   1.016   3.406  0.9503 -0.0669  2.0062
10468SOL    HW232239   6.019   1.083   3.523 -3.1532 -1.1163  0.4241
10469SOL     OW32240   4.034   3.751   6.752  0.1198 -0.5145 -0.4781
10469SOL    HW132241   4.058   3.829   6.802 -1.2813  0.1691 -0.8166
10469SOL    HW232242   4.065   3.678   6.805 -2.2022  0.1368  1.9796
10470SOL     OW32243   5.731   2.707   1.466 -0.1210 -0.4713  0.2012
10470SOL    HW132244   5.653   2.712   1.411 -1.2789 -0.0844  1.7848
10470SOL    HW232245   5.748   2.798   1.492 -0.0140 -0.7088  0.9936
10471SOL     OW32246   6.055   1.527   4.048  0.1722  0.1527  0.1400
10471SOL    HW132247   6.028   1.575   4.126 -0.6700  0.4575 -0.3359
10471SOL    HW232248   6.117   1.585   4.004  1.5813 -0.4925  1.1566
10472SOL     OW32249   2.165   0.459   4.030  0.3890  0.1621 -0.1344
10472SOL    HW132250   2.099   0.493   4.090  0.5902  0.9686 -0.3562
10472SOL    HW232251   2.115   0.411   3.964  0.1092 -0.0857  0.2552
10473SOL     OW32252   1.572   7.705   1.204  0.3262 -0.0694  0.5232
10473SOL    HW132253   1.556   7.693   1.298  0.7593  1.0128  0.7526
10473SOL    HW232254   1.488   7.684   1.163  0.6197 -2.3461  0.9643
10474SOL     OW32255   2.470   2.819   6.924 -0.1813 -0.2871  1.1904
10474SOL    HW132256   2.539   2.825   6.990 -0.5604  1.3377  1.4836
10474SOL    HW232257   2.452   2.725   6.917  2.0601 -0.7663  1.0587
10475SOL     OW32258   1.312   6.050   0.990  0.3627 -0.1407 -0.6000
10475SOL    HW132259   1.284   6.125   1.043  0.5156 -0.0751 -0.6101
10475SOL    HW232260   1.232   6.019   0.947  0.5006  0.7413 -1.5122
10476SOL     OW32261   6.206   2.855   6.139 -0.4418  0.0862  0.1705
10476SOL    HW132262   6.200   2.816   6.226  0.5230  0.9310  0.6276
10476SOL    HW232263   6.228   2.946   6.155 -0.9924  0.4308 -0.9409
10477SOL     OW32264   6.376   1.109   0.808  0.0536 -0.0799 -0.1196
10477SOL    HW132265   6.459   1.158   0.806 -0.1235  0.2578  0.4286
10477SOL    HW232266   6.316   1.161   0.755 -0.1438  0.3189  0.4912
10478SOL     OW32267   5.852   4.791   3.299 -0.1163 -0.3160  0.2829
10478SOL    HW132268   5.767   4.822   3.267  0.6582  1.6419  0.0047
10478SOL    HW232269   5.873   4.716   3.243 -1.6321 -0.8362  0.3601
10479SOL     OW32270   3.838   0.430   0.625  0.6816  0.4547  0.0415
10479SOL    HW132271   3.931   0.447   0.636  0.5729  2.4303 -1.5236
10479SOL    HW232272   3.811   0.489   0.555 -1.9455  0.5882  1.0634
10480SOL     OW32273   3.915   2.794   5.048  0.0937  0.3690  0.1749
10480SOL    HW132274   3.893   2.709   5.010 -0.3127  0.2213  0.7202
10480SOL    HW232275   3.964   2.839   4.980  0.8098 -0.5231  0.0833
10481SOL     OW32276   2.974   0.228   6.142 -0.6807 -0.3945 -0.1624
10481SOL    HW132277   2.967   0.272   6.227  1.6341  0.6369 -0.4064
10481SOL    HW232278   2.995   0.299   6.081 -0.1459 -1.4012 -1.1722
10482SOL     OW32279   5.019   4.913   5.892  0.5374  0.4277  0.1995
10482SOL    HW132280   5.005   4.968   5.815 -1.2357 -1.6817 -1.1130
10482SOL    HW232281   4.962   4.950   5.959  1.6682  1.9464  0.3651
10483SOL     OW32282   3.989   2.133   0.849 -0.1072 -0.0850 -0.4099
10483SOL    HW132283   3.988   2.205   0.912  0.1893 -0.7063  0.3222
10483SOL    HW232284   4.080   2.126   0.821  0.0644 -0.8145  0.2892
10484SOL     OW32285   3.535   2.774   4.388  0.3036  0.3445  0.1948
10484SOL    HW132286   3.577   2.806   4.308 -2.8856  0.1093 -1.7370
10484SOL    HW232287   3.460   2.723   4.357  0.0004 -1.3767  3.3504
10485SOL     OW32288   4.154   6.685   7.655 -0.4554  0.1325 -0.3639
10485SOL    HW132289   4.235   6.720   7.693 -0.3530 -0.2398 -0.2264
10485SOL    HW232290   4.161   6.704   7.562 -0.7203  1.0751 -0.1943
10486SOL     OW32291   6.169   2.369   2.130  0.0841 -0.2468 -0.1958
10486SOL    HW132292   6.152   2.295   2.188 -0.4866 -0.4624 -0.6326
10486SOL    HW232293   6.166   2.332   2.042  0.8339  0.0973 -0.3803
10487SOL     OW32294   1.010   4.682   7.073 -0.4517  0.3018 -0.1228
10487SOL    HW132295   1.026   4.612   7.136  0.1940  1.0010  0.4939
10487SOL    HW232296   0.917   4.673   7.050 -0.7229  0.1222  1.0195
10488SOL     OW32297   1.734   2.580   3.642  1.6336 -0.4143  0.1608
10488SOL    HW132298   1.666   2.527   3.683  1.1693 -0.1539 -0.2704
10488SOL    HW232299   1.797   2.517   3.608  2.0130 -0.6372  1.2378
10489SOL     OW32300   0.228   3.598   4.178  0.0459 -0.2715 -0.0866
10489SOL    HW132301   0.271   3.668   4.129  0.7769 -1.1278 -0.7217
10489SOL    HW232302   0.264   3.517   4.139 -1.0031 -0.9925  0.4094
10490SOL     OW32303   6.404   7.566   7.839  0.5213  0.2463 -0.5265
10490SOL    HW132304   6.322   7.609   7.814  1.7165  2.5176 -0.7137
10490SOL    HW232305   6.408   7.489   7.782 -2.3834 -1.0646  0.8307
10491SOL     OW32306   2.989   5.873   5.215  0.5387 -0.5174 -0.0835
10491SOL    HW132307   3.022   5.803   5.270 -0.0192 -1.7586 -1.2599
10491SOL    HW232308   2.930   5.830   5.153  0.8067  0.8584 -1.3810
10492SOL     OW32309   3.710   5.963   4.827 -0.4455  0.9429 -0.8886
10492SOL    HW132310   3.744   5.965   4.916 -0.3354  0.6312 -0.9201
10492SOL    HW232311   3.740   6.044   4.787 -1.1671  1.4595 -0.4035
10493SOL     OW32312   7.339   7.520   3.884  0.0873  0.4073 -0.4935
10493SOL    HW132313   7.426   7.558   3.881  0.4283 -0.3849 -0.7618
10493SOL    HW232314   7.352   7.429   3.913 -0.5993  0.1541 -0.9388
10494SOL     OW32315   3.640   7.092   1.389 -0.0414 -0.0067 -0.0277
10494SOL    HW132316   3.693   7.012   1.382 -0.1709 -0.0993  0.0356
10494SOL    HW232317   3.613   7.111   1.299  1.9548  1.3186 -0.3979
10495SOL     OW32318   3.810   2.467   2.474 -0.3062 -0.7556 -0.3811
10495SOL    HW132319   3.864   2.462   2.395  0.2386 -0.6721 -0.0212
10495SOL    HW232320   3.872   2.491   2.543 -1.1764  1.6100 -0.3465
10496SOL     OW32321   7.490   5.643   5.681 -0.0998  0.4089  0.1995
10496SOL    HW132322   7.525   5.567   5.727 -0.2008  0.1816 -0.0916
10496SOL    HW232323   7.423   5.606   5.623 -0.1650  0.7241  0.0752
10497SOL     OW32324   7.203   2.705   4.484 -0.4498  0.7669 -0.3102
10497SOL    HW132325   7.233   2.642   4.418 -1.7828 -0.4852  0.2327
10497SOL    HW232326   7.141   2.762   4.437 -0.1201  0.9536 -0.5242
10498SOL     OW32327   7.455   7.298   6.563  0.0245  0.1798  0.0620
10498SOL    HW132328   7.450   7.231   6.495 -1.7762  1.3750 -1.0882
10498SOL    HW232329   7.548   7.320   6.569  0.6226 -2.1007  0.2196
10499SOL     OW32330   0.501   1.078   4.745  0.7927  0.1445 -0.0162
10499SOL    HW132331   0.437   1.077   4.816  2.1152 -0.9626  1.2426
10499SOL    HW232332   0.458   1.124   4.674 -1.2401 -0.2150  0.9095
10500SOL     OW32333   1.496   2.297   7.586 -0.0740  0.0499  0.1402
10500SOL    HW132334   1.485   2.260   7.498  3.2447 -0.4101 -0.2271
10500SOL    HW232335   1.530   2.386   7.570  0.1806  0.1058  0.9473
10501SOL     OW32336   0.106   6.847   0.447  0.6104 -0.0587  0.2024
10501SOL    HW132337   0.106   6.865   0.541 -0.4145 -0.3901  0.2789
10501SOL    HW232338   0.015   6.860   0.420  0.6772 -0.9826 -0.5333
10502SOL     OW32339   7.134   3.621   5.712  0.3721  0.0086  0.2815
10502SOL    HW132340   7.136   3.595   5.620  0.0817  0.1432  0.2359
10502SOL    HW232341   7.082   3.554   5.755 -0.1165  0.3406  0.2170
10503SOL     OW32342   1.301   2.201   2.936  0.2583 -0.3873 -0.1563
10503SOL    HW132343   1.323   2.264   3.005 -1.0014  2.6918 -2.3172
10503SOL    HW232344   1.376   2.204   2.876  0.0679 -0.7218 -0.4126
10504SOL     OW32345   3.129   1.805   0.600 -0.1249 -0.1940  0.3884
10504SOL    HW132346   3.116   1.712   0.581 -0.7439 -0.1898  0.7673
10504SOL    HW232347   3.110   1.813   0.693 -1.2907  0.5277  0.0936
10505SOL     OW32348   1.279   1.894   4.877  0.2726 -0.5696  0.0705
10505SOL    HW132349   1.292   1.814   4.927  2.7729 -0.5523 -0.3825
10505SOL    HW232350   1.353   1.950   4.902  0.4045  0.2721 -1.9959
10506SOL     OW32351   7.740   0.155   7.260  0.5075  0.3251 -0.0850
10506SOL    HW132352   7.764   0.225   7.200  0.8083  1.1716  0.9962
10506SOL    HW232353   7.671   0.192   7.314  1.4437  0.1960  1.2397
10507SOL     OW32354   4.169   6.860   7.399  0.0781  0.3738 -0.0602
10507SOL    HW132355   4.139   6.942   7.437 -2.5975 -0.9290  0.9843
10507SOL    HW232356   4.099   6.835   7.338  1.1770 -0.7572 -0.9152
10508SOL     OW32357   6.720   2.499   5.425  0.5436 -0.2202  0.2206
10508SOL    HW132358   6.764   2.569   5.375  0.3324  0.6036  1.1528
10508SOL    HW232359   6.685   2.440   5.358  2.1184 -0.3120 -0.5592
10509SOL     OW32360   1.243   5.110   1.262  0.0016 -0.0939 -0.0464
10509SOL    HW132361   1.294   5.190   1.256 -0.1556  0.0849  0.8276
10509SOL    HW232362   1.181   5.115   1.189  1.4026 -0.4679 -1.3167
10510SOL     OW32363   7.940   1.839   4.596 -0.1676 -0.0831  0.0874
10510SOL    HW132364   7.848   1.859   4.583 -0.5292 -1.6867 -0.0945
10510SOL    HW232365   7.983   1.869   4.516 -0.7854 -0.6495 -0.4724
10511SOL     OW32366   2.737   6.477   3.666 -0.2145  0.2267 -0.2413
10511SOL    HW132367   2.703   6.448   3.581 -2.0910  1.6129 -0.0303
10511SOL    HW232368   2.823   6.514   3.646 -1.9816  3.8175 -2.3099
10512SOL     OW32369   7.734   7.369   6.598 -0.5639  0.5091 -0.0397
10512SOL    HW132370   7.742   7.433   6.527 -0.1284 -0.1998 -0.6388
10512SOL    HW232371   7.805   7.392   6.658 -0.4067  0.5939 -0.2532
10513SOL     OW32372   6.715   6.633   1.673 -0.1683  0.1198 -0.1985
10513SOL    HW132373   6.677   6.572   1.737 -0.5578  1.2354  0.6743
10513SOL    HW232374   6.640   6.685   1.643  0.3296  0.8979 -0.1031
10514SOL     OW32375   1.000   6.119   1.097  0.0530 -0.2161 -0.2613
10514SOL    HW132376   1.018   6.055   1.028  0.3153 -1.8609  1.2600
10514SOL    HW232377   1.086   6.153   1.122 -0.1533  1.5649 -1.7432
10515SOL     OW32378   5.589   2.244   3.782 -0.0269  0.0336 -0.6633
10515SOL    HW132379   5.673   2.289   3.790 -0.1260  1.0530 -3.9054
10515SOL    HW232380   5.569   2.214   3.871  2.6476  1.7065  0.6260
10516SOL     OW32381   7.608   0.275   4.964  0.0431 -0.3955 -0.3233
10516SOL    HW132382   7.554   0.209   5.007  0.0772  0.3442  0.8842
10516SOL    HW232383   7.618   0.345   5.028  1.6167 -0.0602 -0.8662
10517SOL     OW32384   4.700   2.077   1.174 -0.5208  0.4625  0.1255
10517SOL    HW132385   4.631   2.016   1.149 -1.2892  1.3429  0.0352
10517SOL    HW232386   4.761   2.076   1.100 -0.8871  0.3272 -0.1759
10518SOL     OW32387   5.466   5.801   0.216  0.0027  0.5540 -0.3064
10518SOL    HW132388   5.558   5.789   0.241 -0.0795  2.1709  0.9153
10518SOL    HW232389   5.445   5.890   0.244 -2.1129  0.0146 -0.0230
10519SOL     OW32390   3.593   6.758   3.986 -0.1749  0.1475  0.1485
10519SOL    HW132391   3.579   6.690   4.052  0.9242 -0.2791 -0.0420
10519SOL    HW232392   3.673   6.802   4.014 -0.5971  1.0347 -0.0139
10520SOL     OW32393   0.809   2.721   0.515  0.2426 -0.1342 -0.0381
10520SOL    HW132394   0.817   2.670   0.595  0.2157  1.9308  1.3538
10520SOL    HW232395   0.876   2.789   0.522 -0.2646  0.5594 -1.3849
10521SOL     OW32396   4.550   5.091   6.537  0.1822  0.2052 -0.1524
10521SOL    HW132397   4.576   5.090   6.629  1.5895  1.4763 -0.5132
10521SOL    HW232398   4.622   5.048   6.491 -0.7394 -0.8880 -0.6440
10522SOL     OW32399   2.053   2.249   2.820  0.6039  0.4576  0.4195
10522SOL    HW132400   1.965   2.228   2.851  0.8717 -0.4882  0.5617
10522SOL    HW232401   2.059   2.344   2.828 -1.0899  0.7930 -1.3798
10523SOL     OW32402   5.739   1.177   2.496  0.3611 -0.1345 -0.8459
10523SOL    HW132403   5.801   1.245   2.522  1.8980 -2.2197  1.4125
10523SOL    HW232404   5.701   1.146   2.578  0.6206 -2.7788 -1.6264
10524SOL     OW32405   5.111   0.603   1.092  0.3157 -0.1450 -0.1613
10524SOL    HW132406   5.124   0.545   1.017  0.1158  1.8056 -1.7834
10524SOL    HW232407   5.017   0.595   1.112 -0.1144  0.9616 -1.5850
10525SOL     OW32408   3.866   6.268   0.615  0.3573 -0.2387 -0.1844
10525SOL    HW132409   3.953   6.240   0.643  0.6847  0.7613 -0.1524
10525SOL    HW232410   3.874   6.363   0.605 -1.0419  0.0128  0.9152
10526SOL     OW32411   2.691   1.969   7.475  0.5652 -0.0108 -0.3830
10526SOL    HW132412   2.700   1.956   7.569 -2.0203 -0.2541 -0.0834
10526SOL    HW232413   2.671   1.882   7.440 -1.9196  0.5562 -0.5821
10527SOL     OW32414   3.059   1.288   6.151  0.2507 -0.1022  0.0915
10527SOL    HW132415   3.011   1.357   6.196 -0.7372 -0.5696 -0.2295
10527SOL    HW232416   2.992   1.237   6.106  1.1671  0.1505 -1.6644
10528SOL     OW32417   6.306   5.433   7.387  0.2799 -0.0550 -0.0006
10528SOL    HW132418   6.309   5.337   7.388  0.1677 -0.1947 -3.4593
10528SOL    HW232419   6.387   5.459   7.432 -0.7214 -1.6115  2.9782
10529SOL     OW32420   2.701   1.083   2.600  0.5952 -0.1906  0.0754
10529SOL    HW132421   2.646   1.139   2.545  0.0371 -0.3151  0.4929
10529SOL    HW232422   2.790   1.117   2.589  0.3598  0.3389 -0.2114
10530SOL     OW32423   6.930   2.420   7.493 -0.4001 -0.1534 -0.2249
10530SOL    HW132424   6.966   2.357   7.556 -0.4217 -0.2329 -0.2931
10530SOL    HW232425   6.840   2.390   7.479 -1.0404  0.9633  1.1935
10531SOL     OW32426   4.497   6.254   0.258 -0.1471 -0.3461 -0.3965
10531SOL    HW132427   4.540   6.320   0.203  0.8466 -0.0546  0.6661
10531SOL    HW232428   4.518   6.281   0.348 -2.2241 -0.4504  0.1789
10532SOL     OW32429   3.271   5.610   6.336  0.2380 -0.6408  0.4103
10532SOL    HW132430   3.332   5.678   6.305  0.6250 -1.3810 -0.4831
10532SOL    HW232431   3.206   5.658   6.388  0.4606  0.4203 -0.2644
10533SOL     OW32432   7.457   2.522   2.218 -0.0567 -0.1916 -0.3739
10533SOL    HW132433   7.455   2.518   2.123 -1.0494  1.0203 -0.4260
10533SOL    HW232434   7.509   2.600   2.238 -1.3746  0.6299  0.0034
10534SOL     OW32435   4.648   1.044   0.828  0.8525 -0.0130  0.3666
10534SOL    HW132436   4.568   1.060   0.778 -1.0372  0.1692  3.2084
10534SOL    HW232437   4.719   1.070   0.769 -1.3170  4.5762 -0.6537
10535SOL     OW32438   0.120   4.662   5.353  0.4944 -0.1676 -0.3811
10535SOL    HW132439   0.045   4.709   5.390 -0.5988  0.1612 -2.8676
10535SOL    HW232440   0.196   4.707   5.390 -0.4681 -0.2992  1.9577
10536SOL     OW32441   7.590   4.051   0.260  0.0185 -0.0039  0.3125
10536SOL    HW132442   7.626   3.999   0.332  3.1722  0.6610 -0.6424
10536SOL    HW232443   7.625   4.009   0.181 -0.3282  1.4409 -0.6465
10537SOL     OW32444   0.132   6.362   4.462  0.6258 -0.6403 -0.0332
10537SOL    HW132445   0.169   6.414   4.390  0.5782  0.6536  0.8390
10537SOL    HW232446   0.208   6.326   4.507  0.6530 -1.5481 -0.7753
10538SOL     OW32447   4.967   5.783   5.406  0.0448  0.2489 -0.2782
10538SOL    HW132448   5.020   5.859   5.430 -1.0936  0.6613  1.0534
10538SOL    HW232449   4.881   5.802   5.443 -0.9569 -0.5646 -2.0692
10539SOL     OW32450   6.045   0.682   3.330 -0.8086  0.0126  0.0365
10539SOL    HW132451   6.034   0.616   3.261  0.2920  0.3038 -0.4356
10539SOL    HW232452   5.989   0.652   3.401 -1.6456 -0.5180 -0.8241
10540SOL     OW32453   3.139   0.941   5.340  0.1928  0.4483 -0.2868
10540SOL    HW132454   3.118   0.873   5.277 -1.2555 -0.9501  1.6173
10540SOL    HW232455   3.055   0.982   5.361  0.6036  0.7309  0.8924
10541SOL     OW32456   7.127   6.059   5.511  0.2780  0.3188 -0.1400
10541SOL    HW132457   7.083   6.109   5.581 -0.4283 -0.8395  0.2729
10541SOL    HW232458   7.206   6.025   5.553 -0.0409 -0.2024  0.0553
10542SOL     OW32459   7.571   7.450   6.240  0.6139 -0.1676  0.3078
10542SOL    HW132460   7.517   7.418   6.168  2.1357  2.1067 -2.0482
10542SOL    HW232461   7.646   7.390   6.241  0.2168 -0.6746  0.5839
10543SOL     OW32462   1.406   0.502   7.260 -0.6289 -0.2036  0.5051
10543SOL    HW132463   1.366   0.416   7.265  0.5066 -0.6817  1.7968
10543SOL    HW232464   1.384   0.545   7.342 -0.2027  0.2950  0.3724
10544SOL     OW32465   6.186   5.993   6.890  0.5926 -0.4366 -0.6406
10544SOL    HW132466   6.139   5.967   6.969 -1.4634 -0.3182 -1.7469
10544SOL    HW232467   6.279   5.987   6.914  0.0513 -1.1163  1.5223
10545SOL     OW32468   3.658   1.943   0.525  0.4361  0.4209  0.2791
10545SOL    HW132469   3.702   1.994   0.593 -0.3424  2.5342 -0.7122
10545SOL    HW232470   3.572   1.924   0.562  0.8806 -0.6271  0.8244
10546SOL     OW32471   2.922   1.984   4.478 -0.0558  0.2689  0.3308
10546SOL    HW132472   2.900   1.999   4.386 -0.3612  0.0451  0.3673
10546SOL    HW232473   2.851   2.025   4.527 -0.7087 -0.9519  0.4387
10547SOL     OW32474   3.638   5.523   3.726  0.6350  0.8806  0.2748
10547SOL    HW132475   3.660   5.450   3.783 -0.0379 -0.1015 -0.6909
10547SOL    HW232476   3.589   5.584   3.782 -0.4582 -0.2970  0.6441
10548SOL     OW32477   6.876   4.083   3.566 -0.3517  0.6303 -0.2714
10548SOL    HW132478   6.917   4.169   3.567  2.5839 -0.6127  2.2181
10548SOL    HW232479   6.827   4.079   3.649 -0.0984 -0.2295 -0.1519
10549SOL     OW32480   2.130   0.968   4.108 -0.4054 -0.3768 -0.5780
10549SOL    HW132481   2.062   0.902   4.096  1.2840 -2.3292  0.0668
10549SOL    HW232482   2.144   0.971   4.202  0.7759 -0.4446 -0.7351
10550SOL     OW32483   5.790   6.464   2.377  0.3338 -0.0783  0.7273
10550SOL    HW132484   5.777   6.555   2.401  1.4140  0.1306  0.5659
10550SOL    HW232485   5.882   6.446   2.397 -0.0564 -1.3704  1.5325
10551SOL     OW32486   5.984   5.031   4.706  0.1707  0.2543 -0.6685
10551SOL    HW132487   6.017   5.118   4.729 -0.6883  0.6655 -0.9241
10551SOL    HW232488   5.931   5.046   4.627  1.3216 -0.7718 -1.6771
10552SOL     OW32489   2.926   1.813   0.412 -0.4194  0.7137 -0.3326
10552SOL    HW132490   2.867   1.738   0.403 -0.5639  0.7631  0.1567
10552SOL    HW232491   2.972   1.797   0.495  0.9075  0.2277 -1.1400
10553SOL     OW32492   2.541   7.724   0.686  0.2422  0.2746  0.7059
10553SOL    HW132493   2.582   7.731   0.773  0.7201 -1.9675  0.7362
10553SOL    HW232494   2.447   7.730   0.704  0.3872  1.9137  1.0817
10554SOL     OW32495   3.972   3.695   4.185  0.8123  0.0428 -0.2313
10554SOL    HW132496   3.969   3.741   4.269  2.3555  0.0688 -0.1542
10554SOL    HW232497   3.952   3.604   4.207  1.4494  0.0031  0.2218
10555SOL     OW32498   7.355   2.876   1.320 -0.2337 -0.1124 -0.1327
10555SOL    HW132499   7.364   2.971   1.324 -0.0209 -0.0910 -1.0497
10555SOL    HW232500   7.326   2.858   1.231 -0.0380 -0.9255 -0.0371
10556SOL     OW32501   3.703   2.148   4.781 -0.1869 -0.8856  0.5580
10556SOL    HW132502   3.773   2.161   4.846 -1.1160  2.6617  1.0407
10556SOL    HW232503   3.623   2.139   4.833 -0.6272 -0.6684 -0.0730
10557SOL     OW32504   4.031   4.315   0.561 -0.0929  0.4704 -0.0307
10557SOL    HW132505   4.088   4.294   0.635 -0.4928  0.3030  0.2292
10557SOL    HW232506   4.083   4.290   0.484 -0.2296 -0.7137  0.2372
10558SOL     OW32507   2.832   3.004   1.381  0.2050  0.1589 -0.2543
10558SOL    HW132508   2.816   2.993   1.475 -0.7266 -0.6726 -0.4890
10558SOL    HW232509   2.786   3.084   1.358  0.6337  0.4944  0.0347
10559SOL     OW32510   3.994   5.606   1.713  0.9348  0.2875  0.0428
10559SOL    HW132511   4.025   5.556   1.637 -1.3440  0.8966 -1.4080
10559SOL    HW232512   4.022   5.696   1.695  0.4179  0.4268 -0.0929
10560SOL     OW32513   7.683   5.971   6.697  0.3340 -0.4102 -0.3597
10560SOL    HW132514   7.591   5.946   6.686 -0.5754  1.8616  1.1560
10560SOL    HW232515   7.715   5.987   6.608 -1.2750  0.3806 -0.8255
10561SOL     OW32516   7.606   0.834   2.660 -0.1785 -0.0861  0.4183
10561SOL    HW132517   7.619   0.739   2.651  0.5507 -0.0038  0.5083
10561SOL    HW232518   7.607   0.849   2.755 -0.1168  0.0283  0.3997
10562SOL     OW32519   3.548   5.271   4.299  0.0293  0.4251  0.3047
10562SOL    HW132520   3.637   5.256   4.329  0.0604  0.2058  0.1089
10562SOL    HW232521   3.494   5.267   4.378  0.3392  1.8426  0.6085
10563SOL     OW32522   6.624   5.996   3.036  0.5794  0.4004  0.4169
10563SOL    HW132523   6.624   5.973   3.129  2.2620  0.6075  0.4873
10563SOL    HW232524   6.682   6.072   3.030 -1.0176  1.6060 -0.5492
10564SOL     OW32525   0.162   6.924   3.668  0.0601  0.1684 -0.4007
10564SOL    HW132526   0.213   6.854   3.626  0.4205  0.9355 -1.2943
10564SOL    HW232527   0.228   6.988   3.695 -0.2429  0.0451  0.6503
10565SOL     OW32528   5.518   3.831   4.292  0.5565 -0.2847  0.4610
10565SOL    HW132529   5.434   3.816   4.249 -0.1233 -0.9244  1.9407
10565SOL    HW232530   5.509   3.917   4.333  1.3931  0.5598 -1.0513
10566SOL     OW32531   1.771   6.811   5.268 -0.7977  0.0391  0.0592
10566SOL    HW132532   1.851   6.761   5.249 -0.7557  0.3481 -0.5833
10566SOL    HW232533   1.703   6.769   5.214 -0.9855  0.0408  0.2901
10567SOL     OW32534   6.952   1.934   6.924  0.0608 -0.0571 -0.4446
10567SOL    HW132535   6.909   1.885   6.994  0.2581 -0.5288 -0.6496
10567SOL    HW232536   6.885   1.996   6.894 -0.5012 -0.8046 -0.7836
10568SOL     OW32537   7.042   4.550   6.242 -0.2496 -0.4196  0.0622
10568SOL    HW132538   7.131   4.522   6.222  0.7273  1.5418  1.3509
10568SOL    HW232539   7.045   4.646   6.237 -1.9331 -0.2451  1.4418
10569SOL     OW32540   3.487   6.677   2.929  0.1141  0.1463  0.0645
10569SOL    HW132541   3.405   6.628   2.941  0.3185  0.2569  2.2878
10569SOL    HW232542   3.555   6.610   2.921  0.0136  0.0748 -0.2313
10570SOL     OW32543   5.995   1.181   3.710 -0.0228 -0.0619  0.2269
10570SOL    HW132544   5.941   1.102   3.720 -1.6484  0.9322 -0.2389
10570SOL    HW232545   6.042   1.189   3.793 -0.5279 -1.0294  0.6265
10571SOL     OW32546   1.496   1.733   0.004  0.3938  0.2080 -0.0246
10571SOL    HW132547   1.423   1.789  -0.023  0.5523  0.5901  0.3307
10571SOL    HW232548   1.455   1.665   0.058  0.2489  0.1890 -0.1564
10572SOL     OW32549   4.337   7.059   3.719  0.6827  0.2959 -0.0231
10572SOL    HW132550   4.286   7.034   3.642  2.2110  0.8439 -1.2609
10572SOL    HW232551   4.394   6.984   3.735  0.1216  0.0328  0.8323
10573SOL     OW32552   6.450   3.782   4.161  0.3306 -0.0460  0.0912
10573SOL    HW132553   6.419   3.704   4.113 -0.9052  0.9914 -0.8602
10573SOL    HW232554   6.517   3.819   4.104  1.3213 -0.6940  0.8067
10574SOL     OW32555   3.701   4.979   0.590  0.2554 -0.0533 -0.5039
10574SOL    HW132556   3.662   5.066   0.598 -0.0064  0.0203 -2.2164
10574SOL    HW232557   3.641   4.921   0.636 -0.5474  0.4244 -0.9392
10575SOL     OW32558   3.453   7.715   7.579 -0.3651  0.1641 -0.1012
10575SOL    HW132559   3.454   7.620   7.589 -0.1901 -0.1321 -2.4406
10575SOL    HW232560   3.545   7.740   7.577 -0.2999 -0.0448 -2.4042
10576SOL     OW32561   0.436   7.541   7.072  0.3782 -0.5393  0.7383
10576SOL    HW132562   0.514   7.548   7.017 -0.6906 -0.9804 -0.9042
10576SOL    HW232563   0.400   7.629   7.075 -0.7946 -0.8910 -1.2331
10577SOL     OW32564   4.449   1.607   2.600 -0.1992 -0.0983 -0.0237
10577SOL    HW132565   4.494   1.522   2.604 -1.2490 -0.6934 -0.4532
10577SOL    HW232566   4.421   1.615   2.509 -1.6552 -0.1178  0.4088
10578SOL     OW32567   5.397   4.386   0.132  0.2062  0.2896 -0.5296
10578SOL    HW132568   5.384   4.452   0.063  1.1192 -0.0335 -1.0397
10578SOL    HW232569   5.369   4.304   0.092 -0.2427  0.2545 -0.1473
10579SOL     OW32570   0.481   1.931   0.923 -0.3519 -0.1102  0.3384
10579SOL    HW132571   0.567   1.973   0.927 -0.2843 -0.2095 -0.0631
10579SOL    HW232572   0.419   2.004   0.930 -0.2407  0.1396 -0.9964
10580SOL     OW32573   5.800   4.421   0.456  0.3457 -0.1275 -0.0998
10580SOL    HW132574   5.780   4.429   0.549  0.3298  0.5480 -0.1599
10580SOL    HW232575   5.887   4.460   0.447  0.9637 -1.4450 -0.1401
10581SOL     OW32576   6.033   0.850   7.511 -0.3551  0.0343  0.9421
10581SOL    HW132577   6.105   0.848   7.574 -0.1025  2.2884  0.7914
10581SOL    HW232578   6.061   0.791   7.441  2.1599  2.0355  0.1060
10582SOL     OW32579   4.509   7.053   2.345 -0.1030 -0.0626 -0.7747
10582SOL    HW132580   4.469   7.045   2.258 -0.6387  0.5954 -0.5938
10582SOL    HW232581   4.449   7.109   2.394  0.9200  0.7662 -0.4292
10583SOL     OW32582   2.520   4.330   1.806  0.1798 -0.0934  0.7798
10583SOL    HW132583   2.535   4.373   1.889 -0.2803  0.4435  0.5888
10583SOL    HW232584   2.428   4.302   1.809 -0.1061  0.7059  0.1173
10584SOL     OW32585   5.903   5.430   6.285  0.3616  0.1091  0.5481
10584SOL    HW132586   5.846   5.357   6.308  1.2186 -0.4631  0.9112
10584SOL    HW232587   5.861   5.470   6.209  0.8410 -1.9641 -0.9258
10585SOL     OW32588   3.402   2.483   5.300 -0.6259  0.1627  0.8346
10585SOL    HW132589   3.358   2.467   5.384 -1.1070 -0.0622  0.5402
10585SOL    HW232590   3.374   2.570   5.274  0.5445  0.7824  1.5297
10586SOL     OW32591   7.788   0.527   1.719 -0.2940  0.0048  0.3277
10586SOL    HW132592   7.852   0.500   1.785 -0.6366  0.0117  0.6678
10586SOL    HW232593   7.703   0.504   1.757 -0.5564  0.9485  0.3510
10587SOL     OW32594   1.318   0.834   2.004 -0.1729 -0.0139 -0.2918
10587SOL    HW132595   1.379   0.841   1.931 -0.2217 -0.4477 -0.3755
10587SOL    HW232596   1.235   0.808   1.964 -0.7384  1.7541 -0.3319
10588SOL     OW32597   2.834   5.288   1.915  0.3532  0.1054 -0.2351
10588SOL    HW132598   2.903   5.353   1.897 -0.6849  1.6087  1.0261
10588SOL    HW232599   2.773   5.298   1.842  0.6820 -0.1548 -0.5513
10589SOL     OW32600   3.533   2.623   3.864  0.3045 -0.0072 -0.4202
10589SOL    HW132601   3.595   2.621   3.791 -0.7851 -0.4701 -1.3593
10589SOL    HW232602   3.456   2.668   3.829  0.7418  2.2667  1.2825
10590SOL     OW32603   1.218   7.755   7.793  0.0072 -0.2280 -0.1765
10590SOL    HW132604   1.196   7.695   7.864  0.4078  0.4017  0.5086
10590SOL    HW232605   1.134   7.779   7.755 -0.3710  0.5751  1.0764
10591SOL     OW32606   4.773   6.348   0.916 -0.5326  0.1823  0.2021
10591SOL    HW132607   4.709   6.305   0.860 -1.2267  0.6450  0.6174
10591SOL    HW232608   4.774   6.295   0.996  0.3884 -0.4260 -0.1955
10592SOL     OW32609   1.312   7.453   2.404  0.0671 -0.1025  0.4270
10592SOL    HW132610   1.353   7.393   2.466  0.0922  1.0695  1.5905
10592SOL    HW232611   1.218   7.439   2.415  0.0812 -1.1660 -0.5982
10593SOL     OW32612   4.950   0.469   7.632 -0.3662  0.3185  0.1890
10593SOL    HW132613   4.996   0.492   7.712 -0.0592 -1.2230  0.4817
10593SOL    HW232614   4.947   0.551   7.582 -0.9377  1.4195  1.9325
10594SOL     OW32615   7.853   7.298   3.083  0.4453 -0.1826  0.3264
10594SOL    HW132616   7.767   7.283   3.121  0.1054  1.3577  0.1934
10594SOL    HW232617   7.836   7.318   2.991  1.1794 -2.7367 -0.4699
10595SOL     OW32618   6.300   6.648   0.031 -0.4328 -0.5204  0.6510
10595SOL    HW132619   6.257   6.636   0.116  1.2768  1.3488  1.8679
10595SOL    HW232620   6.391   6.666   0.052  0.2248 -0.7845 -1.6621
10596SOL     OW32621   5.475   3.804   1.412 -0.0739 -0.6651  0.1144
10596SOL    HW132622   5.400   3.850   1.374 -0.5861  0.1064  1.9422
10596SOL    HW232623   5.437   3.732   1.461  0.4080 -0.5228  0.7122
10597SOL     OW32624   4.104   3.652   7.203  0.4467  0.5125  0.4988
10597SOL    HW132625   4.125   3.719   7.268  0.7906  0.6781  0.2240
10597SOL    HW232626   4.167   3.582   7.220  1.8416  1.3763 -0.8798
10598SOL     OW32627   7.156   3.432   4.282  0.0615 -0.1933  0.0731
10598SOL    HW132628   7.098   3.496   4.324 -0.7400 -1.0424  0.2964
10598SOL    HW232629   7.110   3.349   4.291  0.5915 -0.6398 -1.1589
10599SOL     OW32630   1.423   4.143   6.773  0.1583  0.3299 -0.3142
10599SOL    HW132631   1.342   4.109   6.734  0.0241 -1.4687  1.3954
10599SOL    HW232632   1.469   4.185   6.700 -1.5075 -0.1414 -1.6980
10600SOL     OW32633   7.305   7.482   0.800  0.3469 -0.1181  0.3915
10600SOL    HW132634   7.236   7.523   0.749 -0.6055  1.1483  2.5256
10600SOL    HW232635   7.384   7.496   0.748 -0.7122  0.0542 -1.2481
10601SOL     OW32636   6.656   7.837   4.822 -0.2438 -0.1140  0.1362
10601SOL    HW132637   6.701   7.838   4.907  0.3204 -1.1052 -0.1276
10601SOL    HW232638   6.623   7.926   4.811  2.8872  1.1428 -0.2630
10602SOL     OW32639   2.781   1.121   1.448 -0.2887  0.0256 -0.2222
10602SOL    HW132640   2.767   1.029   1.426  1.3414 -1.3882  3.7150
10602SOL    HW232641   2.704   1.146   1.499  0.6026 -0.1840  1.2775
10603SOL     OW32642   4.149   3.728   0.657  0.0377 -0.6384  0.2447
10603SOL    HW132643   4.138   3.763   0.745 -0.1682  1.7059 -0.6600
10603SOL    HW232644   4.062   3.730   0.618  0.6313  1.9347 -1.2059
10604SOL     OW32645   1.526   5.566   6.938  0.2312  0.0256  0.0407
10604SOL    HW132646   1.488   5.617   6.867  0.5310 -0.1742 -0.2663
10604SOL    HW232647   1.531   5.627   7.012 -2.3323 -0.3877  0.6545
10605SOL     OW32648   3.066   1.168   0.565  0.0193 -0.4647  0.7816
10605SOL    HW132649   3.028   1.091   0.607 -0.3834  0.2595  1.7718
10605SOL    HW232650   3.026   1.243   0.610 -0.5267  0.3519 -0.9763
10606SOL     OW32651   4.534   2.704   5.414 -0.6541  1.0614 -0.5237
10606SOL    HW132652   4.568   2.616   5.399  0.2927  1.2156  0.5119
10606SOL    HW232653   4.439   2.696   5.404 -0.5878 -0.0983 -0.3294
10607SOL     OW32654   5.439   0.290   1.782 -0.4350 -0.0696 -0.4276
10607SOL    HW132655   5.474   0.370   1.821 -1.5140  0.0235  0.4026
10607SOL    HW232656   5.515   0.248   1.741  0.3440  0.8491  0.0286
10608SOL     OW32657   6.659   3.051   7.328 -0.1676 -0.0436  0.2612
10608SOL    HW132658   6.684   2.982   7.266  0.8969 -0.1591  0.7841
10608SOL    HW232659   6.726   3.046   7.397 -1.1122  0.3293  1.2295
10609SOL     OW32660   5.215   4.444   2.256 -0.0518 -0.6161  0.1460
10609SOL    HW132661   5.145   4.491   2.302  0.4234  0.2040  0.0443
10609SOL    HW232662   5.290   4.448   2.315 -0.0988 -1.5648  0.2902
10610SOL     OW32663   7.074   4.131   5.878 -0.3442 -0.4125 -0.1628
10610SOL    HW132664   7.085   4.154   5.786 -0.9672  0.1135 -0.1085
10610SOL    HW232665   7.045   4.039   5.876 -3.3123  0.4214 -0.6810
10611SOL     OW32666   2.726   1.020   3.456 -0.4687  0.0828 -0.2673
10611SOL    HW132667   2.798   0.957   3.449 -0.3492  0.3409 -1.5375
10611SOL    HW232668   2.760   1.099   3.414 -1.6042  0.1131 -1.1424
10612SOL     OW32669   4.410   6.170   5.844  0.0095  0.3511 -0.6410
10612SOL    HW132670   4.374   6.252   5.810 -0.2996  1.0577  1.2386
10612SOL    HW232671   4.492   6.196   5.885 -0.0376 -0.3016 -0.1208
10613SOL     OW32672   7.275   5.086   4.428 -0.2884  0.6893  0.0492
10613SOL    HW132673   7.305   5.141   4.501 -2.0111  0.4237  1.0237
10613SOL    HW232674   7.227   5.015   4.470 -0.2218 -0.1956 -1.3100
10614SOL     OW32675   5.159   6.126   2.416 -0.1119 -0.3414 -0.0646
10614SOL    HW132676   5.134   6.176   2.494 -1.3873  0.6447 -1.0683
10614SOL    HW232677   5.079   6.081   2.390  0.2355 -0.4432 -0.9730
10615SOL     OW32678   3.966   3.868   2.469 -0.9129 -0.4929  0.4002
10615SOL    HW132679   3.890   3.921   2.489  0.3418  1.7700 -0.5087
10615SOL    HW232680   3.985   3.886   2.377  3.0438  2.3525  1.5098
10616SOL     OW32681   2.352   7.698   7.679  0.1487 -0.0556  0.0690
10616SOL    HW132682   2.335   7.678   7.587  0.0501  1.0455 -0.1673
10616SOL    HW232683   2.309   7.628   7.727 -1.2213  0.2266 -0.6812
10617SOL     OW32684   1.273   2.755   5.295  0.5869  0.5658 -0.0542
10617SOL    HW132685   1.230   2.783   5.376  0.0571  0.6880 -0.3715
10617SOL    HW232686   1.292   2.837   5.250 -0.3482  0.4568 -0.6720
10618SOL     OW32687   0.598   0.890   0.440  0.5066 -0.0193  0.3853
10618SOL    HW132688   0.580   0.890   0.346 -0.0445 -1.0888  0.4794
10618SOL    HW232689   0.517   0.861   0.481  1.5161 -2.2561  0.9922
10619SOL     OW32690   7.816   6.373   4.397 -0.1967  0.0204  0.0289
10619SOL    HW132691   7.904   6.348   4.426 -1.0022 -1.3695  1.4122
10619SOL    HW232692   7.807   6.464   4.425  0.8950  0.2729 -0.3852
10620SOL     OW32693   7.240   5.652   6.151  0.0933  0.4872  0.4025
10620SOL    HW132694   7.290   5.664   6.233  0.8786 -1.0898  0.1981
10620SOL    HW232695   7.303   5.610   6.092 -1.2887 -1.0139 -0.0671
10621SOL     OW32696   7.435   4.501   5.321 -0.9653  0.1588 -0.1890
10621SOL    HW132697   7.449   4.467   5.233 -0.7663  1.6959 -0.7755
10621SOL    HW232698   7.497   4.452   5.376  1.0844  1.2568 -1.4075
10622SOL     OW32699   2.658   6.605   5.566 -0.0576 -0.3474  0.3044
10622SOL    HW132700   2.646   6.511   5.553  1.7496 -0.6008  0.2217
10622SOL    HW232701   2.737   6.627   5.516 -1.3289  1.5572 -1.0391
10623SOL     OW32702   6.195   6.558   6.360 -0.3710  0.5420 -0.1525
10623SOL    HW132703   6.188   6.462   6.364 -1.2785  0.6041  0.1193
10623SOL    HW232704   6.276   6.575   6.312 -0.8048 -0.3672 -1.2424
10624SOL     OW32705   0.451   0.646   4.805  0.0203 -0.4125 -0.4224
10624SOL    HW132706   0.503   0.717   4.842 -0.4634 -0.0523 -0.4302
10624SOL    HW232707   0.515   0.577   4.785  0.3101 -0.5566  0.9282
10625SOL     OW32708   5.191   5.564   4.264 -0.2869 -0.3485 -0.0325
10625SOL    HW132709   5.147   5.643   4.296  0.1002  0.1895 -0.8046
10625SOL    HW232710   5.281   5.572   4.293 -0.1002 -0.2022 -0.6434
10626SOL     OW32711   4.760   2.946   0.550  0.0757  0.2626 -0.9133
10626SOL    HW132712   4.742   2.921   0.641 -1.6924  0.0117 -1.3021
10626SOL    HW232713   4.768   2.863   0.503  0.4444  0.3963 -1.0916
10627SOL     OW32714   3.318   3.202   4.569 -0.2172  0.0752  0.6074
10627SOL    HW132715   3.343   3.168   4.483 -0.0011  0.3128  0.5766
10627SOL    HW232716   3.401   3.227   4.610 -0.4365  1.3764  0.2922
10628SOL     OW32717   0.572   3.140   3.323  0.3912 -0.3818 -0.1711
10628SOL    HW132718   0.573   3.236   3.328 -2.3315 -0.3223  1.2094
10628SOL    HW232719   0.522   3.113   3.400  0.6560 -2.8985 -0.8012
10629SOL     OW32720   3.624   3.974   5.126  0.7355 -0.7885  0.0278
10629SOL    HW132721   3.610   3.888   5.086  2.4688 -1.0086 -0.1710
10629SOL    HW232722   3.585   3.966   5.213  2.0274 -2.2575  0.5252
10630SOL     OW32723   4.788   4.753   3.845 -0.0311 -0.2048 -0.3353
10630SOL    HW132724   4.754   4.840   3.865  0.5531 -0.3931  1.6620
10630SOL    HW232725   4.861   4.769   3.785  0.2771  0.7341  0.2662
10631SOL     OW32726   5.351   5.145   3.968 -0.3885  0.0729  0.1725
10631SOL    HW132727   5.336   5.185   4.053  0.1326  1.6466 -0.4402
10631SOL    HW232728   5.439   5.174   3.942 -0.1725 -1.1152 -0.5088
10632SOL     OW32729   1.520   7.268   4.469  0.1782  0.3268 -0.1353
10632SOL    HW132730   1.596   7.235   4.516 -0.6048  0.0486  0.9709
10632SOL    HW232731   1.449   7.267   4.533 -0.7912  0.4834 -1.1649
10633SOL     OW32732   5.169   7.534   5.493  0.1523  0.5332  0.3355
10633SOL    HW132733   5.256   7.560   5.521  0.9363  0.5382 -1.8775
10633SOL    HW232734   5.176   7.523   5.398 -1.6120 -1.9887  0.3771
10634SOL     OW32735   0.623   6.584   4.963 -0.8166  0.3822  0.3628
10634SOL    HW132736   0.666   6.641   4.899 -1.6353  2.5150  1.5853
10634SOL    HW232737   0.689   6.519   4.987 -0.5796 -0.7031 -2.7911
10635SOL     OW32738   3.412   0.415   2.561  0.1570  0.1724 -0.1238
10635SOL    HW132739   3.437   0.472   2.633 -1.1512  0.1279  0.4013
10635SOL    HW232740   3.493   0.396   2.515  1.2199 -0.6897  1.9727
10636SOL     OW32741   6.198   6.455   4.750  0.1611  0.5986  0.1590
10636SOL    HW132742   6.104   6.448   4.767  0.3815 -0.4543  0.9648
10636SOL    HW232743   6.225   6.366   4.727  1.0352  0.8340  0.2659
10637SOL     OW32744   3.868   6.064   5.739 -0.2209 -0.0192 -0.2234
10637SOL    HW132745   3.825   6.128   5.795  0.3942 -0.3549  0.6641
10637SOL    HW232746   3.798   6.025   5.688 -0.6455  1.1237 -0.5477
10638SOL     OW32747   6.637   5.672   3.546 -0.0739  0.2652 -0.8392
10638SOL    HW132748   6.633   5.768   3.553 -2.4302  0.1291  0.9095
10638SOL    HW232749   6.708   5.647   3.606  0.6576  0.8910 -1.4213
10639SOL     OW32750   4.007   7.745   3.116 -0.0938  0.1787 -0.0011
10639SOL    HW132751   4.093   7.709   3.097 -0.4124  0.0397 -1.2425
10639SOL    HW232752   3.945   7.682   3.079 -0.6664  1.9022 -2.1851
10640SOL     OW32753   5.000   5.427   6.107 -0.2819 -0.2221  0.1417
10640SOL    HW132754   4.987   5.349   6.161 -0.7973  1.8594  3.2775
10640SOL    HW232755   5.069   5.402   6.045 -0.2123 -3.0289  1.2117
10641SOL     OW32756   3.468   6.010   5.264 -0.0549 -0.3002 -0.0335
10641SOL    HW132757   3.486   6.093   5.309 -2.0676  0.5073 -0.6102
10641SOL    HW232758   3.405   5.966   5.321 -1.4287  0.0260 -1.2520
10642SOL     OW32759   6.974   5.366   4.246  0.5673 -0.0894  0.0363
10642SOL    HW132760   6.939   5.336   4.330 -1.2614 -2.7636 -1.5224
10642SOL    HW232761   7.069   5.362   4.256  0.3837 -0.9435  1.7857
10643SOL     OW32762   5.629   1.648   3.718 -0.0784 -0.1181  0.0976
10643SOL    HW132763   5.604   1.603   3.637 -0.6756  0.9943 -0.3598
10643SOL    HW232764   5.608   1.586   3.787 -3.4316  0.3705 -0.3056
10644SOL     OW32765   2.726   1.969   7.734 -0.7716 -0.0554  0.3723
10644SOL    HW132766   2.821   1.976   7.728 -0.7068  0.3616  1.5617
10644SOL    HW232767   2.703   2.026   7.808 -1.9933  0.2221 -0.1954
10645SOL     OW32768   1.795   3.438   3.492 -0.2302 -0.1726 -0.1552
10645SOL    HW132769   1.784   3.507   3.426 -0.6897  0.5983  0.7128
10645SOL    HW232770   1.740   3.465   3.565 -0.4480 -1.4930  0.1920
10646SOL     OW32771   2.947   0.372   0.730  0.4086  0.2602  1.0190
10646SOL    HW132772   2.971   0.280   0.718 -1.7028 -0.5948  2.6774
10646SOL    HW232773   2.896   0.394   0.652 -0.2046 -0.4209  1.2150
10647SOL     OW32774   2.501   4.985   4.033  0.1603  0.4651  0.0785
10647SOL    HW132775   2.579   5.020   3.990  1.1484 -3.0423 -1.2753
10647SOL    HW232776   2.535   4.930   4.104 -1.3249  2.2073  2.2772
10648SOL     OW32777   7.068   2.999   7.927 -0.9911  0.0487  0.2168
10648SOL    HW132778   7.092   2.907   7.936 -0.9389 -0.0604 -0.8849
10648SOL    HW232779   6.977   3.003   7.956 -0.5944 -0.0982  1.5135
10649SOL     OW32780   2.636   0.613   5.878 -0.2847 -0.5953  0.9098
10649SOL    HW132781   2.548   0.595   5.911 -0.8685  0.0004 -0.2555
10649SOL    HW232782   2.639   0.570   5.793  0.9246 -1.4741  1.3745
10650SOL     OW32783   4.566   7.116   6.820 -0.1760  0.1189 -1.1754
10650SOL    HW132784   4.542   7.028   6.792  1.3944 -0.0207 -2.2423
10650SOL    HW232785   4.650   7.133   6.775  0.8186  1.1902  0.9507
10651SOL     OW32786   5.635   0.549   0.249  0.6034  0.3491  0.2508
10651SOL    HW132787   5.603   0.531   0.338 -0.1741 -0.2043 -0.1246
10651SOL    HW232788   5.710   0.491   0.238 -0.3578 -0.9069 -0.0491
10652SOL     OW32789   6.382   7.120   6.379  0.3846 -0.5965 -0.3700
10652SOL    HW132790   6.440   7.067   6.432 -0.4992 -1.3046 -0.0834
10652SOL    HW232791   6.308   7.140   6.437 -0.1068 -0.5168 -1.0056
10653SOL     OW32792   2.394   6.771   1.215  0.1972 -0.3368  0.4955
10653SOL    HW132793   2.386   6.699   1.152 -0.7662  0.0741  0.1199
10653SOL    HW232794   2.347   6.740   1.292 -0.5794  0.0335  0.1846
10654SOL     OW32795   5.482   1.881   3.757  0.1359  0.2785  0.0989
10654SOL    HW132796   5.502   1.917   3.670  2.5636  2.0378  1.2777
10654SOL    HW232797   5.532   1.800   3.761  1.1105  0.8832  0.3238
10655SOL     OW32798   3.305   6.697   1.500  0.0073  0.3410  0.3946
10655SOL    HW132799   3.307   6.743   1.417  1.2255  1.6144  1.0841
10655SOL    HW232800   3.337   6.609   1.481  2.4268  1.2663 -0.1494
10656SOL     OW32801   5.844   1.488   4.326  0.0742  0.1942  0.3967
10656SOL    HW132802   5.907   1.437   4.377 -0.0714  0.4252  0.8150
10656SOL    HW232803   5.827   1.566   4.380  1.5411  1.5179 -0.9398
10657SOL     OW32804   0.807   3.454   2.937 -0.3414 -0.0468 -0.2274
10657SOL    HW132805   0.758   3.520   2.987 -1.7951 -0.3877 -1.1366
10657SOL    HW232806   0.766   3.371   2.962  0.1086 -0.3955 -0.6410
10658SOL     OW32807   6.984   2.643   1.175 -0.3829  0.2855  0.2112
10658SOL    HW132808   6.929   2.567   1.190 -0.2979 -0.0116 -0.8897
10658SOL    HW232809   6.941   2.714   1.223  0.0718 -0.6321  2.1005
10659SOL     OW32810   0.606   7.919   2.435  0.0748 -0.1785  0.4355
10659SOL    HW132811   0.567   7.845   2.482  0.7880 -0.0591  1.2409
10659SOL    HW232812   0.628   7.883   2.349 -0.5736 -0.6103  0.4475
10660SOL     OW32813   5.404   6.006   0.354 -0.3307  0.0756 -0.3029
10660SOL    HW132814   5.369   6.095   0.356 -3.0834 -0.8891 -0.7028
10660SOL    HW232815   5.367   5.964   0.432  0.7282 -0.7805 -0.2450
10661SOL     OW32816   2.713   1.302   7.289  0.2373  0.0543 -0.1521
10661SOL    HW132817   2.638   1.297   7.230  0.4902  0.7408 -0.5416
10661SOL    HW232818   2.676   1.287   7.376 -0.9134  3.3913  0.0594
10662SOL     OW32819   5.797   3.939   6.103 -0.1852  0.0379  0.3063
10662SOL    HW132820   5.726   3.880   6.129  0.2125 -0.9148 -0.6927
10662SOL    HW232821   5.872   3.881   6.088  0.1769  0.7832 -0.8730
10663SOL     OW32822   4.045   5.043   2.987  0.6398 -0.0286 -0.0322
10663SOL    HW132823   4.014   5.107   2.923 -0.9198 -1.0561 -0.3677
10663SOL    HW232824   3.969   4.987   3.003  0.9805  0.1388  2.6683
10664SOL     OW32825   6.662   5.592   6.945  0.2552 -0.0111  0.3050
10664SOL    HW132826   6.599   5.586   7.017  0.3674  2.9639  0.7965
10664SOL    HW232827   6.620   5.548   6.872 -1.2402 -0.3822  1.3489
10665SOL     OW32828   7.431   1.045   1.569 -0.2800  0.1670  0.2488
10665SOL    HW132829   7.400   1.132   1.596 -0.7309 -0.0716  0.5006
10665SOL    HW232830   7.363   1.013   1.510  0.6561  0.6579 -1.1670
10666SOL     OW32831   5.779   0.209   0.554 -0.2108 -0.0297  0.1388
10666SOL    HW132832   5.864   0.227   0.514 -0.3224  2.4862  0.8974
10666SOL    HW232833   5.748   0.130   0.509  1.2704  0.6017 -2.1689
10667SOL     OW32834   5.606   6.046   4.033  0.0182  0.4853 -0.0206
10667SOL    HW132835   5.537   6.086   3.980  0.6550  0.3094 -0.9964
10667SOL    HW232836   5.622   5.961   3.992  1.7929  1.0971 -0.6799
10668SOL     OW32837   1.576   0.893   1.491 -0.3157  0.1176  0.3796
10668SOL    HW132838   1.652   0.874   1.547 -0.7508 -0.4650  0.7857
10668SOL    HW232839   1.568   0.988   1.493  0.2615  0.1696  0.5268
10669SOL     OW32840   3.820   4.805   3.522 -0.3288 -0.0872 -0.2223
10669SOL    HW132841   3.900   4.818   3.472 -0.8802 -0.7910 -1.3128
10669SOL    HW232842   3.790   4.894   3.543  0.5671  0.1845 -0.0617
10670SOL     OW32843   6.637   7.497   7.389 -0.4004  0.1918 -0.4806
10670SOL    HW132844   6.569   7.549   7.432 -1.1027  0.4105 -1.8085
10670SOL    HW232845   6.620   7.407   7.417  0.2961  0.5213  1.1428
10671SOL     OW32846   4.686   4.458   0.567  0.4051  0.0225  1.2066
10671SOL    HW132847   4.746   4.446   0.493 -0.9520 -0.2916  0.1207
10671SOL    HW232848   4.710   4.543   0.603  0.0073  1.0013 -0.6778
10672SOL     OW32849   0.019   6.535   6.747  0.4980 -0.3305  0.0073
10672SOL    HW132850   0.039   6.569   6.660  0.7626 -0.1591  0.1330
10672SOL    HW232851  -0.057   6.586   6.775  0.5560 -0.2242 -0.0282
10673SOL     OW32852   0.609   5.147   2.447  0.0262  0.5916 -0.0970
10673SOL    HW132853   0.701   5.137   2.424  0.6424  0.1327  2.3588
10673SOL    HW232854   0.582   5.060   2.478 -1.6166  0.3858 -1.8816
10674SOL     OW32855   7.873   4.945   1.741  0.2422  0.2409  0.2173
10674SOL    HW132856   7.895   4.923   1.651  1.2172 -0.3428  0.5765
10674SOL    HW232857   7.853   5.038   1.740  0.7388  0.3395 -0.5135
10675SOL     OW32858   4.806   4.056   3.358 -0.0087  0.0505  0.0820
10675SOL    HW132859   4.746   4.062   3.283 -0.3355 -2.3432  0.0677
10675SOL    HW232860   4.877   4.117   3.337 -1.3104  1.2988 -0.9591
10676SOL     OW32861   3.215   4.715   0.965 -0.1243  0.2337  1.0992
10676SOL    HW132862   3.294   4.667   0.940 -0.7151 -0.8416  1.2287
10676SOL    HW232863   3.247   4.800   0.996  0.7642  1.0659 -1.7992
10677SOL     OW32864   6.209   7.114   7.923 -0.0774 -0.3798  0.8502
10677SOL    HW132865   6.192   7.128   7.829 -1.9899 -2.7754  0.7412
10677SOL    HW232866   6.230   7.201   7.956  1.1775  0.4769 -1.8795
10678SOL     OW32867   7.288   1.512   5.214 -0.0501  0.2652  0.5666
10678SOL    HW132868   7.265   1.430   5.258  1.0834 -0.5703 -0.3365
10678SOL    HW232869   7.363   1.489   5.159  0.3729  1.9487  0.3972
10679SOL     OW32870   6.327   4.507   0.852 -0.2471  0.1434 -1.0404
10679SOL    HW132871   6.262   4.455   0.899  1.5061 -0.5672  0.7329
10679SOL    HW232872   6.315   4.596   0.885 -0.5578  0.0808 -0.9819
10680SOL     OW32873   2.279   0.839   3.906  0.1752  0.0071  0.0326
10680SOL    HW132874   2.306   0.909   3.846  0.0415 -0.4194 -0.5355
10680SOL    HW232875   2.214   0.879   3.962 -0.2648  0.2098 -0.6120
10681SOL     OW32876   6.041   1.707   2.748  0.0197 -0.1941  0.0688
10681SOL    HW132877   6.070   1.636   2.690  1.2320 -0.6723  1.2190
10681SOL    HW232878   5.969   1.668   2.798  0.1607 -0.3659  0.1418
10682SOL     OW32879   4.680   2.096   4.894  0.0787 -0.3986  0.2168
10682SOL    HW132880   4.728   2.160   4.946 -1.7527  0.2862  1.1304
10682SOL    HW232881   4.700   2.012   4.934 -0.2784 -0.0115  1.2290
10683SOL     OW32882   2.919   4.334   5.501  0.7351  0.0270  0.4072
10683SOL    HW132883   3.007   4.322   5.537  0.7943  0.8055  0.5435
10683SOL    HW232884   2.911   4.266   5.434  1.1317 -0.5650  0.9543
10684SOL     OW32885   0.024   7.830   6.094 -0.1050 -0.3354  0.0329
10684SOL    HW132886  -0.011   7.915   6.070 -2.4204 -1.4866 -0.9463
10684SOL    HW232887   0.104   7.822   6.041  0.0363  1.1024 -0.0114
10685SOL     OW32888   7.005   4.373   2.769  0.1369  0.0194 -0.5122
10685SOL    HW132889   6.912   4.366   2.791 -0.3511 -0.4679 -2.5473
10685SOL    HW232890   7.012   4.451   2.714  1.3463  1.3129  1.3427
10686SOL     OW32891   3.286   1.182   5.839  0.0470 -0.5601  0.0928
10686SOL    HW132892   3.318   1.132   5.765 -2.4264 -0.5461 -1.0917
10686SOL    HW232893   3.243   1.118   5.895  0.8559 -0.3923  0.9287
10687SOL     OW32894   6.006   4.168   6.800 -0.5908 -0.0666 -0.3531
10687SOL    HW132895   6.080   4.189   6.858 -0.1997 -0.1760 -0.8081
10687SOL    HW232896   6.044   4.169   6.712 -0.2536 -3.7677 -0.3890
10688SOL     OW32897   6.054   1.955   2.828 -0.2318  0.4606  0.0745
10688SOL    HW132898   6.050   1.867   2.790 -2.3286  0.4782  0.1443
10688SOL    HW232899   5.997   2.008   2.773  0.9306  1.7948  0.0884
10689SOL     OW32900   0.751   1.262   5.123  0.1382 -0.0351 -0.1428
10689SOL    HW132901   0.656   1.263   5.138 -0.1189 -0.8751 -1.5312
10689SOL    HW232902   0.787   1.315   5.194 -1.2499 -0.9509  1.3174
10690SOL     OW32903   1.656   6.685   1.004  0.0473 -0.1455  0.5992
10690SOL    HW132904   1.724   6.666   0.939 -0.4342  0.7189 -0.1743
10690SOL    HW232905   1.589   6.732   0.955  0.1246  1.4089  1.9396
10691SOL     OW32906   4.370   4.923   5.286 -0.8230 -0.2996 -0.0209
10691SOL    HW132907   4.456   4.893   5.258 -1.4886  0.0979 -2.7109
10691SOL    HW232908   4.382   4.948   5.378  1.7589 -0.8217 -0.1571
10692SOL     OW32909   3.754   1.946   1.201  0.4698  0.3408 -0.9172
10692SOL    HW132910   3.759   2.026   1.148 -1.5087 -0.1791 -1.9884
10692SOL    HW232911   3.723   1.879   1.140 -2.1360 -0.2416  0.9029
10693SOL     OW32912   2.712   0.779   3.171  0.1844  0.0443  0.0962
10693SOL    HW132913   2.749   0.803   3.256  0.4528 -0.5045  0.1395
10693SOL    HW232914   2.620   0.763   3.189  0.9207 -4.1473  1.2112
10694SOL     OW32915   4.196   6.127   4.293  0.6660  0.1579 -0.4760
10694SOL    HW132916   4.105   6.119   4.321  1.0574 -0.5672  0.6493
10694SOL    HW232917   4.191   6.164   4.205 -0.7130  0.0994 -0.4381
10695SOL     OW32918   1.258   6.704   2.894  0.9074 -0.2279  0.0595
10695SOL    HW132919   1.255   6.791   2.854  1.1517  0.6058  1.7915
10695SOL    HW232920   1.301   6.650   2.828 -0.3013  0.6623 -1.5397
10696SOL     OW32921   1.226   7.048   0.504  0.0757 -0.5455  0.1985
10696SOL    HW132922   1.279   7.015   0.432  2.4932  0.7087  1.2714
10696SOL    HW232923   1.233   6.981   0.572  2.0591  0.4346  1.0633
10697SOL     OW32924   6.543   6.729   5.665  0.2644 -0.1010 -0.1703
10697SOL    HW132925   6.567   6.639   5.646  1.9412  0.2412  0.2011
10697SOL    HW232926   6.612   6.761   5.722  0.1233  1.6628 -0.9189
10698SOL     OW32927   6.521   0.168   0.967  0.1641 -0.0132  0.1216
10698SOL    HW132928   6.513   0.074   0.953  0.1347  0.2030 -1.5191
10698SOL    HW232929   6.601   0.193   0.920 -0.4260  0.9475 -0.4014
10699SOL     OW32930   7.033   0.435   1.171 -0.0495  0.4353  0.6303
10699SOL    HW132931   7.035   0.529   1.151 -0.5428  0.6680  1.6012
10699SOL    HW232932   7.079   0.428   1.254  0.0781 -0.2050  0.5108
10700SOL     OW32933   3.443   5.398   7.889 -0.4378 -0.2297 -0.1901
10700SOL    HW132934   3.476   5.362   7.807  0.2897  1.9743 -0.9287
10700SOL    HW232935   3.512   5.458   7.919 -2.2391  1.9045 -0.0038
10701SOL     OW32936   6.212   7.708   0.318 -0.6884  0.0348  0.2822
10701SOL    HW132937   6.243   7.727   0.230 -1.0112 -2.1316 -0.3619
10701SOL    HW232938   6.125   7.749   0.323 -1.7403 -1.8562 -1.3290
10702SOL     OW32939   0.485   5.489   0.028  0.0494 -0.3193 -0.1502
10702SOL    HW132940   0.484   5.490   0.123  3.0634 -1.3156 -0.0042
10702SOL    HW232941   0.524   5.572   0.002  1.1699 -0.8801 -0.3581
10703SOL     OW32942   0.017   5.220   6.522 -0.2261  0.2594 -0.0904
10703SOL    HW132943   0.100   5.179   6.498 -0.7500 -0.7424 -0.2542
10703SOL    HW232944  -0.039   5.206   6.446 -0.8286  0.1268  0.3741
10704SOL     OW32945   3.782   5.121   2.628  0.6384  0.1276 -0.4682
10704SOL    HW132946   3.758   5.209   2.599  0.0028  0.2127  0.2544
10704SOL    HW232947   3.731   5.062   2.572 -0.1957  0.2746  0.1156
10705SOL     OW32948   6.440   5.821   2.922 -0.0622 -0.2369  0.1543
10705SOL    HW132949   6.484   5.737   2.911 -0.9676 -0.7169  0.1210
10705SOL    HW232950   6.505   5.877   2.965  0.8303 -0.7023 -0.5514
10706SOL     OW32951   4.320   5.336   0.102  0.3887  0.1601  0.0025
10706SOL    HW132952   4.374   5.389   0.044  0.3248  0.3257  0.0947
10706SOL    HW232953   4.377   5.315   0.176  0.3903  0.1622  0.0017
10707SOL     OW32954   5.751   2.781   3.484 -0.0360  0.4308  0.2915
10707SOL    HW132955   5.671   2.829   3.506 -1.3829 -0.9548 -1.3492
10707SOL    HW232956   5.780   2.744   3.568 -1.2762  0.7133  0.8707
10708SOL     OW32957   6.492   6.608   5.919 -0.1211 -0.8198 -0.4281
10708SOL    HW132958   6.456   6.689   5.883  1.6711  0.5844  0.7659
10708SOL    HW232959   6.497   6.548   5.845 -0.7352  0.4376 -1.5183
10709SOL     OW32960   0.254   2.149   1.908 -0.2098 -0.1890  0.0688
10709SOL    HW132961   0.320   2.218   1.897  1.1839 -1.4669  0.0519
10709SOL    HW232962   0.188   2.188   1.965  0.8610  0.9531  0.5858
10710SOL     OW32963   0.443   3.879   0.589 -0.4138 -0.3398  0.3738
10710SOL    HW132964   0.442   3.820   0.514 -0.8020  1.4916 -1.1392
10710SOL    HW232965   0.531   3.872   0.625 -0.8053 -2.7101  1.0134
10711SOL     OW32966   3.393   1.439   7.622 -0.5489 -0.6609  0.3088
10711SOL    HW132967   3.355   1.428   7.535  1.8243 -1.8203 -0.6681
10711SOL    HW232968   3.399   1.534   7.635  1.6664 -0.3978 -2.0621
10712SOL     OW32969   3.092   2.381   6.093 -0.1906  0.1264  0.0626
10712SOL    HW132970   3.030   2.393   6.166 -1.2471 -0.6747 -0.6803
10712SOL    HW232971   3.043   2.407   6.015  1.4832  2.6919 -0.2500
10713SOL     OW32972   2.330   7.177   4.972 -0.2118  0.3327  0.4774
10713SOL    HW132973   2.358   7.096   4.930  0.7248  0.0206  1.6587
10713SOL    HW232974   2.234   7.174   4.968 -0.2973 -1.8611  2.3107
10714SOL     OW32975   2.764   7.614   5.339 -0.3028 -0.6447 -0.1815
10714SOL    HW132976   2.701   7.566   5.285 -0.4506  0.9923 -1.5125
10714SOL    HW232977   2.711   7.670   5.394 -0.0509  0.4799 -1.0544
10715SOL     OW32978   5.481   3.958   4.658  0.0694 -0.3188 -0.4028
10715SOL    HW132979   5.449   4.043   4.688 -0.6773 -1.5080  2.4816
10715SOL    HW232980   5.576   3.961   4.670 -0.1041 -0.3602  1.1203
10716SOL     OW32981   3.897   0.244   7.265 -0.8433 -0.2257 -1.0908
10716SOL    HW132982   3.895   0.150   7.286 -0.3168 -0.1885 -0.8804
10716SOL    HW232983   3.955   0.282   7.331 -1.3074  0.3005 -0.9831
10717SOL     OW32984   0.984   3.469   0.619 -0.5530 -0.5396  0.0190
10717SOL    HW132985   1.034   3.531   0.566 -0.8150 -0.8651 -0.6082
10717SOL    HW232986   0.951   3.522   0.692 -1.6274  0.3039 -1.0426
10718SOL     OW32987   1.906   3.282   2.669 -0.0513  0.3059  0.1496
10718SOL    HW132988   1.913   3.230   2.590 -1.1829 -0.9554  0.8306
10718SOL    HW232989   1.949   3.230   2.737  0.0898  0.9354  0.5574
10719SOL     OW32990   4.645   7.258   4.138 -0.6837 -0.2610  0.0258
10719SOL    HW132991   4.674   7.175   4.100  1.2391 -0.0208  0.8281
10719SOL    HW232992   4.720   7.288   4.189 -0.4334  3.0901 -2.0090
10720SOL     OW32993   3.136   4.832   2.927 -0.0248  0.4087 -0.4125
10720SOL    HW132994   3.148   4.855   3.019  1.3734 -0.4315 -0.3553
10720SOL    HW232995   3.067   4.766   2.927 -1.0050  1.4041 -0.1339
10721SOL     OW32996   3.251   7.008   3.169 -0.7173 -0.6613  0.2621
10721SOL    HW132997   3.198   7.013   3.249  0.8668 -1.7861  1.4304
10721SOL    HW232998   3.340   6.997   3.200 -0.1585 -2.0192 -1.6806
10722SOL     OW32999   7.796   3.870   6.793 -0.2077  0.3241  0.7852
10722SOL    HW133000   7.734   3.932   6.833  0.7138  0.1664  2.6040
10722SOL    HW233001   7.860   3.926   6.750  0.2478  0.6376  1.8378
10723SOL     OW33002   4.295   1.170   4.197  0.4758 -0.7308 -0.1563
10723SOL    HW133003   4.367   1.182   4.260 -0.2521 -0.7487  0.7016
10723SOL    HW233004   4.216   1.194   4.246 -0.1503 -1.1105 -0.9583
10724SOL     OW33005   5.386   4.345   7.344 -0.7060  0.3830 -0.0909
10724SOL    HW133006   5.399   4.433   7.310 -0.8991  0.5055  0.1559
10724SOL    HW233007   5.292   4.336   7.356 -0.6411  0.3343  0.3981
10725SOL     OW33008   0.790   2.003   1.015 -0.3149 -0.4510  0.2970
10725SOL    HW133009   0.818   1.941   0.949  0.4344  0.0594  0.1219
10725SOL    HW233010   0.860   2.003   1.080 -0.8908 -0.7090  0.9329
10726SOL     OW33011   4.843   5.387   0.580 -0.3105 -0.0124  0.1294
10726SOL    HW133012   4.753   5.419   0.576 -0.2517  0.0507 -2.5359
10726SOL    HW233013   4.860   5.374   0.673 -2.5897  1.3037  0.8062
10727SOL     OW33014   1.872   1.864   1.109 -0.4676  0.3601  0.1916
10727SOL    HW133015   1.812   1.842   1.181 -0.6764  0.3504  0.0159
10727SOL    HW233016   1.945   1.908   1.152  0.0185 -0.7847  0.5702
10728SOL     OW33017   2.394   7.474   6.963 -0.0524  0.0661  0.2585
10728SOL    HW133018   2.464   7.418   6.996 -0.0729  0.0937  0.3487
10728SOL    HW233019   2.324   7.468   7.028  0.3836  1.0811  0.8482
10729SOL     OW33020   3.977   1.911   0.157 -0.0208  0.1274 -0.1671
10729SOL    HW133021   4.038   1.877   0.091  0.9747 -1.5026  1.4955
10729SOL    HW233022   3.965   1.839   0.219 -0.1984  1.8439  1.9421
10730SOL     OW33023   3.206   1.302   2.546 -0.0519  0.0695  0.2837
10730SOL    HW133024   3.158   1.383   2.562  0.9788  0.6959  0.3139
10730SOL    HW233025   3.253   1.318   2.464  0.0084 -0.5762  0.1887
10731SOL     OW33026   3.938   2.900   2.134 -0.5325  1.0094  0.3356
10731SOL    HW133027   3.884   2.910   2.212 -1.9671  2.3692 -0.7569
10731SOL    HW233028   3.963   2.807   2.134 -0.5193  0.9668  2.3472
10732SOL     OW33029   4.413   3.299   5.834  0.0261 -0.4406  0.1880
10732SOL    HW133030   4.329   3.341   5.849 -1.5370 -2.8392 -1.2808
10732SOL    HW233031   4.416   3.227   5.896  0.7423 -0.7514 -0.1943
10733SOL     OW33032   3.342   5.544   7.216 -0.0271 -0.3106  0.1633
10733SOL    HW133033   3.372   5.612   7.155  0.2300  0.3955  1.0611
10733SOL    HW233034   3.384   5.464   7.184  0.5394  0.1508 -0.2771
10734SOL     OW33035   4.454   3.892   3.360 -0.1440  0.4761  0.4631
10734SOL    HW133036   4.380   3.917   3.415 -1.0683 -0.8038 -0.1602
10734SOL    HW233037   4.441   3.939   3.278 -0.1401  0.4265  0.4340
10735SOL     OW33038   1.350   3.762   5.568 -0.3250  0.9800  0.0627
10735SOL    HW133039   1.255   3.755   5.578 -0.4752  1.8167 -0.6830
10735SOL    HW233040   1.364   3.852   5.537  0.4832  0.0401 -2.5046
10736SOL     OW33041   6.286   5.646   0.655 -0.0555  0.5703 -0.2066
10736SOL    HW133042   6.375   5.647   0.690  0.2404  0.0504 -0.9173
10736SOL    HW233043   6.248   5.729   0.684  0.7987  0.9802 -0.2229
10737SOL     OW33044   7.260   4.873   4.828  0.0677 -0.4563 -0.0759
10737SOL    HW133045   7.167   4.887   4.844 -0.2734 -1.4946 -0.9919
10737SOL    HW233046   7.304   4.920   4.899 -1.1758 -0.6296  0.8530
10738SOL     OW33047   2.350   7.210   5.415  0.1528 -0.3559  0.0077
10738SOL    HW133048   2.387   7.287   5.458  0.8946 -1.1846  0.8907
10738SOL    HW233049   2.290   7.173   5.480 -0.3671 -0.4212 -0.4979
10739SOL     OW33050   2.811   1.324   1.887  0.6753 -0.0835  0.1386
10739SOL    HW133051   2.760   1.370   1.955 -1.1140 -1.0485 -0.4828
10739SOL    HW233052   2.831   1.239   1.926 -3.0962 -1.9453 -1.4750
10740SOL     OW33053   2.230   1.816   3.615 -0.2065 -0.0783  0.0877
10740SOL    HW133054   2.176   1.879   3.662  0.1534  1.4216 -1.4021
10740SOL    HW233055   2.169   1.766   3.562 -0.4880 -0.9612  1.2219
10741SOL     OW33056   1.979   0.581   2.097  0.2947 -0.8847 -0.0509
10741SOL    HW133057   1.902   0.635   2.113 -0.6181 -2.6346  1.8763
10741SOL    HW233058   2.053   0.642   2.107 -0.7323  0.3017  0.6535
10742SOL     OW33059   6.639   5.788   4.785  0.1732  0.1208  0.1150
10742SOL    HW133060   6.712   5.796   4.724 -0.2864  2.4292 -0.2469
10742SOL    HW233061   6.582   5.722   4.746  1.5117 -0.9118 -0.1503
10743SOL     OW33062   0.535   6.209   1.711  0.0826 -0.3706 -0.1923
10743SOL    HW133063   0.621   6.171   1.692  0.9563  0.1885  2.3084
10743SOL    HW233064   0.472   6.144   1.679  1.4400 -1.1395 -1.3627
10744SOL     OW33065   7.840   1.419   4.266 -0.1732  0.4769 -0.0446
10744SOL    HW133066   7.813   1.426   4.358 -3.2933 -0.6244 -0.7642
10744SOL    HW233067   7.862   1.327   4.255 -0.5915  0.4364 -0.5720
10745SOL     OW33068   4.452   3.137   0.729 -0.5991 -0.2857  0.3078
10745SOL    HW133069   4.368   3.109   0.692 -0.3443 -1.0698  0.3125
10745SOL    HW233070   4.466   3.079   0.803  0.1122 -0.3789  0.1065
10746SOL     OW33071   1.243   7.395   6.550  0.0069 -0.3415  0.2899
10746SOL    HW133072   1.297   7.320   6.527  0.2662  0.3201 -1.4699
10746SOL    HW233073   1.302   7.454   6.597  0.3484 -0.3923 -0.0706
10747SOL     OW33074   7.297   4.148   0.387  0.0986 -0.5325 -0.8136
10747SOL    HW133075   7.384   4.164   0.423 -0.2677 -0.5729  0.1335
10747SOL    HW233076   7.282   4.054   0.402  0.0734 -0.6250 -1.3955
10748SOL     OW33077   3.298   6.714   4.392  0.4132  0.0847  0.1319
10748SOL    HW133078   3.217   6.704   4.442  0.5098 -1.9786 -0.0249
10748SOL    HW233079   3.272   6.697   4.301  0.8106  0.6008 -0.0797
10749SOL     OW33080   1.081   5.396   0.728 -0.1841 -0.0314  0.3785
10749SOL    HW133081   1.159   5.439   0.693  0.4302 -0.9260  0.6052
10749SOL    HW233082   1.057   5.331   0.661  0.0955 -0.7020  0.9107
10750SOL     OW33083   6.091   5.448   2.348 -0.0180 -1.0726  0.3092
10750SOL    HW133084   6.020   5.396   2.387 -0.4808  0.5018  1.6878
10750SOL    HW233085   6.161   5.444   2.413  0.1300 -0.4188  0.1940
10751SOL     OW33086   0.210   5.069   6.413  0.1753 -0.1769 -0.1693
10751SOL    HW133087   0.290   5.049   6.462 -0.2370  0.9731  1.0081
10751SOL    HW233088   0.240   5.122   6.339  0.4392  1.0154  0.7567
10752SOL     OW33089   1.782   0.080   7.941  0.2245 -0.7209  0.3505
10752SOL    HW133090   1.735   0.148   7.893 -0.9995 -0.6981  1.5188
10752SOL    HW233091   1.715   0.037   7.995  1.0951 -2.4198  0.1468
10753SOL     OW33092   7.799   0.031   4.473 -0.2865 -0.2871  0.0307
10753SOL    HW133093   7.762   0.119   4.480  1.4342  0.4288  0.8016
10753SOL    HW233094   7.786  -0.008   4.560 -0.7113 -0.6585 -0.1961
10754SOL     OW33095   0.767   0.592   1.077 -0.2976 -0.3786 -0.0775
10754SOL    HW133096   0.772   0.654   1.004 -1.5955  0.4196  0.4523
10754SOL    HW233097   0.857   0.581   1.107  0.1039  0.2102 -1.0484
10755SOL     OW33098   5.057   2.251   4.522  0.6272  0.6774  0.1477
10755SOL    HW133099   4.974   2.229   4.480  1.4868 -2.8195 -0.0379
10755SOL    HW233100   5.086   2.330   4.477 -0.6174 -0.3777 -2.8247
10756SOL     OW33101   1.307   0.856   5.026 -0.1033  0.2608 -0.0278
10756SOL    HW133102   1.309   0.863   5.121 -2.1275  1.5967 -0.0121
10756SOL    HW233103   1.214   0.863   5.003  0.3042 -0.3240 -2.0848
10757SOL     OW33104   7.346   2.097   3.382  0.0966 -0.1957 -0.0818
10757SOL    HW133105   7.334   2.177   3.433 -2.4434 -0.3291 -0.3635
10757SOL    HW233106   7.408   2.122   3.313  2.4995  0.3573  2.1215
10758SOL     OW33107   0.260   1.550   1.239  0.6830  0.0622  0.2323
10758SOL    HW133108   0.201   1.557   1.314  1.4377  0.5826  0.7966
10758SOL    HW233109   0.211   1.501   1.174  0.2652 -1.0110  1.3305
10759SOL     OW33110   5.955   3.854   4.425  0.4741  0.2316  0.7742
10759SOL    HW133111   5.869   3.812   4.429  0.8746 -0.6101  0.7463
10759SOL    HW233112   5.973   3.881   4.515  2.4139 -4.2697  2.0390
10760SOL     OW33113   3.982   4.529   1.563  0.2610 -0.5909  0.1453
10760SOL    HW133114   3.959   4.577   1.642 -2.4724 -4.0073  1.6754
10760SOL    HW233115   4.072   4.498   1.580  1.3627  2.1985 -0.1043
10761SOL     OW33116   0.900   7.314   4.021  0.1409 -0.4327 -0.0010
10761SOL    HW133117   0.902   7.260   3.942  1.6609  0.2996 -0.5055
10761SOL    HW233118   0.991   7.339   4.035 -0.3736  1.0998  0.8443
10762SOL     OW33119   1.600   1.810   3.251 -0.3896  0.4322 -0.2607
10762SOL    HW133120   1.672   1.865   3.221  0.1662 -0.6092 -0.8821
10762SOL    HW233121   1.642   1.732   3.286 -1.2040 -0.0691 -0.3775
10763SOL     OW33122   3.269   3.588   1.189  0.2838  0.0058  0.6253
10763SOL    HW133123   3.358   3.596   1.224 -0.0017 -0.1487  1.4189
10763SOL    HW233124   3.266   3.502   1.150  1.2806  0.9877 -1.8015
10764SOL     OW33125   2.821   3.451   0.723  0.1223 -0.0832 -0.1991
10764SOL    HW133126   2.742   3.453   0.777  0.4952 -0.6115  0.3781
10764SOL    HW233127   2.823   3.362   0.687  1.5428 -0.7969  1.4733
10765SOL     OW33128   2.813   4.106   0.944  0.4169  0.3909  0.3406
10765SOL    HW133129   2.814   4.016   0.976  0.3363  0.2824  0.0470
10765SOL    HW233130   2.797   4.159   1.021  1.4630  0.2223  0.6903
10766SOL     OW33131   7.086   2.066   1.754  0.3793  0.1101 -0.0199
10766SOL    HW133132   7.069   2.110   1.837 -0.2217 -1.2658  0.6192
10766SOL    HW233133   7.010   2.087   1.700 -0.0907 -0.4439  0.4182
10767SOL     OW33134   3.323   3.613   7.095 -0.0677  0.9212  0.0305
10767SOL    HW133135   3.318   3.535   7.040 -1.2632 -0.5550  2.0770
10767SOL    HW233136   3.415   3.639   7.092  0.3530 -0.5539 -0.7345
10768SOL     OW33137   1.473   5.680   5.390 -0.8434  0.1551  0.3763
10768SOL    HW133138   1.464   5.775   5.398 -0.0805  0.2024  0.7126
10768SOL    HW233139   1.567   5.664   5.394 -0.5884 -0.2903 -3.2733
10769SOL     OW33140   1.563   2.612   1.569  0.4208 -0.2177  0.5290
10769SOL    HW133141   1.469   2.628   1.579  0.2572 -1.0665  0.3841
10769SOL    HW233142   1.574   2.588   1.477  1.0511  1.6251  0.0756
10770SOL     OW33143   0.274   5.514   4.946 -0.7184  0.2911  0.3397
10770SOL    HW133144   0.359   5.520   4.903 -0.7920  0.1740  0.1777
10770SOL    HW233145   0.239   5.603   4.944 -0.2145  0.5164  1.1963
10771SOL     OW33146   5.806   2.727   2.267  0.1438 -0.3464  0.1387
10771SOL    HW133147   5.820   2.819   2.290  2.9995 -0.7589  0.4319
10771SOL    HW233148   5.875   2.708   2.202 -0.1891 -2.3426  0.3183
10772SOL     OW33149   6.302   0.392   5.692  0.0656 -0.0885 -0.2878
10772SOL    HW133150   6.381   0.348   5.660  0.0243  1.9788 -3.7075
10772SOL    HW233151   6.246   0.400   5.614 -1.6965  2.2220  1.0856
10773SOL     OW33152   0.317   4.442   5.399  0.4880  0.8207 -0.6722
10773SOL    HW133153   0.263   4.415   5.325 -0.2649 -0.1074  0.1935
10773SOL    HW233154   0.260   4.499   5.451  0.4199  0.0547  0.1075
10774SOL     OW33155   3.827   5.264   0.943 -0.3971 -0.2341  0.0683
10774SOL    HW133156   3.847   5.272   0.849  2.3325 -0.5885  0.5463
10774SOL    HW233157   3.893   5.319   0.986 -2.3366  0.8854  1.7789
10775SOL     OW33158   4.326   3.503   6.529 -0.3834 -0.3911 -0.5119
10775SOL    HW133159   4.361   3.519   6.442  0.7891  0.8527  0.1501
10775SOL    HW233160   4.273   3.580   6.549  1.1465  0.3826  0.7163
10776SOL     OW33161   1.775   3.738   5.268  0.0323  0.2976 -0.0020
10776SOL    HW133162   1.685   3.767   5.256  0.3260  1.2467  0.0417
10776SOL    HW233163   1.770   3.642   5.260 -1.1050  0.2589  0.7899
10777SOL     OW33164   7.423   6.124   3.241 -0.5114 -0.3725 -0.0850
10777SOL    HW133165   7.505   6.160   3.275  0.7162 -2.7665 -0.2863
10777SOL    HW233166   7.366   6.118   3.318 -0.2995  0.7501  0.1744
10778SOL     OW33167   0.026   4.012   0.288 -0.8450  0.1407 -0.9164
10778SOL    HW133168   0.004   3.995   0.196 -1.2954 -1.5437 -0.5166
10778SOL    HW233169   0.066   3.931   0.319 -1.5140  0.3655  0.6177
10779SOL     OW33170   5.287   0.065   2.588 -0.1926  0.1395 -0.0972
10779SOL    HW133171   5.275   0.142   2.533  1.3581  1.0007  0.7204
10779SOL    HW233172   5.317  -0.003   2.527 -0.8873  0.3682 -0.7047
10780SOL     OW33173   5.862   6.236   3.670 -0.0448 -0.0440 -0.2535
10780SOL    HW133174   5.862   6.195   3.757 -1.3667  0.0104 -0.2033
10780SOL    HW233175   5.921   6.181   3.618  1.8752  0.7258  1.0086
10781SOL     OW33176   3.920   1.637   1.245  0.3859  0.2202 -0.3720
10781SOL    HW133177   3.845   1.693   1.227 -0.0431 -0.2538 -0.1179
10781SOL    HW233178   3.994   1.696   1.251  0.1589  0.6124 -1.3967
10782SOL     OW33179   0.383   6.141   0.959 -0.1164  0.0800 -0.5471
10782SOL    HW133180   0.369   6.236   0.954  0.4859  0.1626 -0.7612
10782SOL    HW233181   0.416   6.117   0.872  0.4511 -0.1991 -0.2567
10783SOL     OW33182   4.573   2.229   7.164  0.1926 -0.2635 -0.3630
10783SOL    HW133183   4.574   2.151   7.108  0.8341  0.5403 -1.5026
10783SOL    HW233184   4.493   2.220   7.215 -1.0357 -0.4711 -2.2237
10784SOL     OW33185   2.112   7.381   2.184 -0.0677  0.1340  0.0063
10784SOL    HW133186   2.171   7.427   2.243 -1.9614  0.8665  1.4404
10784SOL    HW233187   2.038   7.441   2.172 -1.0303 -1.1515 -0.8294
10785SOL     OW33188   7.143   7.008   2.471 -0.0051  0.1888 -0.1747
10785SOL    HW133189   7.089   7.004   2.550  0.7089  0.3732  0.3382
10785SOL    HW233190   7.225   7.050   2.500  0.9955 -1.4053 -0.5858
10786SOL     OW33191   0.297   3.774   7.560  0.3776  0.3141  0.2420
10786SOL    HW133192   0.258   3.846   7.510  0.6625  0.0397 -0.3719
10786SOL    HW233193   0.374   3.813   7.601  0.5031  0.3721 -0.0478
10787SOL     OW33194   3.485   5.837   3.293  0.2826  0.0844 -0.3267
10787SOL    HW133195   3.426   5.828   3.368  0.8023 -0.0723  0.0686
10787SOL    HW233196   3.447   5.780   3.226  0.1064 -0.1876  0.0021
10788SOL     OW33197   5.046   5.150   0.969 -0.3865 -0.4686  0.9081
10788SOL    HW133198   5.124   5.204   0.963 -0.9945  0.4561  1.0830
10788SOL    HW233199   4.975   5.207   0.941 -0.7940 -1.8463 -1.0710
10789SOL     OW33200   6.766   3.540   5.213 -0.7510  0.4023  0.1150
10789SOL    HW133201   6.797   3.452   5.235  0.8504  0.5206 -1.4958
10789SOL    HW233202   6.671   3.534   5.222 -0.7782 -1.8036 -0.9415
10790SOL     OW33203   5.224   0.618   0.410  0.1259 -0.0588  0.0266
10790SOL    HW133204   5.283   0.660   0.473 -1.2158  0.1989  1.1587
10790SOL    HW233205   5.235   0.524   0.426  0.5996 -0.0302 -0.1233
10791SOL     OW33206   4.318   5.293   6.026  0.3826 -0.1783 -0.1992
10791SOL    HW133207   4.361   5.307   5.941 -0.2943 -0.0585 -0.5245
10791SOL    HW233208   4.225   5.294   6.007  0.2281 -0.7023  0.4667
10792SOL     OW33209   2.264   2.962   2.179 -0.3085 -0.3604 -0.0119
10792SOL    HW133210   2.329   3.025   2.210 -2.1897  2.4123 -1.3194
10792SOL    HW233211   2.242   2.911   2.257 -1.0127  2.8027  2.0668
10793SOL     OW33212   1.286   7.524   4.208 -0.1736  0.0236 -0.1521
10793SOL    HW133213   1.193   7.503   4.216 -0.4228  0.9569 -0.4168
10793SOL    HW233214   1.302   7.524   4.113 -0.2607  1.2496 -0.1825
10794SOL     OW33215   7.739   0.558   6.303  0.3890  0.4896  0.4976
10794SOL    HW133216   7.670   0.492   6.315  0.4222  0.0114 -1.5308
10794SOL    HW233217   7.818   0.507   6.288  1.3210  1.0321  3.0158
10795SOL     OW33218   0.348   4.704   6.280 -0.6306 -0.0177  0.3424
10795SOL    HW133219   0.347   4.610   6.269 -2.0016  0.0347 -0.0709
10795SOL    HW233220   0.426   4.721   6.334  0.4429 -1.2169 -0.7782
10796SOL     OW33221   6.063   1.505   7.934 -0.5181  0.0079 -0.3790
10796SOL    HW133222   6.003   1.522   7.862  1.6225 -0.7316 -2.4934
10796SOL    HW233223   6.064   1.410   7.943  0.7185 -0.0460 -0.8097
10797SOL     OW33224   2.102   5.455   0.741  0.3388 -0.6962  0.0807
10797SOL    HW133225   2.176   5.471   0.799 -0.6692  0.3523  1.1228
10797SOL    HW233226   2.025   5.482   0.791 -0.6966 -1.0842 -1.2288
10798SOL     OW33227   3.269   7.386   0.449 -0.3374 -0.2934  0.2462
10798SOL    HW133228   3.174   7.390   0.460 -0.5783 -1.0805 -1.2747
10798SOL    HW233229   3.303   7.449   0.512 -1.9508  1.1243 -0.2166
10799SOL     OW33230   4.445   7.181   1.765 -0.0544 -0.2231 -0.3483
10799SOL    HW133231   4.488   7.110   1.813 -0.3745 -0.8822 -1.0061
10799SOL    HW233232   4.516   7.225   1.718 -0.0202 -1.0309 -1.0857
10800SOL     OW33233   7.071   1.680   1.965 -0.5426 -0.3279  0.4203
10800SOL    HW133234   7.111   1.625   2.032 -0.7834 -0.2237  0.6514
10800SOL    HW233235   6.978   1.683   1.987 -0.7427 -0.8453 -0.3107
10801SOL     OW33236   2.943   6.109   3.937 -0.1241  0.0689  0.0802
10801SOL    HW133237   2.963   6.074   4.024 -1.1535  0.5938  0.5579
10801SOL    HW233238   3.018   6.163   3.914 -0.0254  0.2618  0.8363
10802SOL     OW33239   0.941   2.019   4.567 -0.6932 -0.0004  0.3749
10802SOL    HW133240   0.906   2.003   4.480 -2.0843  0.8878  0.7415
10802SOL    HW233241   0.867   2.006   4.626  0.2795 -0.8241  1.4714
10803SOL     OW33242   5.956   7.715   7.580 -0.6488 -0.4454 -0.8577
10803SOL    HW133243   5.868   7.751   7.571 -0.9234 -0.3728  1.4198
10803SOL    HW233244   5.957   7.638   7.523 -2.0306 -0.1613 -1.2907
10804SOL     OW33245   5.146   7.039   3.156 -0.2526 -0.5675 -0.7049
10804SOL    HW133246   5.114   6.964   3.207  2.1860 -0.5088  1.1186
10804SOL    HW233247   5.127   7.115   3.211  0.9968 -0.3294 -0.5614
10805SOL     OW33248   2.140   6.457   0.913  0.6487 -0.8688 -0.2920
10805SOL    HW133249   2.097   6.447   0.998 -2.5726  1.2960 -1.4729
10805SOL    HW233250   2.127   6.373   0.869 -0.7100 -0.9264  0.1672
10806SOL     OW33251   5.164   1.458   4.476 -0.5275 -0.1042  0.0155
10806SOL    HW133252   5.224   1.494   4.542 -1.6728  1.2139  0.3830
10806SOL    HW233253   5.140   1.372   4.511  0.2199 -0.1572  0.4364
10807SOL     OW33254   3.224   1.890   0.291  0.1255 -0.0799 -1.0997
10807SOL    HW133255   3.228   1.812   0.346  0.3631  0.8986  0.3244
10807SOL    HW233256   3.147   1.937   0.322  1.0540  1.1786 -0.6107
10808SOL     OW33257   6.750   7.886   4.197  0.1710  0.5004  0.2219
10808SOL    HW133258   6.728   7.804   4.153  1.1657  0.7140 -0.7264
10808SOL    HW233259   6.806   7.860   4.270 -0.4301  0.2519  0.6038
10809SOL     OW33260   7.480   5.541   6.050  0.3286 -0.3003  0.5202
10809SOL    HW133261   7.512   5.486   5.979 -0.4185  0.2319 -0.2413
10809SOL    HW233262   7.545   5.610   6.059  0.1042 -0.0052 -0.0880
10810SOL     OW33263   4.213   4.311   3.093  0.0901  0.0679 -0.1210
10810SOL    HW133264   4.257   4.266   3.020  0.2493  0.5285 -0.3101
10810SOL    HW233265   4.284   4.353   3.142 -0.0767  0.2772 -0.0565
10811SOL     OW33266   0.693   1.814   6.721 -0.5896 -0.3033  0.1082
10811SOL    HW133267   0.764   1.874   6.697 -0.8406  0.2923  0.8162
10811SOL    HW233268   0.680   1.760   6.644 -0.4777  0.6770 -0.6152
10812SOL     OW33269   3.094   6.915   2.746 -0.2542 -0.4920  0.0625
10812SOL    HW133270   3.042   6.980   2.698 -0.6866 -1.1212 -0.3267
10812SOL    HW233271   3.150   6.968   2.803  2.0026  0.4339 -2.7878
10813SOL     OW33272   0.168   0.470   3.501  0.6847  0.0510 -0.6347
10813SOL    HW133273   0.198   0.479   3.410  2.8138 -1.4187 -0.1495
10813SOL    HW233274   0.242   0.432   3.547 -0.6639 -0.0836  1.5626
10814SOL     OW33275   2.001   3.145   1.165 -0.5726  0.5890 -0.0759
10814SOL    HW133276   2.030   3.167   1.076 -2.0895  0.1667 -0.7147
10814SOL    HW233277   2.030   3.054   1.178 -0.7257  0.5046 -0.3153
10815SOL     OW33278   5.019   3.345   0.475  0.6214 -0.6403  0.0572
10815SOL    HW133279   5.065   3.423   0.443 -1.5699  1.4303  1.5578
10815SOL    HW233280   5.051   3.334   0.564  0.3209 -0.9329  0.1289
10816SOL     OW33281   7.335   7.927   0.015 -0.2579 -0.8364 -0.4696
10816SOL    HW133282   7.408   7.883   0.059  1.0866  1.1816 -0.5515
10816SOL    HW233283   7.356   7.921  -0.078  0.4870  0.7485 -0.4460
10817SOL     OW33284   7.565   2.488   3.280  0.2213 -0.2849  0.7294
10817SOL    HW133285   7.547   2.573   3.239 -1.3527 -0.9519 -0.0948
10817SOL    HW233286   7.622   2.507   3.354 -1.3478  1.7115  1.5118
10818SOL     OW33287   3.719   5.504   3.164  0.1470  0.0160 -0.2230
10818SOL    HW133288   3.663   5.579   3.183 -1.3318 -1.1913  0.4285
10818SOL    HW233289   3.660   5.428   3.169  1.7870 -1.2914  0.1993
10819SOL     OW33290   0.724   0.304   0.072  0.0351 -0.2154 -0.3260
10819SOL    HW133291   0.759   0.294   0.160  0.7140  1.5708 -0.3459
10819SOL    HW233292   0.640   0.348   0.085 -0.7909 -1.7038 -0.4744
10820SOL     OW33293   1.356   2.263   2.202  0.7473 -0.5234  0.1584
10820SOL    HW133294   1.320   2.313   2.276 -0.5794 -1.3703  0.1235
10820SOL    HW233295   1.279   2.225   2.159  1.6201 -1.4528 -0.6401
10821SOL     OW33296   5.869   2.949   6.970 -0.2526 -0.0081  0.5631
10821SOL    HW133297   5.829   2.917   6.890 -0.0050 -0.2737  0.5442
10821SOL    HW233298   5.915   2.874   7.007  0.8755  0.4625  0.1747
10822SOL     OW33299   1.849   4.840   1.324  0.0705  0.1045 -0.4494
10822SOL    HW133300   1.855   4.885   1.408 -0.7237  1.6539 -1.1870
10822SOL    HW233301   1.940   4.826   1.297  0.3248  1.0011 -0.0696
10823SOL     OW33302   3.293   7.709   6.912 -0.4309 -0.6202 -0.5432
10823SOL    HW133303   3.380   7.674   6.931 -0.5744 -0.5074  0.3525
10823SOL    HW233304   3.268   7.757   6.991 -0.9173  0.1412 -1.1456
10824SOL     OW33305   3.912   7.632   6.708  0.2857  0.7799  0.2387
10824SOL    HW133306   3.823   7.638   6.742  0.7423  0.8182  1.5119
10824SOL    HW233307   3.903   7.636   6.613 -1.1383 -0.1502  0.3147
10825SOL     OW33308   4.387   7.045   7.564  0.6301 -0.1919  0.2361
10825SOL    HW133309   4.391   7.139   7.546  0.1806 -0.3249 -0.6228
10825SOL    HW233310   4.458   7.007   7.512  1.5170 -0.2163  1.4374
10826SOL     OW33311   5.039   3.876   3.383 -0.1743 -0.1967  0.1346
10826SOL    HW133312   4.954   3.909   3.413  0.4361  0.2879  1.4182
10826SOL    HW233313   5.084   3.953   3.349 -0.5101 -0.5839 -1.2310
10827SOL     OW33314   6.644   5.972   3.559  0.7274 -0.3413 -0.4135
10827SOL    HW133315   6.567   6.027   3.569  1.0505 -0.2586  2.0785
10827SOL    HW233316   6.713   6.018   3.607  1.7552 -1.5046 -0.7268
10828SOL     OW33317   2.951   1.951   0.073 -0.2064 -0.0572  0.6300
10828SOL    HW133318   2.879   1.960   0.135 -1.0649 -1.7337 -0.0562
10828SOL    HW233319   2.941   2.025   0.013 -1.5182 -0.3794  0.4235
10829SOL     OW33320   0.225   3.742   6.598  0.1271 -0.1328 -0.3342
10829SOL    HW133321   0.132   3.732   6.619  0.5219  0.8068  2.1950
10829SOL    HW233322   0.225   3.800   6.521 -1.3657  0.4499  0.0566
10830SOL     OW33323   7.193   3.451   1.484 -0.8007  0.0628  0.0144
10830SOL    HW133324   7.239   3.445   1.400 -1.2501  1.8091 -0.3909
10830SOL    HW233325   7.260   3.432   1.549 -0.1672 -0.1472 -0.6854
10831SOL     OW33326   3.294   6.224   3.866  0.3324 -0.2734  0.1700
10831SOL    HW133327   3.276   6.315   3.889 -1.7703 -0.5369 -0.2273
10831SOL    HW233328   3.371   6.201   3.918  0.3934  1.4572  0.9206
10832SOL     OW33329   0.807   7.154   0.939  0.6352  0.3763 -0.2441
10832SOL    HW133330   0.845   7.127   0.855  0.6744 -2.7716  0.6395
10832SOL    HW233331   0.738   7.090   0.956  0.3263  1.1909  1.9202
10833SOL     OW33332   5.054   3.725   1.677  0.0116  0.1283  0.5234
10833SOL    HW133333   5.104   3.693   1.752 -0.0691 -1.3347 -0.0086
10833SOL    HW233334   5.092   3.679   1.602 -0.7382  0.6092 -0.1621
10834SOL     OW33335   3.692   7.691   3.258  0.1733 -0.3733  0.4618
10834SOL    HW133336   3.713   7.607   3.298  0.2391 -1.3453 -1.5230
10834SOL    HW233337   3.743   7.693   3.177  0.7258  1.9071  0.7812
10835SOL     OW33338   0.476   5.159   4.010  0.4527 -0.2151  0.0869
10835SOL    HW133339   0.564   5.167   3.974  0.2703 -1.3202 -0.6789
10835SOL    HW233340   0.423   5.218   3.957  0.8641  1.1362  1.1285
10836SOL     OW33341   0.866   7.718   4.337  0.2307  0.0667  0.4248
10836SOL    HW133342   0.850   7.669   4.257  0.4512 -0.9007  0.9572
10836SOL    HW233343   0.957   7.698   4.360  0.2434  0.5214  0.7966
10837SOL     OW33344   5.021   6.401   3.438  0.4038  0.4568 -0.1212
10837SOL    HW133345   5.066   6.472   3.391  1.4519  0.1042  0.3109
10837SOL    HW233346   5.031   6.325   3.381 -2.5419  1.0350 -1.6068
10838SOL     OW33347   2.769   4.315   4.191 -0.0042 -0.1261  0.4015
10838SOL    HW133348   2.844   4.278   4.145  0.9207  2.1738 -0.1021
10838SOL    HW233349   2.781   4.288   4.282  0.4117 -1.3011  0.0165
10839SOL     OW33350   7.563   3.972   5.778 -0.8157 -0.3868  0.7569
10839SOL    HW133351   7.607   3.922   5.709 -0.5502  0.1846  0.5081
10839SOL    HW233352   7.495   3.913   5.810 -0.3930 -0.9769  0.5894
10840SOL     OW33353   5.670   3.829   3.697  0.0572 -0.5315 -0.0951
10840SOL    HW133354   5.634   3.874   3.621 -1.4006  0.1116  0.9297
10840SOL    HW233355   5.594   3.807   3.751  1.1033 -0.1851  1.6051
10841SOL     OW33356   6.520   2.902   0.051 -0.1279 -0.3586  0.0237
10841SOL    HW133357   6.527   2.928  -0.041  2.1412  0.1389  0.2709
10841SOL    HW233358   6.496   2.810   0.049 -1.0587 -0.1066 -1.0341
10842SOL     OW33359   3.531   7.578   1.898 -0.1235 -0.1619 -0.0414
10842SOL    HW133360   3.517   7.499   1.845 -0.9042 -0.7527  1.0253
10842SOL    HW233361   3.577   7.546   1.976 -0.7246  0.3904  0.5373
10843SOL     OW33362   4.188   5.588   5.267  0.4422  0.2414  0.0116
10843SOL    HW133363   4.228   5.543   5.193 -2.0055 -1.5530 -0.3602
10843SOL    HW233364   4.149   5.667   5.229  0.7104  0.2445 -0.2597
10844SOL     OW33365   4.476   0.953   3.034 -0.4348  0.2491  0.0480
10844SOL    HW133366   4.492   0.944   3.128  0.0012 -0.5682 -0.0974
10844SOL    HW233367   4.412   0.885   3.014  0.9697 -0.9366 -0.6008
10845SOL     OW33368   3.694   2.065   5.614 -0.5336  0.7921  0.4898
10845SOL    HW133369   3.691   2.122   5.537 -0.2937 -0.1857 -0.2695
10845SOL    HW233370   3.613   2.014   5.609  0.8203 -1.3790 -0.8139
10846SOL     OW33371   5.395   2.848   7.581  0.3259 -0.0142 -0.1465
10846SOL    HW133372   5.440   2.933   7.580 -0.2506  0.2988 -1.2851
10846SOL    HW233373   5.407   2.814   7.492 -0.0615 -0.8025  0.0969
10847SOL     OW33374   1.108   4.890   1.762 -0.1689 -0.2509  0.0710
10847SOL    HW133375   1.122   4.884   1.857  0.2124 -0.2018  0.0190
10847SOL    HW233376   1.042   4.823   1.744 -0.9164  0.3465  0.4994
10848SOL     OW33377   1.476   0.482   4.875  0.0256 -0.2858  0.4022
10848SOL    HW133378   1.408   0.415   4.872 -0.0799 -0.2337  1.4066
10848SOL    HW233379   1.551   0.442   4.830 -0.5639 -0.4438 -0.4650
10849SOL     OW33380   5.928   5.607   1.620 -0.3079 -0.3699  0.2409
10849SOL    HW133381   5.995   5.539   1.616 -0.6605 -0.7057  0.0483
10849SOL    HW233382   5.934   5.640   1.710  0.6554  0.1588 -0.0023
10850SOL     OW33383   1.362   7.106   3.477  0.0042 -0.3757  0.0925
10850SOL    HW133384   1.380   7.198   3.493 -2.7275  0.4101 -0.8059
10850SOL    HW233385   1.407   7.086   3.395 -1.1683  0.8261 -0.8816
10851SOL     OW33386   4.944   4.389   1.004 -0.5556 -0.1655 -0.1523
10851SOL    HW133387   4.917   4.354   0.919  0.8350 -1.3728 -0.1234
10851SOL    HW233388   5.036   4.366   1.012 -0.6436 -0.0418  1.6799
10852SOL     OW33389   2.002   6.664   5.294 -0.4802 -0.4329 -0.0040
10852SOL    HW133390   2.095   6.648   5.309 -0.4813  1.2694  2.2410
10852SOL    HW233391   1.959   6.628   5.371 -1.4609  0.7565  0.0225
10853SOL     OW33392   5.835   2.344   5.710  0.5341 -0.1061  0.0792
10853SOL    HW133393   5.817   2.284   5.638  1.1207 -0.9013  0.5781
10853SOL    HW233394   5.820   2.292   5.789 -1.0356  1.0225  0.5704
10854SOL     OW33395   1.380   1.655   7.071  0.3252 -0.3040  0.2769
10854SOL    HW133396   1.384   1.740   7.028 -1.1003 -0.1609  0.3697
10854SOL    HW233397   1.449   1.658   7.137  0.7925  0.4778 -0.2319
10855SOL     OW33398   4.655   7.719   0.627  0.0920  0.2590  0.0193
10855SOL    HW133399   4.596   7.783   0.667  0.0743  0.9067 -0.9912
10855SOL    HW233400   4.710   7.772   0.568  2.2825 -0.1703  1.5548
10856SOL     OW33401   4.055   0.280   7.848 -0.1393  0.3001 -0.0990
10856SOL    HW133402   4.118   0.234   7.903  0.1753  0.3305 -0.4243
10856SOL    HW233403   4.109   0.340   7.796 -0.0515 -1.6271 -2.4055
10857SOL     OW33404   7.302   0.099   0.878 -0.4046 -0.2243  0.2807
10857SOL    HW133405   7.290   0.004   0.878  2.9547 -0.8039 -1.2464
10857SOL    HW233406   7.347   0.118   0.961  0.4262 -0.2371 -0.1627
10858SOL     OW33407   4.552   1.905   3.291 -0.0412 -0.0251 -0.3130
10858SOL    HW133408   4.525   1.854   3.215 -0.4147  0.1154 -0.2780
10858SOL    HW233409   4.482   1.891   3.355 -0.4446  0.9759 -0.5124
10859SOL     OW33410   2.668   5.298   5.264  0.4960 -0.0515 -0.2221
10859SOL    HW133411   2.717   5.345   5.197  1.6492 -0.9553 -0.0340
10859SOL    HW233412   2.680   5.349   5.344  1.7556 -0.6525 -0.0137
10860SOL     OW33413   7.878   2.944   2.373 -0.2612  0.3561 -0.6559
10860SOL    HW133414   7.939   2.963   2.302  0.3050  1.2787  0.0570
10860SOL    HW233415   7.853   3.030   2.406  0.5798 -0.0564  1.1677
10861SOL     OW33416   5.249   7.105   4.909  0.1916 -0.1045  0.3508
10861SOL    HW133417   5.315   7.165   4.874  0.3068  0.3957  1.4044
10861SOL    HW233418   5.298   7.039   4.957 -0.0054 -0.3938  0.1597
10862SOL     OW33419   0.766   3.942   4.182 -0.2799  0.1534 -0.5439
10862SOL    HW133420   0.796   3.982   4.264 -0.2208 -0.9116 -0.0379
10862SOL    HW233421   0.711   3.869   4.209 -0.0777 -0.3491 -1.4508
10863SOL     OW33422   1.393   7.115   4.275 -1.4428  0.0081 -0.3866
10863SOL    HW133423   1.310   7.100   4.321 -1.2421  2.0731  0.7883
10863SOL    HW233424   1.446   7.164   4.338  1.5992 -3.1250 -0.2323
10864SOL     OW33425   1.041   3.846   4.809  0.1690  0.1955  0.4115
10864SOL    HW133426   1.025   3.846   4.715 -0.6522  1.0881  0.5344
10864SOL    HW233427   1.056   3.754   4.831 -0.0179 -0.0671 -0.5225
10865SOL     OW33428   7.534   4.150   1.660 -0.0740  0.1911  0.0007
10865SOL    HW133429   7.455   4.183   1.617 -0.1212 -0.3600 -0.3457
10865SOL    HW233430   7.509   4.063   1.692 -0.6429  1.2492  2.7878
10866SOL     OW33431   4.922   2.698   5.301 -0.2061 -0.5873  0.1342
10866SOL    HW133432   4.867   2.651   5.364 -0.4023 -0.2278  0.2375
10866SOL    HW233433   5.010   2.666   5.316 -0.3868 -1.1681 -0.0251
10867SOL     OW33434   4.165   6.868   0.235 -0.2289 -0.1247  0.1067
10867SOL    HW133435   4.099   6.851   0.303  0.8935 -0.8608  1.0558
10867SOL    HW233436   4.199   6.955   0.257 -0.2618 -0.1261  0.1646
10868SOL     OW33437   0.663   3.705   3.063 -0.4105  0.5407  0.0803
10868SOL    HW133438   0.751   3.739   3.078 -0.5535  1.2789 -0.6639
10868SOL    HW233439   0.615   3.724   3.144 -0.3024  1.5350 -0.0758
10869SOL     OW33440   2.517   1.320   3.972  0.2128  0.0241  0.5637
10869SOL    HW133441   2.612   1.313   3.982  0.3928  2.5894  1.1931
10869SOL    HW233442   2.482   1.277   4.050  0.7001 -2.7832 -0.6429
10870SOL     OW33443   3.629   3.736   4.973  0.5867 -0.3727  0.3762
10870SOL    HW133444   3.540   3.732   4.937  1.1150  3.1071 -1.7873
10870SOL    HW233445   3.684   3.697   4.906  0.8379 -1.7974  1.3698
10871SOL     OW33446   3.250   7.608   1.909 -0.4406  0.0032 -0.3883
10871SOL    HW133447   3.243   7.513   1.901  1.7735 -0.4279  1.6536
10871SOL    HW233448   3.316   7.633   1.845 -0.2397 -0.0014 -0.1849
10872SOL     OW33449   5.890   5.215   4.143 -0.5134  0.2518 -0.2202
10872SOL    HW133450   5.921   5.251   4.226  0.0811 -1.3060  0.2827
10872SOL    HW233451   5.848   5.132   4.167 -3.5510  1.3938 -1.0956
10873SOL     OW33452   7.754   1.123   2.788 -0.2668  0.4106 -0.0425
10873SOL    HW133453   7.742   1.201   2.733 -0.2741  1.0650  0.8759
10873SOL    HW233454   7.831   1.143   2.841 -0.5386 -0.0279  0.5243
10874SOL     OW33455   4.775   1.088   2.640 -0.3651  0.5542  0.3011
10874SOL    HW133456   4.711   1.039   2.692  0.0808 -0.8988 -0.4616
10874SOL    HW233457   4.724   1.126   2.569 -0.9905  2.6142  1.7720
10875SOL     OW33458   4.930   5.528   5.323 -0.1954 -0.0864 -0.0845
10875SOL    HW133459   4.937   5.494   5.412  3.8079  1.2393  0.3341
10875SOL    HW233460   4.930   5.623   5.334 -0.3419  0.0959 -1.4651
10876SOL     OW33461   6.689   4.856   5.996  0.8517  0.2067  0.0423
10876SOL    HW133462   6.677   4.945   6.028  0.5989 -0.5597  2.2433
10876SOL    HW233463   6.687   4.801   6.075  0.8259 -1.7729 -1.2552
10877SOL     OW33464   0.990   1.632   3.613 -0.2368  0.0814 -0.0566
10877SOL    HW133465   1.066   1.687   3.633  0.7217 -1.1723 -0.1380
10877SOL    HW233466   0.927   1.653   3.682  0.0452  1.3879 -0.1799
10878SOL     OW33467   5.182   7.595   1.573  0.3579 -0.0244  0.6516
10878SOL    HW133468   5.237   7.547   1.636  1.5634  0.0678 -0.3055
10878SOL    HW233469   5.212   7.685   1.578 -0.9348  0.3950  1.3957
10879SOL     OW33470   3.830   3.590   6.329  0.5550  0.3625  0.3392
10879SOL    HW133471   3.814   3.620   6.418 -0.3637 -0.3328  0.4127
10879SOL    HW233472   3.822   3.669   6.275  0.4127  0.6513  0.7827
10880SOL     OW33473   0.619   2.670   5.711 -0.4350  0.1761  0.1301
10880SOL    HW133474   0.628   2.575   5.707 -3.7118 -0.2264 -0.1983
10880SOL    HW233475   0.612   2.697   5.619 -0.3170  0.6382  0.2556
10881SOL     OW33476   4.584   7.896   4.866  0.4673 -0.0010 -0.1179
10881SOL    HW133477   4.624   7.809   4.862 -0.3381 -0.4609  1.1989
10881SOL    HW233478   4.492   7.879   4.888  0.2054  1.1727 -0.2245
10882SOL     OW33479   0.539   7.783   2.793 -0.4875  0.5387 -0.1423
10882SOL    HW133480   0.574   7.867   2.763 -1.6222  1.3995  0.8395
10882SOL    HW233481   0.444   7.793   2.788 -0.6685 -1.2749 -1.5103
10883SOL     OW33482   2.951   1.575   2.476 -0.0279  0.4520 -0.2772
10883SOL    HW133483   2.861   1.606   2.483  0.0222  0.9576 -1.4441
10883SOL    HW233484   2.960   1.550   2.384  0.4371 -1.5511  0.2598
10884SOL     OW33485   0.578   4.845   6.370  0.1209 -0.0758  0.3588
10884SOL    HW133486   0.662   4.862   6.328  0.6875 -1.2634  0.9346
10884SOL    HW233487   0.535   4.930   6.375  1.9468  0.8417  1.4199
10885SOL     OW33488   1.634   1.670   6.565 -0.3138  0.1321 -0.0455
10885SOL    HW133489   1.724   1.663   6.598 -0.5463  1.3589  0.9137
10885SOL    HW233490   1.603   1.580   6.561  0.4868 -0.2047  0.9560
10886SOL     OW33491   2.851   4.616   6.726 -0.3322  0.3283 -0.0574
10886SOL    HW133492   2.921   4.605   6.790  0.1356  0.9032 -0.4568
10886SOL    HW233493   2.892   4.664   6.653 -0.4690 -1.5586 -1.4467
10887SOL     OW33494   3.589   5.233   0.558 -0.0869 -0.6722 -0.4220
10887SOL    HW133495   3.581   5.271   0.645 -0.4689 -0.4888 -0.5322
10887SOL    HW233496   3.535   5.290   0.502 -1.4833 -1.9402 -0.4135
10888SOL     OW33497   3.351   4.818   2.449 -0.5764 -0.9085  0.4297
10888SOL    HW133498   3.423   4.754   2.450  0.2144 -0.0464  0.6205
10888SOL    HW233499   3.318   4.817   2.539  0.2978 -0.1366  0.7824
10889SOL     OW33500   2.162   7.448   2.998 -0.0874 -0.1577 -0.0400
10889SOL    HW133501   2.249   7.417   2.973 -0.2476 -0.6761  0.0385
10889SOL    HW233502   2.122   7.374   3.044  0.1431  0.7029  1.6256
10890SOL     OW33503   3.826   0.906   7.723 -0.0852 -0.4866 -0.0253
10890SOL    HW133504   3.764   0.964   7.767  0.2709 -0.7194  0.8126
10890SOL    HW233505   3.881   0.873   7.794  1.1329 -0.1228 -0.7790
10891SOL     OW33506   6.739   4.611   2.683 -0.0865  0.0136  0.3101
10891SOL    HW133507   6.766   4.573   2.600 -0.8282  0.6202 -0.2213
10891SOL    HW233508   6.726   4.536   2.741  0.5232 -0.4049 -0.0866
10892SOL     OW33509   5.421   3.171   3.149  0.1972 -0.2476 -0.3210
10892SOL    HW133510   5.492   3.216   3.195 -0.5223  1.6244 -0.9170
10892SOL    HW233511   5.434   3.079   3.168  0.2382  0.3439  3.2213
10893SOL     OW33512   7.101   2.363   4.093  0.1182 -0.0192  0.2536
10893SOL    HW133513   7.175   2.420   4.113 -1.0985  0.5819  3.6486
10893SOL    HW233514   7.056   2.407   4.021  1.0927  1.4845  0.5148
10894SOL     OW33515   6.099   2.285   6.101 -0.0431 -0.5299 -0.3634
10894SOL    HW133516   6.061   2.325   6.023  0.2738  0.2289 -0.1459
10894SOL    HW233517   6.092   2.191   6.086  0.7695 -0.4073 -1.6805
10895SOL     OW33518   3.651   5.328   2.514  0.2008 -0.3553  0.2346
10895SOL    HW133519   3.602   5.247   2.501  0.7643 -0.2360 -3.6149
10895SOL    HW233520   3.605   5.393   2.462  1.3358  1.1515  1.0343
10896SOL     OW33521   5.230   7.101   1.949 -0.1610 -0.0559 -0.2924
10896SOL    HW133522   5.326   7.100   1.958  0.1691 -0.3544 -2.9371
10896SOL    HW233523   5.205   7.009   1.948 -0.4149  0.0105 -0.0330
10897SOL     OW33524   5.529   3.201   6.305  0.7314 -0.1838  0.4162
10897SOL    HW133525   5.611   3.152   6.308  0.9865  0.2005 -0.2104
10897SOL    HW233526   5.465   3.144   6.349  1.1122 -0.8935  0.0585
10898SOL     OW33527   6.188   2.358   1.868  0.5640  0.2550  0.7302
10898SOL    HW133528   6.201   2.440   1.821 -1.0686  0.5199  0.6648
10898SOL    HW233529   6.146   2.300   1.805 -0.7471  0.2838  1.5267
10899SOL     OW33530   1.906   6.400   7.428  0.2149  0.1176 -0.6104
10899SOL    HW133531   1.944   6.313   7.415 -0.7408 -0.4718  0.4423
10899SOL    HW233532   1.865   6.420   7.344 -0.3878 -0.8690 -0.5687
10900SOL     OW33533   4.469   4.942   4.409 -0.9024  0.2474 -0.3098
10900SOL    HW133534   4.556   4.901   4.412  0.0072  2.0117 -0.9444
10900SOL    HW233535   4.433   4.916   4.324 -0.1614  1.0451 -0.8850
10901SOL     OW33536   2.444   7.430   5.571  0.3666 -0.0493 -0.1361
10901SOL    HW133537   2.405   7.516   5.587  1.6166  0.5935 -0.4415
10901SOL    HW233538   2.463   7.396   5.659 -0.1036 -0.0110 -0.0153
10902SOL     OW33539   7.105   2.482   2.498 -0.2596  0.1995 -0.2095
10902SOL    HW133540   7.157   2.441   2.567  0.5086  3.0006  1.0238
10902SOL    HW233541   7.042   2.415   2.472  1.1642 -1.8376  1.3254
10903SOL     OW33542   0.600   5.469   7.547  0.8087  0.2694 -0.3825
10903SOL    HW133543   0.561   5.407   7.609 -1.0049  0.8075 -0.9401
10903SOL    HW233544   0.550   5.457   7.466  1.8973  0.9107 -1.1776
10904SOL     OW33545   7.234   4.651   7.541 -0.0994 -0.2445 -0.2255
10904SOL    HW133546   7.176   4.699   7.600 -1.4861 -0.4095 -1.3846
10904SOL    HW233547   7.176   4.591   7.494  0.8428  0.2061 -2.0608
10905SOL     OW33548   2.050   3.049   0.398 -0.3844 -0.0068  0.1242
10905SOL    HW133549   2.113   3.080   0.333  0.2190 -1.5592 -0.0688
10905SOL    HW233550   1.991   3.124   0.412 -1.6055 -0.1073 -3.5071
10906SOL     OW33551   2.108   1.321   2.970 -0.3070 -0.1018  0.0341
10906SOL    HW133552   2.199   1.297   2.954 -0.1712  0.4844 -0.1061
10906SOL    HW233553   2.099   1.407   2.930  0.1079  1.5763  3.1897
10907SOL     OW33554   1.268   2.386   0.037 -0.1912 -0.3372  0.4353
10907SOL    HW133555   1.352   2.393  -0.010 -1.0229  0.9674 -0.9381
10907SOL    HW233556   1.258   2.470   0.081 -1.4189  0.0924 -0.5905
10908SOL     OW33557   0.452   6.737   2.118 -0.1224  0.7163 -1.1164
10908SOL    HW133558   0.417   6.816   2.160 -0.3554  0.8450 -1.5368
10908SOL    HW233559   0.489   6.769   2.035  1.9648  0.7557 -0.2271
10909SOL     OW33560   5.702   0.343   3.821  0.4678 -0.2071 -0.0528
10909SOL    HW133561   5.794   0.318   3.831  0.6097  0.8165  1.4723
10909SOL    HW233562   5.697   0.382   3.734  0.9777 -2.2311 -1.0525
10910SOL     OW33563   1.221   1.637   2.562 -0.1948 -1.0836  0.0560
10910SOL    HW133564   1.247   1.572   2.628 -0.0406 -1.4901 -0.4051
10910SOL    HW233565   1.238   1.721   2.604 -0.7307 -1.3331  0.7961
10911SOL     OW33566   4.887   7.647   4.572 -0.7071  0.4966 -0.2845
10911SOL    HW133567   4.861   7.708   4.503 -2.7592  0.8695  0.7453
10911SOL    HW233568   4.938   7.700   4.633  0.8688  0.2300 -1.2896
10912SOL     OW33569   1.465   6.634   6.727 -0.0600 -0.7401 -0.6275
10912SOL    HW133570   1.382   6.595   6.755 -0.6841 -0.3459 -1.8581
10912SOL    HW233571   1.453   6.728   6.743  0.3278 -0.7283 -0.3955
10913SOL     OW33572   7.881   5.783   7.866  0.0346 -0.3878 -0.1435
10913SOL    HW133573   7.936   5.713   7.902  1.2131 -0.1215 -1.3338
10913SOL    HW233574   7.894   5.778   7.771 -0.2795  1.0931 -0.2970
10914SOL     OW33575   6.621   4.451   7.212 -0.0176  0.3763  0.7932
10914SOL    HW133576   6.712   4.479   7.218 -0.1532  0.8867  0.4845
10914SOL    HW233577   6.589   4.489   7.130  0.4954 -2.6937 -1.0038
10915SOL     OW33578   3.650   3.775   7.124 -0.2623  0.2526 -0.3019
10915SOL    HW133579   3.717   3.827   7.079  0.2116 -0.2365 -0.1826
10915SOL    HW233580   3.697   3.736   7.198 -1.1805  1.5564  1.0031
10916SOL     OW33581   7.132   0.733   7.747  0.2053  0.6256  0.0460
10916SOL    HW133582   7.041   0.762   7.754 -0.0202 -0.3929  2.1654
10916SOL    HW233583   7.127   0.652   7.696 -0.1093  0.5062  0.2612
10917SOL     OW33584   5.787   1.100   6.319 -0.0571  0.1080 -0.4883
10917SOL    HW133585   5.880   1.080   6.325 -0.3466 -1.3564 -0.5202
10917SOL    HW233586   5.763   1.076   6.229 -0.9818 -2.0438  0.2753
10918SOL     OW33587   7.168   3.546   2.725 -0.2253  0.6470  0.3365
10918SOL    HW133588   7.144   3.631   2.761 -1.5069 -0.4979  2.3369
10918SOL    HW233589   7.225   3.507   2.791  0.5695  0.0308 -0.6790
10919SOL     OW33590   2.858   1.021   5.374 -0.2937 -0.6924 -0.5397
10919SOL    HW133591   2.889   0.999   5.286 -0.5736 -1.2569 -0.5014
10919SOL    HW233592   2.808   0.944   5.402 -0.7038 -0.2835 -0.1204
10920SOL     OW33593   5.589   2.305   6.819  0.0145  0.1973 -0.2319
10920SOL    HW133594   5.625   2.273   6.902 -1.1306 -0.4033  0.0578
10920SOL    HW233595   5.581   2.399   6.832 -0.9196  0.0169  0.6760
10921SOL     OW33596   0.304   3.543   4.731 -0.2909 -0.2662 -0.1085
10921SOL    HW133597   0.280   3.451   4.721 -0.7688 -0.2692  0.9496
10921SOL    HW233598   0.244   3.576   4.798 -0.3134  0.8889 -0.6825
10922SOL     OW33599   4.920   0.464   2.334  0.3653 -0.4512 -0.0331
10922SOL    HW133600   5.010   0.440   2.310  0.2489 -0.8372 -0.0844
10922SOL    HW233601   4.884   0.505   2.255  0.7447  0.4154  0.2288
10923SOL     OW33602   6.588   3.858   2.412 -0.1478 -0.3879  0.1496
10923SOL    HW133603   6.671   3.905   2.412 -0.2202 -0.1557  2.2968
10923SOL    HW233604   6.603   3.781   2.467 -1.3256 -0.3425  0.5850
10924SOL     OW33605   2.830   0.689   0.713 -0.0934 -0.4247  0.1575
10924SOL    HW133606   2.913   0.664   0.753  0.5636 -2.9083 -2.4674
10924SOL    HW233607   2.854   0.747   0.641 -0.4692 -1.7289 -1.0712
10925SOL     OW33608   7.044   6.923   1.901  0.1028 -0.0169 -0.3355
10925SOL    HW133609   7.024   6.865   1.974  1.7230  1.7309  1.6406
10925SOL    HW233610   7.140   6.930   1.901  0.1683 -0.0885 -2.7813
10926SOL     OW33611   0.755   4.362   6.970  0.0033 -0.0846  0.0659
10926SOL    HW133612   0.693   4.335   7.038  0.6314 -1.3647  0.1510
10926SOL    HW233613   0.699   4.388   6.896 -0.6545 -0.1167  0.5390
10927SOL     OW33614   1.327   0.092   0.081  0.4796 -0.8225  0.5858
10927SOL    HW133615   1.383   0.169   0.094 -2.4391  2.1529 -2.3748
10927SOL    HW233616   1.362   0.051   0.002  0.4160 -0.8894  0.5926
10928SOL     OW33617   2.713   3.822   5.808 -0.1212  0.4521 -0.2904
10928SOL    HW133618   2.788   3.876   5.784  0.8485 -0.2775  0.9667
10928SOL    HW233619   2.682   3.858   5.891  0.5792 -0.9030  0.6068
10929SOL     OW33620   4.540   7.506   1.444  0.4129 -0.6100  0.2642
10929SOL    HW133621   4.593   7.545   1.375  1.5555 -2.2842  0.1566
10929SOL    HW233622   4.489   7.439   1.400 -0.2777 -0.4153  0.7420
10930SOL     OW33623   4.448   7.258   3.039  0.2540 -0.3406  0.5496
10930SOL    HW133624   4.512   7.302   2.983 -2.3573 -0.6617 -3.0693
10930SOL    HW233625   4.402   7.328   3.083 -0.4046  0.3128 -1.0903
10931SOL     OW33626   0.004   1.920   1.590  0.2161 -0.2349 -0.6365
10931SOL    HW133627  -0.010   1.894   1.680  0.2176 -3.4287 -1.4560
10931SOL    HW233628   0.095   1.897   1.572 -0.1893 -0.9807 -1.8310
10932SOL     OW33629   6.479   0.573   0.491 -0.3210  0.1008 -0.4273
10932SOL    HW133630   6.509   0.489   0.525 -0.4404 -0.5582 -1.8485
10932SOL    HW233631   6.405   0.550   0.434 -0.5978  1.2103 -0.5384
10933SOL     OW33632   0.541   4.976   0.990 -0.2225 -0.1750 -0.2191
10933SOL    HW133633   0.466   4.972   0.930 -0.9446  0.7517  0.5755
10933SOL    HW233634   0.500   4.980   1.077  0.6510  2.8844  0.1411
10934SOL     OW33635   4.785   4.715   0.192 -0.0726 -0.3698 -0.3245
10934SOL    HW133636   4.846   4.775   0.149 -0.1830  0.2835  0.4124
10934SOL    HW233637   4.761   4.653   0.124 -0.7096  0.9919 -1.3978
10935SOL     OW33638   4.768   6.751   2.819 -0.2187 -0.5114  0.5806
10935SOL    HW133639   4.748   6.725   2.729  0.3950 -0.7284  0.5054
10935SOL    HW233640   4.858   6.723   2.833 -0.1053  0.0693  1.0601
10936SOL     OW33641   6.489   5.841   5.466 -0.3657  0.1511  0.1191
10936SOL    HW133642   6.408   5.810   5.507 -0.4767 -1.1809 -1.0130
10936SOL    HW233643   6.463   5.917   5.414 -1.0023 -0.5268 -0.5846
10937SOL     OW33644   3.922   5.150   1.992  0.1423  0.3150  0.1256
10937SOL    HW133645   3.883   5.220   1.939 -0.9483 -0.6944 -0.4471
10937SOL    HW233646   3.879   5.156   2.077  1.6381  1.7092  0.8359
10938SOL     OW33647   6.263   5.470   6.124 -0.1560  0.1181  0.3455
10938SOL    HW133648   6.339   5.472   6.182 -0.7466 -2.1072  1.2895
10938SOL    HW233649   6.196   5.423   6.173 -1.8336  1.1198 -0.8668
10939SOL     OW33650   1.443   4.000   7.123 -0.1346  0.6662  0.0251
10939SOL    HW133651   1.503   3.948   7.068 -0.5687 -0.7938  0.8725
10939SOL    HW233652   1.493   4.017   7.203 -0.7818 -0.4728  0.6952
10940SOL     OW33653   2.338   6.018   2.371  0.1346  0.2034 -0.0033
10940SOL    HW133654   2.372   6.081   2.308 -1.7430  0.5811 -0.6827
10940SOL    HW233655   2.393   5.940   2.359  1.1196  0.9693 -0.6157
10941SOL     OW33656   5.909   7.331   2.120  0.1662 -0.2631  0.0097
10941SOL    HW133657   5.834   7.385   2.144  0.3479  0.5533 -1.1421
10941SOL    HW233658   5.937   7.290   2.201 -1.3241 -0.3225  0.5183
10942SOL     OW33659   5.702   1.675   0.053 -0.2526 -0.0707 -0.4169
10942SOL    HW133660   5.718   1.627   0.134  1.3298 -1.3898 -1.4424
10942SOL    HW233661   5.770   1.742   0.051 -0.0069 -0.3339 -0.8698
10943SOL     OW33662   5.780   2.932   7.628  0.4313 -0.2708  0.4223
10943SOL    HW133663   5.732   2.955   7.548  1.7667 -0.9778 -0.6316
10943SOL    HW233664   5.736   2.854   7.661  1.1416 -1.2575 -0.8563
10944SOL     OW33665   6.511   6.428   1.103 -0.7003  0.5688 -0.2304
10944SOL    HW133666   6.496   6.423   1.009 -0.2091 -1.1448 -0.2463
10944SOL    HW233667   6.570   6.502   1.114 -3.0362  2.6706 -0.9174
10945SOL     OW33668   7.854   5.402   2.688  0.5239 -0.1554 -0.2409
10945SOL    HW133669   7.816   5.359   2.764 -3.5156  1.9631 -0.7954
10945SOL    HW233670   7.904   5.475   2.724  0.9075 -0.7359  0.4232
10946SOL     OW33671   3.882   2.113   3.582 -0.0771  0.3672  0.1728
10946SOL    HW133672   3.841   2.144   3.662 -0.0944  3.3283 -0.8474
10946SOL    HW233673   3.817   2.130   3.514  0.8303  0.1823 -0.7721
10947SOL     OW33674   3.333   1.323   6.505  0.2156 -0.0093 -0.3167
10947SOL    HW133675   3.395   1.298   6.436  0.8178 -0.4908  0.3912
10947SOL    HW233676   3.387   1.357   6.576 -0.2058 -1.5297  0.7886
10948SOL     OW33677   7.310   5.382   5.665 -0.1205  0.1818 -0.3610
10948SOL    HW133678   7.228   5.429   5.680 -0.1081  0.6817 -1.6890
10948SOL    HW233679   7.283   5.300   5.623  0.0061 -0.0632  0.0270
10949SOL     OW33680   6.690   3.897   3.485  0.0880  0.1861  0.0672
10949SOL    HW133681   6.625   3.951   3.441  1.9914 -0.0738 -3.4166
10949SOL    HW233682   6.766   3.954   3.495  1.1189 -0.9567 -0.9485
10950SOL     OW33683   4.171   0.672   3.924  0.1792 -0.2657  0.7613
10950SOL    HW133684   4.243   0.611   3.909 -0.5191 -1.1588  0.9398
10950SOL    HW233685   4.114   0.662   3.847 -0.6175 -0.8484  1.3975
10951SOL     OW33686   6.647   6.946   7.529  0.1602 -0.0051 -0.1871
10951SOL    HW133687   6.555   6.939   7.504  0.3368 -1.9770 -0.4579
10951SOL    HW233688   6.694   6.898   7.461  1.1699 -0.8498  1.0478
10952SOL     OW33689   4.000   2.421   6.652 -0.0944  0.3697  0.1747
10952SOL    HW133690   3.995   2.516   6.644 -0.8868  0.3174 -0.0252
10952SOL    HW233691   4.066   2.395   6.588 -0.4274  0.7185 -0.3215
10953SOL     OW33692   4.885   4.236   5.617 -0.4094 -0.2220 -0.4881
10953SOL    HW133693   4.963   4.275   5.656 -0.1644  0.5704 -1.7069
10953SOL    HW233694   4.915   4.202   5.533 -0.9746 -1.6670 -0.1226
10954SOL     OW33695   1.850   3.890   3.891 -0.1819 -0.4101 -0.3765
10954SOL    HW133696   1.894   3.876   3.806  1.3429  0.9365  0.1438
10954SOL    HW233697   1.838   3.984   3.897 -0.2088 -0.4771  0.9397
10955SOL     OW33698   6.941   3.620   1.033 -0.0929  0.6067  0.4416
10955SOL    HW133699   6.873   3.593   1.096  1.1052 -1.5240  0.9312
10955SOL    HW233700   7.006   3.665   1.086  1.0245 -1.3841  0.8496
10956SOL     OW33701   5.513   6.572   1.841  0.2266  0.3425  0.3049
10956SOL    HW133702   5.536   6.487   1.803  0.4815 -0.3197  1.8481
10956SOL    HW233703   5.456   6.613   1.776  0.2337 -0.9371 -0.5482
10957SOL     OW33704   3.466   4.675   0.059 -0.5857 -0.3332  0.0038
10957SOL    HW133705   3.530   4.722   0.005 -0.0984 -1.3591 -0.3419
10957SOL    HW233706   3.396   4.653  -0.002 -0.4041 -0.8006 -0.0419
10958SOL     OW33707   4.322   5.988   0.125  0.0033 -0.2203  0.0465
10958SOL    HW133708   4.382   5.983   0.050 -0.9639  0.2584 -0.7824
10958SOL    HW233709   4.285   5.900   0.132  1.9287 -0.9824  1.5643
10959SOL     OW33710   2.103   6.301   0.617 -0.2152  0.9840 -0.4311
10959SOL    HW133711   2.176   6.267   0.669 -0.2545  0.8562 -0.4601
10959SOL    HW233712   2.060   6.224   0.582 -1.8494  0.9013  1.5818
10960SOL     OW33713   4.347   1.059   4.771  0.2539 -0.0758 -0.3763
10960SOL    HW133714   4.324   1.144   4.732  1.7587  0.8661  0.6877
10960SOL    HW233715   4.367   1.003   4.696 -0.2684  0.6458 -1.0789
10961SOL     OW33716   7.835   7.160   6.860 -0.2023 -0.4841  1.0232
10961SOL    HW133717   7.840   7.255   6.867 -1.2035  0.1044 -3.4359
10961SOL    HW233718   7.926   7.132   6.846 -0.1295  0.0601  0.3927
10962SOL     OW33719   5.513   0.311   7.900 -0.1260 -0.1938  0.0120
10962SOL    HW133720   5.490   0.298   7.808  0.7543  1.8529 -0.5430
10962SOL    HW233721   5.576   0.241   7.918 -0.0710 -0.4354 -1.0283
10963SOL     OW33722   6.137   7.654   2.896  0.7243 -0.4556  0.1547
10963SOL    HW133723   6.075   7.722   2.869  1.3486 -0.3359 -1.0104
10963SOL    HW233724   6.148   7.669   2.990  0.9060  1.1199 -0.0856
10964SOL     OW33725   5.897   3.014   5.678 -0.2657 -0.6718 -0.1784
10964SOL    HW133726   5.854   3.097   5.701 -0.0333 -0.7327  0.4872
10964SOL    HW233727   5.986   3.040   5.653 -0.0558 -0.7685  0.4671
10965SOL     OW33728   1.279   6.679   4.326 -0.8255  0.0980 -0.0337
10965SOL    HW133729   1.251   6.737   4.397 -0.1976 -1.6451  1.7222
10965SOL    HW233730   1.368   6.654   4.350 -0.7532 -0.8652 -1.2365
10966SOL     OW33731   3.483   1.449   1.235  0.0177 -0.1614 -0.1944
10966SOL    HW133732   3.495   1.376   1.297 -1.2036  0.7681  1.2224
10966SOL    HW233733   3.392   1.440   1.206  0.4653 -0.3416 -1.5768
10967SOL     OW33734   0.057   6.405   1.177 -0.0937 -0.4696 -0.5713
10967SOL    HW133735   0.142   6.380   1.214  0.2964 -1.4087 -2.0517
10967SOL    HW233736   0.077   6.483   1.124 -0.7491  1.2153  1.4980
10968SOL     OW33737   0.960   4.918   4.961 -0.3728 -0.6825  0.6001
10968SOL    HW133738   0.883   4.907   5.017  0.7206 -2.7017  1.8224
10968SOL    HW233739   0.990   5.007   4.978 -1.0272 -0.7122  2.0284
10969SOL     OW33740   6.797   5.336   1.600  0.1257 -0.0571  0.7756
10969SOL    HW133741   6.827   5.270   1.662  2.9015  0.4574  0.1025
10969SOL    HW233742   6.869   5.399   1.594 -0.1394  0.1366 -2.6257
10970SOL     OW33743   5.458   6.520   6.176  0.3598 -0.5639  0.4929
10970SOL    HW133744   5.392   6.587   6.189 -0.9131 -1.2905 -1.8086
10970SOL    HW233745   5.541   6.568   6.169 -0.3025  0.5989  0.5012
10971SOL     OW33746   2.967   7.858   2.546  0.0819 -0.3696  0.6055
10971SOL    HW133747   3.052   7.819   2.568  0.5380  0.7922  0.9908
10971SOL    HW233748   2.937   7.899   2.627 -0.9640 -0.9441  0.5288
10972SOL     OW33749   5.213   0.576   7.526  0.2123 -0.1049  0.0931
10972SOL    HW133750   5.195   0.609   7.614  1.1831 -0.0236  0.2720
10972SOL    HW233751   5.161   0.633   7.468 -0.5185 -0.2323  0.6131
10973SOL     OW33752   2.384   6.200   5.720  0.2710 -0.4313  0.8859
10973SOL    HW133753   2.347   6.114   5.740 -0.1473 -0.0452  1.8597
10973SOL    HW233754   2.409   6.195   5.628  0.2983 -1.6080  0.9459
10974SOL     OW33755   2.452   5.361   3.102  0.1887  0.0398  0.3891
10974SOL    HW133756   2.531   5.314   3.079 -0.0926 -1.2765  1.9403
10974SOL    HW233757   2.439   5.424   3.031  0.7172 -2.0319 -1.6485
10975SOL     OW33758   0.015   3.647   5.640  0.1510 -0.1845  0.1633
10975SOL    HW133759   0.028   3.725   5.694 -0.8225  0.0764  0.0402
10975SOL    HW233760   0.097   3.599   5.647  0.8869  1.0102 -0.0169
10976SOL     OW33761   4.996   6.011   1.657  0.2514  0.5771 -0.6634
10976SOL    HW133762   5.026   6.074   1.723  2.1166  1.0975 -1.9275
10976SOL    HW233763   4.907   6.039   1.637 -0.6782 -0.0890  2.1594
10977SOL     OW33764   0.954   2.605   2.441 -0.1026 -0.5040  0.2910
10977SOL    HW133765   1.006   2.551   2.381 -0.8498 -0.7397 -0.1515
10977SOL    HW233766   0.863   2.593   2.412 -0.3586  0.3295  0.7198
10978SOL     OW33767   1.035   1.369   6.290  0.5018  0.1625 -0.4716
10978SOL    HW133768   1.103   1.436   6.287  1.5530 -0.9023 -1.3802
10978SOL    HW233769   1.082   1.288   6.307 -0.5479 -0.5930 -1.0745
10979SOL     OW33770   1.937   3.974   5.278 -0.2257 -0.2769  0.1445
10979SOL    HW133771   2.031   3.955   5.273  0.2660  2.0457 -2.8161
10979SOL    HW233772   1.896   3.890   5.297  2.3129 -1.9476 -1.2142
10980SOL     OW33773   5.405   7.862   2.383 -0.4057  0.0333  0.6846
10980SOL    HW133774   5.467   7.807   2.334 -2.5337 -0.5582 -1.5393
10980SOL    HW233775   5.417   7.950   2.346 -2.4634 -0.5320 -1.5553
10981SOL     OW33776   3.888   2.880   4.522  0.2696 -0.1804 -0.0121
10981SOL    HW133777   3.951   2.876   4.450  0.4678  1.0089  0.0767
10981SOL    HW233778   3.939   2.853   4.599  0.1634 -1.0499 -0.2279
10982SOL     OW33779   1.807   0.787   2.178 -0.1584 -0.6289 -0.1612
10982SOL    HW133780   1.804   0.832   2.262  0.7727 -0.8390 -0.0102
10982SOL    HW233781   1.830   0.855   2.115 -0.5608 -0.5313 -0.2042
10983SOL     OW33782   7.535   1.166   7.512 -0.5255 -0.4100  0.7638
10983SOL    HW133783   7.619   1.120   7.504 -1.1170 -1.4025  0.1015
10983SOL    HW233784   7.537   1.204   7.599  0.1778 -1.3245  1.1665
10984SOL     OW33785   1.342   3.400   0.349 -0.3930  0.4199 -0.4352
10984SOL    HW133786   1.306   3.322   0.391  0.3028 -0.0304 -0.6515
10984SOL    HW233787   1.289   3.413   0.271  0.7224 -1.0486 -1.4986
10985SOL     OW33788   6.497   0.076   7.296 -0.8543  0.9873  0.4943
10985SOL    HW133789   6.409   0.042   7.280 -0.8492  1.9867 -2.0524
10985SOL    HW233790   6.510   0.142   7.228  2.0543  0.5424  0.4983
10986SOL     OW33791   2.827   6.635   3.299  0.0057  0.3064 -0.1973
10986SOL    HW133792   2.861   6.551   3.269  1.2940  0.6215  0.3023
10986SOL    HW233793   2.868   6.648   3.384 -0.8840  1.0333  0.1397
10987SOL     OW33794   6.307   5.193   5.973  0.4858 -0.4278  0.4463
10987SOL    HW133795   6.301   5.099   5.994 -1.2475 -0.3009  0.7033
10987SOL    HW233796   6.223   5.229   6.002  0.5019  0.9309 -1.0686
10988SOL     OW33797   5.754   2.107   6.179 -0.0333  0.4995 -0.0218
10988SOL    HW133798   5.814   2.039   6.211  0.7865  0.9889 -0.4718
10988SOL    HW233799   5.733   2.159   6.256  1.2741  1.1814 -0.0923
10989SOL     OW33800   5.170   6.989   6.077 -0.3012  0.2014 -0.2370
10989SOL    HW133801   5.080   7.018   6.066 -0.1878  0.8532  0.4861
10989SOL    HW233802   5.163   6.897   6.102 -0.7094 -0.0856 -1.3339
10990SOL     OW33803   6.036   0.396   0.494 -0.0481  0.1709  0.3696
10990SOL    HW133804   6.052   0.404   0.588  1.0216 -1.3632  0.3450
10990SOL    HW233805   6.046   0.303   0.475 -1.8127  0.2066 -1.0103
10991SOL     OW33806   5.370   7.512   2.387 -0.5671 -0.1249  0.2988
10991SOL    HW133807   5.332   7.572   2.324 -0.2462 -1.1634 -0.9498
10991SOL    HW233808   5.419   7.449   2.333 -0.8143 -1.4429  1.5327
10992SOL     OW33809   1.488   2.597   5.676  0.2024  0.3200  0.7836
10992SOL    HW133810   1.583   2.601   5.679  0.1720  1.8865  0.6724
10992SOL    HW233811   1.468   2.528   5.612  1.2340 -0.4699  1.2934
10993SOL     OW33812   4.274   6.503   1.287 -0.2296 -0.2143  0.3862
10993SOL    HW133813   4.272   6.450   1.208  0.8584 -0.7161  0.6695
10993SOL    HW233814   4.184   6.533   1.299 -0.1635  1.0273 -1.7962
10994SOL     OW33815   4.299   6.180   1.321  0.0247  0.3820  0.2515
10994SOL    HW133816   4.314   6.250   1.384  1.4566  0.8819 -0.6158
10994SOL    HW233817   4.244   6.220   1.254  0.9058  0.7318 -0.2837
10995SOL     OW33818   0.214   2.515   0.065 -0.4014  0.1976  0.1075
10995SOL    HW133819   0.183   2.557  -0.015  2.3553  2.6193  0.1533
10995SOL    HW233820   0.188   2.575   0.135  0.7419  0.2150  0.5400
10996SOL     OW33821   1.168   3.921   3.057  0.3851  0.0924 -0.2471
10996SOL    HW133822   1.163   4.008   3.095  1.2827 -0.6283  1.6281
10996SOL    HW233823   1.222   3.871   3.118  0.0738 -1.7240 -1.3898
10997SOL     OW33824   7.308   5.097   7.073  0.1243  0.4284  0.2424
10997SOL    HW133825   7.394   5.054   7.070  0.0710  0.3589 -0.3828
10997SOL    HW233826   7.328   5.190   7.062  0.0229  0.2842 -1.3845
10998SOL     OW33827   1.734   5.902   2.412  0.2150  0.1094 -0.2814
10998SOL    HW133828   1.650   5.939   2.386  0.1345  0.3775  0.3487
10998SOL    HW233829   1.753   5.942   2.497 -0.0719 -1.6083  0.6295
10999SOL     OW33830   1.362   3.532   5.714 -0.4273 -0.5419  0.3148
10999SOL    HW133831   1.355   3.617   5.671  1.7260  0.2295  1.3370
10999SOL    HW233832   1.447   3.534   5.758 -1.7391 -1.8658  3.2269
11000SOL     OW33833   2.647   1.738   7.367 -0.2947  0.2130  0.8452
11000SOL    HW133834   2.691   1.667   7.415 -0.4921 -2.1969 -2.1961
11000SOL    HW233835   2.570   1.697   7.329 -0.9768  2.3585 -0.2468
11001SOL     OW33836   4.535   3.975   5.477  0.1926 -0.4538 -0.1132
11001SOL    HW133837   4.618   3.960   5.520  0.9085 -2.0110 -1.8867
11001SOL    HW233838   4.511   3.889   5.441 -1.5778  0.2271 -0.6573
11002SOL     OW33839   6.426   0.937   4.714 -0.2115  0.3313  0.6083
11002SOL    HW133840   6.340   0.979   4.709  0.3316  1.7521  2.2172
11002SOL    HW233841   6.444   0.909   4.624 -0.9159  3.0414 -0.5014
11003SOL     OW33842   4.604   7.598   3.189 -0.3150 -0.2131 -0.6157
11003SOL    HW133843   4.643   7.649   3.118  0.9638 -0.1163  0.1317
11003SOL    HW233844   4.661   7.614   3.265 -0.7538 -1.5377  0.0309
11004SOL     OW33845   1.557   6.055   7.922 -0.1434 -0.0257 -0.2018
11004SOL    HW133846   1.473   6.083   7.884  0.8980  2.9647 -0.5709
11004SOL    HW233847   1.610   6.029   7.846 -0.3787 -0.9675 -0.0576
11005SOL     OW33848   6.014   2.796   3.807 -0.4838 -0.1302  0.0555
11005SOL    HW133849   5.957   2.727   3.774  0.9887 -0.8782 -1.0147
11005SOL    HW233850   6.050   2.837   3.729  0.1044  0.6210  0.7005
11006SOL     OW33851   4.414   6.879   1.405 -0.2176  0.7553 -0.6043
11006SOL    HW133852   4.501   6.918   1.417  1.1347 -1.5174 -2.2813
11006SOL    HW233853   4.394   6.837   1.488  0.1455  1.5534 -0.1078
11007SOL     OW33854   2.983   3.332   1.778  0.0405 -0.2741 -0.4140
11007SOL    HW133855   2.896   3.370   1.760  0.2213  0.5403  0.3385
11007SOL    HW233856   3.006   3.286   1.697 -0.9530 -0.2383 -0.7413
11008SOL     OW33857   3.356   6.970   7.488 -0.2377 -0.3550 -0.3723
11008SOL    HW133858   3.309   7.036   7.437 -0.5012 -0.5938 -0.4395
11008SOL    HW233859   3.293   6.940   7.553  0.0364 -0.1885 -0.0212
11009SOL     OW33860   0.315   2.742   7.213  0.3214 -0.0896  0.1035
11009SOL    HW133861   0.253   2.810   7.187 -0.1085 -1.0331 -1.4827
11009SOL    HW233862   0.263   2.676   7.258  0.0211 -1.0624 -1.5548
11010SOL     OW33863   6.154   1.526   6.620 -0.4703 -0.0790  0.7061
11010SOL    HW133864   6.249   1.515   6.614 -0.4951 -0.2932  0.6879
11010SOL    HW233865   6.121   1.501   6.534 -0.5573 -0.1667  0.7645
11011SOL     OW33866   3.712   0.572   2.084 -0.4225  0.9103  0.0037
11011SOL    HW133867   3.752   0.576   1.997 -0.3184  0.6346  0.0390
11011SOL    HW233868   3.642   0.637   2.081 -0.6367  0.6644 -0.3963
11012SOL     OW33869   0.896   3.984   0.499 -0.1784  0.6130 -0.3187
11012SOL    HW133870   0.856   4.011   0.416  0.1296  0.0182 -0.6626
11012SOL    HW233871   0.974   4.039   0.507 -0.5070  1.0609 -0.1457
11013SOL     OW33872   5.075   1.334   2.175 -0.2690 -0.0511  0.7699
11013SOL    HW133873   5.139   1.275   2.214  1.2901  1.5713  0.8182
11013SOL    HW233874   4.996   1.281   2.164 -0.7221 -0.7980  5.5577
11014SOL     OW33875   4.819   7.803   1.689 -0.1829 -0.4143 -0.3174
11014SOL    HW133876   4.733   7.788   1.649  0.4444 -0.0808 -1.8621
11014SOL    HW233877   4.806   7.879   1.745 -1.1721 -1.1075  0.4433
11015SOL     OW33878   3.150   0.946   1.574 -0.0095 -0.0202  0.2139
11015SOL    HW133879   3.237   0.984   1.589  0.0870 -0.0096 -0.3789
11015SOL    HW233880   3.090   1.020   1.584  0.1671  0.2751 -0.7911
11016SOL     OW33881   4.116   7.731   6.033 -0.1754  0.5164  0.5778
11016SOL    HW133882   4.074   7.688   6.107 -0.8367 -0.5366 -0.3924
11016SOL    HW233883   4.210   7.721   6.049 -0.3167 -0.8350  0.6470
11017SOL     OW33884   2.296   0.019   0.456  0.0802 -0.3026  0.4477
11017SOL    HW133885   2.317   0.099   0.408 -0.4069 -0.4613 -0.0504
11017SOL    HW233886   2.263   0.049   0.541 -3.5561  0.2979 -0.9575
11018SOL     OW33887   5.369   6.787   6.255  0.1029  0.0561 -0.0206
11018SOL    HW133888   5.278   6.789   6.226  0.1062 -0.4433 -0.0880
11018SOL    HW233889   5.385   6.874   6.291  0.2514  0.8915 -1.9551
11019SOL     OW33890   2.374   2.435   6.526  0.6728  0.4177  0.7318
11019SOL    HW133891   2.279   2.448   6.523  0.9649  3.0637 -0.5283
11019SOL    HW233892   2.396   2.401   6.439  1.0649  1.8866  0.2322
11020SOL     OW33893   5.602   2.065   0.001  0.2272  0.1257 -0.3127
11020SOL    HW133894   5.614   2.160  -0.007  1.8484  0.0280  0.5520
11020SOL    HW233895   5.657   2.028  -0.068 -0.4341 -0.2004 -0.6750
11021SOL     OW33896   1.463   5.731   3.267 -0.6200 -0.6735 -0.3418
11021SOL    HW133897   1.460   5.640   3.297  0.8856 -0.7585 -0.4095
11021SOL    HW233898   1.431   5.727   3.177 -0.2184 -1.2016 -0.4669
11022SOL     OW33899   7.044   6.734   4.939 -0.3302  0.2033  0.3154
11022SOL    HW133900   7.136   6.720   4.917 -0.8990 -0.7385 -1.5968
11022SOL    HW233901   7.009   6.784   4.865 -1.9582 -1.7243 -0.2868
11023SOL     OW33902   0.174   3.765   3.588  0.2094 -0.0141 -0.3532
11023SOL    HW133903   0.185   3.718   3.505 -0.6746  0.6816 -0.8826
11023SOL    HW233904   0.080   3.762   3.605  0.0455  1.9478 -0.6601
11024SOL     OW33905   2.211   6.764   3.423  0.0167  0.3391  0.3522
11024SOL    HW133906   2.284   6.748   3.482  0.7161  0.4875 -0.4484
11024SOL    HW233907   2.230   6.710   3.346 -1.7430 -1.2001  0.9193
11025SOL     OW33908   7.243   5.018   3.610 -0.4987  0.7444  0.3092
11025SOL    HW133909   7.235   5.080   3.682 -0.4766 -0.8516  1.7515
11025SOL    HW233910   7.298   5.063   3.546 -0.4708  2.1954  1.2981
11026SOL     OW33911   0.219   6.653   3.981  0.1345  0.8561 -0.4826
11026SOL    HW133912   0.145   6.638   3.922 -0.6685  0.4110  0.5889
11026SOL    HW233913   0.195   6.732   4.030  0.1385  0.4482  0.1928
11027SOL     OW33914   3.517   6.062   0.338  0.0577  0.2757 -0.2676
11027SOL    HW133915   3.558   6.076   0.424 -1.3342  0.4962  0.3771
11027SOL    HW233916   3.537   5.970   0.318  2.1279  0.7618 -0.6862
11028SOL     OW33917   4.336   2.210   6.893 -0.0071  0.5637  0.3698
11028SOL    HW133918   4.325   2.147   6.964 -0.7678  1.1901  0.8275
11028SOL    HW233919   4.257   2.200   6.840 -0.0793  1.0550  0.3844
11029SOL     OW33920   0.321   0.763   5.769  0.3317  0.4256  0.0753
11029SOL    HW133921   0.378   0.775   5.693  1.5509 -1.4766  0.6162
11029SOL    HW233922   0.309   0.668   5.775 -1.7017  0.6825  0.8853
11030SOL     OW33923   2.449   5.218   3.455  0.2846  0.4709 -0.3986
11030SOL    HW133924   2.504   5.266   3.517  0.5640 -0.4510  0.0869
11030SOL    HW233925   2.410   5.286   3.400  0.7807  1.2388  0.1746
11031SOL     OW33926   5.717   2.836   6.470 -0.1103  0.1461  0.3149
11031SOL    HW133927   5.767   2.796   6.399 -1.1169 -0.4664 -0.0800
11031SOL    HW233928   5.772   2.906   6.503  0.1323  0.8437 -1.4995
11032SOL     OW33929   6.615   6.568   7.164  0.3101 -0.2276  0.5007
11032SOL    HW133930   6.612   6.491   7.220 -0.3005  1.4515  2.9695
11032SOL    HW233931   6.679   6.626   7.206 -1.5384  1.8725  0.6070
11033SOL     OW33932   6.212   4.964   1.274  0.1636 -0.0047 -0.2395
11033SOL    HW133933   6.196   4.874   1.301  1.3883  0.1077  0.9176
11033SOL    HW233934   6.138   5.013   1.309 -0.0630 -0.4127 -0.1382
11034SOL     OW33935   0.859   2.518   3.501  0.0161  0.2128 -0.3744
11034SOL    HW133936   0.793   2.549   3.440  0.2615  2.2564  0.3405
11034SOL    HW233937   0.937   2.503   3.448 -0.2481  0.3810 -0.8078
11035SOL     OW33938   0.159   6.899   7.512 -0.3673 -0.8313  0.2749
11035SOL    HW133939   0.240   6.913   7.561 -0.3467 -1.3791  0.4092
11035SOL    HW233940   0.181   6.920   7.421 -0.4056  0.1919  0.4900
11036SOL     OW33941   4.539   7.441   7.642  0.4124  0.0113 -0.2932
11036SOL    HW133942   4.479   7.416   7.572 -0.8843  0.7224  0.5092
11036SOL    HW233943   4.602   7.500   7.601 -0.4258  0.5423 -0.8466
11037SOL     OW33944   4.356   3.269   4.999 -0.3689 -0.1327  0.1726
11037SOL    HW133945   4.404   3.302   5.074 -0.8370  1.1922 -0.0950
11037SOL    HW233946   4.416   3.206   4.958  0.3564  0.0349  0.9512
11038SOL     OW33947   0.384   0.482   5.340  0.2763 -0.0659 -0.2712
11038SOL    HW133948   0.300   0.447   5.313 -0.0366 -0.7575  1.4718
11038SOL    HW233949   0.368   0.523   5.425  1.5900  0.2387 -0.1364
11039SOL     OW33950   5.400   2.356   6.565  0.3188  0.2046  0.0612
11039SOL    HW133951   5.470   2.399   6.515 -0.6786  1.4346 -0.3147
11039SOL    HW233952   5.363   2.425   6.619 -1.0226 -0.2808 -0.1968
11040SOL     OW33953   5.489   2.616   6.056 -0.0098  0.3207 -0.7088
11040SOL    HW133954   5.517   2.612   5.964  0.9157 -0.1572 -0.4206
11040SOL    HW233955   5.556   2.567   6.103  0.2907  1.7578  0.4057
11041SOL     OW33956   3.025   3.780   4.240 -0.0557  0.3399 -0.4015
11041SOL    HW133957   3.107   3.786   4.289  0.5985 -2.7045 -0.9375
11041SOL    HW233958   3.046   3.726   4.164 -2.3229  0.3705 -1.1413
11042SOL     OW33959   5.762   6.514   1.565 -0.0344 -0.3183 -0.0097
11042SOL    HW133960   5.727   6.457   1.634  1.4471 -1.4693 -0.1706
11042SOL    HW233961   5.794   6.453   1.498 -0.9480  0.7678 -1.4902
11043SOL     OW33962   1.884   5.757   3.453 -0.1079  0.4285  0.1341
11043SOL    HW133963   1.799   5.773   3.492  1.0950  0.4080  3.0394
11043SOL    HW233964   1.932   5.839   3.465  0.5108  0.2224 -0.8155
11044SOL     OW33965   5.452   4.804   5.469 -0.0662 -0.1988  0.0091
11044SOL    HW133966   5.458   4.866   5.397  1.7827 -0.9030 -0.5098
11044SOL    HW233967   5.414   4.725   5.430  2.6255 -1.2346 -0.7735
11045SOL     OW33968   2.652   7.369   2.217  0.2294 -0.0528 -0.6000
11045SOL    HW133969   2.607   7.435   2.164  1.2283  2.5287  1.5226
11045SOL    HW233970   2.744   7.395   2.214  0.3762  0.0036  2.0151
11046SOL     OW33971   7.081   3.210   1.225 -0.0823  0.6868  0.9645
11046SOL    HW133972   7.026   3.273   1.271 -2.3129  0.1752 -0.8100
11046SOL    HW233973   7.023   3.136   1.207  1.0155  0.3105 -1.4230
11047SOL     OW33974   1.597   6.771   6.947  0.0769 -0.1224  0.0109
11047SOL    HW133975   1.655   6.784   7.021 -1.3296  0.6540  1.0282
11047SOL    HW233976   1.512   6.753   6.986 -0.7244  0.3763 -1.4145
11048SOL     OW33977   1.214   7.761   3.056  0.4706  0.0032  0.2201
11048SOL    HW133978   1.140   7.820   3.072  0.6450  0.1981  0.3066
11048SOL    HW233979   1.174   7.681   3.022  0.3953  1.0840 -2.5343
11049SOL     OW33980   1.363   7.902   5.129  0.1844  0.2516 -0.0293
11049SOL    HW133981   1.271   7.902   5.104  0.5961  0.1253 -1.6434
11049SOL    HW233982   1.405   7.964   5.070  1.1708  0.2242  0.6043
11050SOL     OW33983   3.382   6.402   6.511 -0.0240 -0.9040 -0.3815
11050SOL    HW133984   3.312   6.337   6.517  0.6918 -1.7529 -0.9123
11050SOL    HW233985   3.437   6.385   6.588 -0.9505  0.4811  0.6529
11051SOL     OW33986   6.805   7.407   2.395 -0.4451 -0.1106 -0.3317
11051SOL    HW133987   6.812   7.340   2.328  1.0901 -0.1076 -0.2058
11051SOL    HW233988   6.774   7.360   2.473 -1.5706 -0.2348 -0.8357
11052SOL     OW33989   7.853   1.881   0.388 -0.4399 -0.0871 -0.8834
11052SOL    HW133990   7.920   1.884   0.319 -0.1638  0.7592 -0.5907
11052SOL    HW233991   7.879   1.808   0.444 -0.6272 -0.7377 -1.6315
11053SOL     OW33992   1.086   3.315   1.436  0.5659  0.1406 -0.2084
11053SOL    HW133993   1.016   3.275   1.487  0.6982  0.0062 -0.1317
11053SOL    HW233994   1.098   3.257   1.361 -0.7677  1.1981 -1.2970
11054SOL     OW33995   5.658   4.462   1.609  0.1203 -0.1924  0.1748
11054SOL    HW133996   5.736   4.453   1.554  1.1970  4.2511  0.6407
11054SOL    HW233997   5.601   4.522   1.561 -1.0791  0.0090  1.7554
11055SOL     OW33998   0.281   0.334   7.050  0.0084 -0.1346 -0.0065
11055SOL    HW133999   0.252   0.270   7.115  0.3468  1.3432  1.7060
11055SOL    HW234000   0.362   0.370   7.086  0.9152 -0.1391 -1.9089
11056SOL     OW34001   2.663   4.417   3.949  0.0959  0.3338  0.4094
11056SOL    HW134002   2.652   4.508   3.976 -3.2462 -0.0209  0.7293
11056SOL    HW234003   2.678   4.369   4.030 -1.4255  0.2737  0.6876
11057SOL     OW34004   0.006   4.979   1.482 -0.2333 -0.2618 -0.0804
11057SOL    HW134005  -0.060   5.033   1.439  1.2062  0.3067 -1.6885
11057SOL    HW234006   0.074   5.041   1.509  0.4346 -1.0144  0.0094
11058SOL     OW34007   6.435   6.174   1.216  0.0382  0.3628  0.2922
11058SOL    HW134008   6.476   6.257   1.190 -0.9146  1.0738  0.9827
11058SOL    HW234009   6.424   6.127   1.134  0.7230  0.8560 -0.0999
11059SOL     OW34010   7.590   1.802   6.079  0.0219  0.4645  0.1097
11059SOL    HW134011   7.503   1.841   6.076 -0.2542 -0.1461  0.1857
11059SOL    HW234012   7.627   1.832   6.162  0.3420  1.6691 -0.4370
11060SOL     OW34013   5.467   7.644   4.626  0.3797 -0.2729 -0.2256
11060SOL    HW134014   5.401   7.685   4.571  0.6122 -0.2221 -0.4685
11060SOL    HW234015   5.509   7.579   4.570  0.1459 -0.7103  0.0995
11061SOL     OW34016   0.421   2.634   3.565 -0.0076  0.3644  0.0829
11061SOL    HW134017   0.497   2.692   3.563 -0.0827  0.4606  0.0321
11061SOL    HW234018   0.358   2.675   3.505 -0.3777  0.6578  0.6647
11062SOL     OW34019   2.131   0.996   4.374 -0.0173 -0.4636  0.3022
11062SOL    HW134020   2.163   1.070   4.426  0.0392  0.4182 -0.9326
11062SOL    HW234021   2.149   0.919   4.428  1.9304  0.2217  0.7040
11063SOL     OW34022   7.873   2.216   5.606 -0.1001 -0.3441  0.4169
11063SOL    HW134023   7.789   2.243   5.642 -1.0663 -1.1113 -1.1592
11063SOL    HW234024   7.918   2.298   5.585 -0.8556  0.0714  0.4056
11064SOL     OW34025   4.397   3.723   7.775 -0.4006  0.0923  0.2812
11064SOL    HW134026   4.434   3.646   7.818 -0.3705 -0.1323 -0.1418
11064SOL    HW234027   4.372   3.692   7.688  0.3408  0.7480 -0.1747
11065SOL     OW34028   4.550   5.351   6.461  0.0148  0.2753 -0.0246
11065SOL    HW134029   4.459   5.355   6.491  0.0822  0.8691  0.1158
11065SOL    HW234030   4.574   5.259   6.471 -0.4149  0.2011  0.3987
11066SOL     OW34031   6.201   3.821   0.714 -0.7558  0.0602 -0.4532
11066SOL    HW134032   6.207   3.726   0.719 -1.0527  0.0019 -1.0800
11066SOL    HW234033   6.241   3.852   0.794 -2.4006 -0.6662  0.7069
11067SOL     OW34034   2.772   3.535   1.915 -0.1128  0.5240 -0.1985
11067SOL    HW134035   2.759   3.531   1.821 -1.9583  0.9769  0.0003
11067SOL    HW234036   2.813   3.620   1.930 -1.3415  1.1772 -0.4586
11068SOL     OW34037   0.617   2.683   0.945  0.7561 -0.2968  0.6514
11068SOL    HW134038   0.699   2.660   0.988  0.2501 -0.3189  1.6444
11068SOL    HW234039   0.630   2.660   0.853  1.3025 -1.7686  1.0763
11069SOL     OW34040   1.185   1.152   6.137  0.1607 -0.3980 -0.0565
11069SOL    HW134041   1.146   1.235   6.110 -0.1244  0.1020  1.7566
11069SOL    HW234042   1.111   1.094   6.153  0.3457 -0.8805 -0.8929
11070SOL     OW34043   5.063   0.661   6.676 -0.0806  0.6724 -0.3495
11070SOL    HW134044   5.122   0.599   6.633 -1.2332 -1.8876  1.4850
11070SOL    HW234045   5.101   0.674   6.763 -0.1243  2.1927 -0.5381
11071SOL     OW34046   2.475   0.418   3.745  0.4126 -0.4216  0.7317
11071SOL    HW134047   2.437   0.334   3.770  0.8531 -0.8096  0.1196
11071SOL    HW234048   2.420   0.483   3.789 -2.4741 -0.8132 -1.9711
11072SOL     OW34049   6.188   4.277   0.279  0.2799  0.4570 -0.3975
11072SOL    HW134050   6.222   4.232   0.356  0.6750  0.3103 -0.6504
11072SOL    HW234051   6.093   4.272   0.288  0.3080 -0.8238 -0.6367
11073SOL     OW34052   4.633   0.103   7.665 -0.7479 -0.4764 -0.1149
11073SOL    HW134053   4.714   0.124   7.617  0.7551 -1.6832  1.7650
11073SOL    HW234054   4.599   0.026   7.621 -2.1574  1.2527 -2.2797
11074SOL     OW34055   7.240   2.451   4.385  0.3793 -0.0384  0.1366
11074SOL    HW134056   7.292   2.464   4.464 -0.3851  0.9759  0.4925
11074SOL    HW234057   7.168   2.393   4.413 -0.2869  0.8872  0.3754
11075SOL     OW34058   0.521   3.862   6.705  0.1371  0.5169  0.1801
11075SOL    HW134059   0.515   3.767   6.713 -0.0874  0.4439 -0.7203
11075SOL    HW234060   0.430   3.892   6.704 -0.2346  0.1877 -5.0474
11076SOL     OW34061   4.186   7.718   2.126  1.0473 -0.9805  0.0150
11076SOL    HW134062   4.218   7.636   2.089 -0.3247 -2.0319  1.0302
11076SOL    HW234063   4.094   7.701   2.145  0.4714  1.1275 -0.6075
11077SOL     OW34064   7.288   6.480   5.077  0.2586  0.4249 -0.0972
11077SOL    HW134065   7.218   6.531   5.119 -0.5105 -0.2349 -0.5459
11077SOL    HW234066   7.275   6.391   5.110  0.5475  0.1906 -0.6080
11078SOL     OW34067   3.231   1.085   4.452  0.1817 -0.1757 -0.1480
11078SOL    HW134068   3.145   1.122   4.435 -0.0497 -0.3707  0.5808
11078SOL    HW234069   3.216   1.017   4.518  0.6180 -1.4341 -1.2727
11079SOL     OW34070   3.970   0.751   0.366 -0.3608 -0.1861  0.1646
11079SOL    HW134071   3.895   0.693   0.374  0.3456 -1.1433  0.0737
11079SOL    HW234072   4.035   0.700   0.318  0.1157  0.8523 -0.3234
11080SOL     OW34073   4.309   1.421   7.262  0.1786 -0.5148  0.3680
11080SOL    HW134074   4.255   1.495   7.235 -0.7063 -0.5019  2.0307
11080SOL    HW234075   4.393   1.460   7.285 -0.4100  0.0898  1.6317
11081SOL     OW34076   0.323   4.404   1.048  0.4135 -0.1154 -0.3171
11081SOL    HW134077   0.228   4.412   1.039  0.5146  1.6876 -0.2051
11081SOL    HW234078   0.341   4.436   1.137  1.1739  0.0552 -0.5299
11082SOL     OW34079   7.345   2.257   1.588 -0.2658 -0.2643  0.0766
11082SOL    HW134080   7.356   2.165   1.612 -1.6834  0.1087  2.5326
11082SOL    HW234081   7.404   2.304   1.647  1.5671  0.4046 -2.1400
11083SOL     OW34082   6.877   2.864   1.276 -0.2103  0.3461 -0.2453
11083SOL    HW134083   6.845   2.927   1.212 -1.2078  0.8916  0.7596
11083SOL    HW234084   6.814   2.868   1.348  2.4250  2.0127  2.2091
11084SOL     OW34085   6.346   2.633   1.609  0.2727 -0.2027 -0.3571
11084SOL    HW134086   6.413   2.624   1.676 -0.0188  1.4800  0.2150
11084SOL    HW234087   6.265   2.646   1.658  0.1312  1.5859 -1.0003
11085SOL     OW34088   5.482   2.964   6.975 -0.4992 -0.5466 -0.5539
11085SOL    HW134089   5.428   2.924   7.043 -0.8770 -0.8957 -1.0481
11085SOL    HW234090   5.571   2.934   6.993 -0.3524  0.5170  0.6275
11086SOL     OW34091   0.006   0.023   7.377 -0.5356 -0.4015  0.4495
11086SOL    HW134092  -0.054   0.087   7.338  1.8899  2.2926  0.8154
11086SOL    HW234093  -0.050  -0.031   7.433 -2.5954  2.3515  1.2851
11087SOL     OW34094   7.631   6.583   1.226  0.3003  0.1258 -0.0785
11087SOL    HW134095   7.612   6.527   1.152 -0.9017 -0.6465  0.7805
11087SOL    HW234096   7.708   6.634   1.199  1.8135 -2.3344 -0.6485
11088SOL     OW34097   5.110   2.242   5.293  0.0353  0.0865 -0.0198
11088SOL    HW134098   5.127   2.265   5.201 -0.4438 -3.7359 -1.2621
11088SOL    HW234099   5.017   2.262   5.306 -0.3403 -0.8963 -0.9997
11089SOL     OW34100   2.830   4.838   2.253  0.3729  0.0534 -0.6059
11089SOL    HW134101   2.894   4.771   2.278 -1.1842 -2.0186 -1.7820
11089SOL    HW234102   2.856   4.866   2.166  0.7691  0.6725 -0.2939
11090SOL     OW34103   6.688   3.739   7.762 -0.0864  0.3492  0.6814
11090SOL    HW134104   6.681   3.696   7.677 -3.7724  2.7571 -0.5080
11090SOL    HW234105   6.756   3.805   7.750  0.9255 -0.7224  0.3657
11091SOL     OW34106   5.738   2.138   1.348  0.4771  0.5835 -0.1352
11091SOL    HW134107   5.720   2.232   1.359  1.0311  0.7506 -0.6160
11091SOL    HW234108   5.753   2.127   1.255 -1.0201 -0.2614 -0.3001
11092SOL     OW34109   6.631   5.244   1.204 -0.6061  0.3320  0.2023
11092SOL    HW134110   6.726   5.248   1.219 -0.2886 -1.8240 -0.8430
11092SOL    HW234111   6.616   5.307   1.134 -0.2500  1.9113  1.4953
11093SOL     OW34112   3.429   7.107   1.579 -0.0501  0.4590  0.4246
11093SOL    HW134113   3.349   7.085   1.533  0.5684 -1.2613  0.0765
11093SOL    HW234114   3.497   7.105   1.512  0.5175  0.2503  0.9931
11094SOL     OW34115   6.954   7.292   4.409  0.3202  0.2428  0.6150
11094SOL    HW134116   6.972   7.365   4.469 -0.4406 -0.0198  1.1817
11094SOL    HW234117   6.860   7.277   4.418  0.6180 -1.4584  1.2663
11095SOL     OW34118   7.846   7.587   4.746 -0.4565 -0.1434  0.5010
11095SOL    HW134119   7.869   7.664   4.798  0.1438  0.0971 -0.0987
11095SOL    HW234120   7.795   7.532   4.805 -2.6828  1.6175  0.3648
11096SOL     OW34121   4.425   6.427   3.910 -0.1015  0.1457  0.3948
11096SOL    HW134122   4.485   6.481   3.962 -0.1349  0.3370  0.2371
11096SOL    HW234123   4.383   6.489   3.850  1.0633 -0.2763 -0.9278
11097SOL     OW34124   0.265   7.264   1.959  0.1283  0.5194  0.5513
11097SOL    HW134125   0.229   7.285   2.045 -0.4150  1.2695  0.1539
11097SOL    HW234126   0.232   7.333   1.901 -1.9806 -1.5205 -0.8782
11098SOL     OW34127   6.330   4.351   4.072  0.3100  0.1218 -0.0628
11098SOL    HW134128   6.255   4.363   4.014  0.1397 -1.3767 -0.1916
11098SOL    HW234129   6.349   4.258   4.067  1.8553  0.3929  0.3909
11099SOL     OW34130   5.737   2.988   2.326  0.3258  0.4013 -0.5738
11099SOL    HW134131   5.782   2.994   2.410  2.7929 -3.6828 -1.3295
11099SOL    HW234132   5.645   3.008   2.346  1.0230  0.7561  2.8149
11100SOL     OW34133   5.394   5.390   5.491 -0.0526 -0.0209  0.3321
11100SOL    HW134134   5.352   5.475   5.481 -0.9620 -0.2541  1.8045
11100SOL    HW234135   5.386   5.371   5.584 -0.8883 -2.2229 -0.1289
11101SOL     OW34136   6.096   0.381   3.347 -0.1484  0.2292 -0.2812
11101SOL    HW134137   6.138   0.385   3.262 -0.1402  2.2790 -0.2224
11101SOL    HW234138   6.010   0.343   3.329  0.1155 -0.0208 -1.0703
11102SOL     OW34139   6.229   4.753   2.187 -0.1807 -0.0600 -0.0187
11102SOL    HW134140   6.304   4.759   2.247  1.1815 -1.4489 -1.4938
11102SOL    HW234141   6.245   4.673   2.138 -0.9285  1.2924 -2.6348
11103SOL     OW34142   6.435   3.880   7.772  0.6114 -0.2351  0.0299
11103SOL    HW134143   6.447   3.951   7.709 -0.9304  0.7217  0.7603
11103SOL    HW234144   6.508   3.820   7.755  0.7324  0.4362 -2.0472
11104SOL     OW34145   3.555   4.050   1.156  0.5991 -0.2915  0.2150
11104SOL    HW134146   3.509   4.124   1.195  0.9747  0.5099 -0.7954
11104SOL    HW234147   3.642   4.085   1.135  1.1569 -1.3400  0.7096
11105SOL     OW34148   0.578   6.781   6.404  0.1630  0.0829  0.2758
11105SOL    HW134149   0.584   6.742   6.317  1.5379 -0.1527  0.4551
11105SOL    HW234150   0.608   6.712   6.463  1.8402  1.1086  0.6721
11106SOL     OW34151   0.876   6.042   2.533 -0.1160 -0.0486  0.2614
11106SOL    HW134152   0.890   6.119   2.588  0.5850  0.6799 -0.8835
11106SOL    HW234153   0.785   6.047   2.505  0.3954  1.4136 -1.2829
11107SOL     OW34154   4.035   0.308   1.275  0.8651 -0.2262  0.8725
11107SOL    HW134155   4.036   0.216   1.300  0.1764 -0.5649 -0.2453
11107SOL    HW234156   3.973   0.349   1.334  1.0324 -0.5146  1.2504
11108SOL     OW34157   6.275   3.517   3.361 -0.4211  0.4136  0.8689
11108SOL    HW134158   6.282   3.427   3.393  0.1563  0.4812  0.9321
11108SOL    HW234159   6.298   3.511   3.268 -1.7141  0.2807  0.5429
11109SOL     OW34160   3.053   1.330   5.694  0.1504  0.0406 -0.1712
11109SOL    HW134161   3.005   1.395   5.745  0.7117  0.4462 -0.1481
11109SOL    HW234162   3.122   1.300   5.753  0.5479  0.2083 -0.5455
11110SOL     OW34163   4.286   5.975   6.353  0.0409  0.9925 -0.2558
11110SOL    HW134164   4.301   5.996   6.261 -0.0611  1.6301 -0.1359
11110SOL    HW234165   4.294   6.060   6.398  1.0316  0.5548  0.4456
11111SOL     OW34166   6.230   1.969   6.312 -0.5127  0.1429  0.0995
11111SOL    HW134167   6.259   2.033   6.377  0.2253 -1.0753  0.9901
11111SOL    HW234168   6.286   1.893   6.326 -0.8392 -0.4185 -1.4801
11112SOL     OW34169   4.859   2.239   7.019 -0.0877 -0.0165 -0.1325
11112SOL    HW134170   4.904   2.319   7.045  1.7600 -0.2967 -2.1541
11112SOL    HW234171   4.793   2.268   6.956 -0.5886  0.0729  0.4280
11113SOL     OW34172   4.799   6.684   3.713 -0.1437  0.4986  0.1098
11113SOL    HW134173   4.873   6.737   3.682 -0.7577  0.2695 -1.9436
11113SOL    HW234174   4.722   6.731   3.682 -0.8267  0.1117  1.1795
11114SOL     OW34175   4.696   7.725   6.307 -0.3929  0.3601  0.1755
11114SOL    HW134176   4.632   7.713   6.377 -0.2166 -0.5240  0.1904
11114SOL    HW234177   4.658   7.793   6.251 -0.4821  1.1624  1.1860
11115SOL     OW34178   4.143   6.036   3.870  0.9795  0.1335  0.4374
11115SOL    HW134179   4.219   6.019   3.925  0.1370  1.6886  2.1986
11115SOL    HW234180   4.123   6.128   3.884 -1.2540 -0.2324  0.0886
11116SOL     OW34181   6.663   2.322   4.949  0.6109  0.2153  0.1235
11116SOL    HW134182   6.751   2.308   4.983  0.8919 -2.4454 -1.4392
11116SOL    HW234183   6.674   2.326   4.854 -0.8190  1.0788 -0.0330
11117SOL     OW34184   0.019   4.587   4.991  0.1746 -0.5579 -0.6112
11117SOL    HW134185   0.018   4.520   5.060  1.1266 -0.7678 -0.7792
11117SOL    HW234186  -0.063   4.635   5.002  0.3912 -0.4639  0.8075
11118SOL     OW34187   7.249   4.303   0.893  0.0030 -0.3250  0.1212
11118SOL    HW134188   7.171   4.316   0.947  0.8315  0.4840  1.1608
11118SOL    HW234189   7.236   4.359   0.817  1.0724  2.6087  1.9465
11119SOL     OW34190   3.181   1.455   1.268  0.3349  0.3275 -0.2672
11119SOL    HW134191   3.117   1.399   1.312 -0.2870 -0.0599 -1.6111
11119SOL    HW234192   3.194   1.528   1.329  0.2903 -0.6855  0.9984
11120SOL     OW34193   5.549   2.241   6.050 -0.8018 -0.4694  0.1456
11120SOL    HW134194   5.572   2.327   6.085 -2.2274  0.9230 -2.1103
11120SOL    HW234195   5.576   2.180   6.119 -0.0679  1.7657  1.9923
11121SOL     OW34196   2.433   5.190   5.657  0.0713  0.3627  0.2824
11121SOL    HW134197   2.373   5.158   5.724 -0.0701 -3.0323 -1.2492
11121SOL    HW234198   2.517   5.197   5.702  0.0838 -2.2798  0.8366
11122SOL     OW34199   6.180   1.884   5.316  0.3379  0.3283 -0.2529
11122SOL    HW134200   6.213   1.908   5.403  1.1470 -0.5118 -0.3070
11122SOL    HW234201   6.212   1.954   5.259 -2.3205  2.2588  0.4678
11123SOL     OW34202   1.777   6.381   1.948 -0.1471 -0.0853  0.3934
11123SOL    HW134203   1.775   6.470   1.984  0.3177  0.8222 -1.6825
11123SOL    HW234204   1.685   6.356   1.940 -0.4890  1.6401 -2.1809
11124SOL     OW34205   6.977   1.113   4.882  0.2745 -0.4953 -0.4955
11124SOL    HW134206   6.962   1.119   4.788  0.4247 -1.1628 -0.5674
11124SOL    HW234207   6.991   1.020   4.898  1.7594 -0.2116 -0.0437
11125SOL     OW34208   7.783   7.457   2.026 -0.3034 -0.9815  0.1927
11125SOL    HW134209   7.737   7.420   1.951 -2.5763 -0.6721  1.3622
11125SOL    HW234210   7.764   7.550   2.022  0.0469 -0.8801  0.8253
11126SOL     OW34211   5.640   1.622   6.252 -0.0727 -0.4822 -0.0038
11126SOL    HW134212   5.620   1.529   6.260  2.1866 -1.0502 -0.0848
11126SOL    HW234213   5.654   1.635   6.158 -1.1537  0.1405 -0.0896
11127SOL     OW34214   7.079   4.978   5.804 -0.4629  0.5828  0.1107
11127SOL    HW134215   7.169   4.990   5.834 -0.8167  1.5610  0.8595
11127SOL    HW234216   7.082   4.996   5.710  0.0395  1.1446  0.2288
11128SOL     OW34217   1.548   3.486   1.615  0.3561 -0.1446 -0.2302
11128SOL    HW134218   1.517   3.396   1.605  0.2059 -0.2713  1.2129
11128SOL    HW234219   1.508   3.516   1.697  1.7141  0.6846  0.1526
11129SOL     OW34220   7.808   0.007   2.090  0.1521 -0.3791  0.2664
11129SOL    HW134221   7.858   0.004   2.172 -0.4100 -0.7415  0.6073
11129SOL    HW234222   7.721   0.037   2.116  0.3362  0.7878 -0.4026
11130SOL     OW34223   7.155   2.529   7.374 -0.2344 -0.2076 -0.1809
11130SOL    HW134224   7.105   2.571   7.304 -0.0713  1.1201  0.4758
11130SOL    HW234225   7.098   2.532   7.451 -0.6350 -2.1522 -0.3422
11131SOL     OW34226   6.496   1.809   2.491  0.1875 -1.1486 -0.1212
11131SOL    HW134227   6.529   1.752   2.560 -0.4411  0.1855  1.3422
11131SOL    HW234228   6.423   1.857   2.531  2.1372  2.4405 -0.4167
11132SOL     OW34229   6.633   0.042   6.899  0.2051 -0.1067 -0.1102
11132SOL    HW134230   6.686   0.082   6.830 -0.7796  0.3642 -0.6171
11132SOL    HW234231   6.623  -0.049   6.872  1.9278 -0.5772  0.7260
11133SOL     OW34232   2.838   2.938   6.549 -0.5356 -0.2509  0.5664
11133SOL    HW134233   2.769   2.881   6.584 -0.4453 -0.3136  0.6410
11133SOL    HW234234   2.817   3.024   6.586 -0.7923 -0.1905  0.2860
11134SOL     OW34235   2.715   0.432   4.988 -0.4781  0.9268 -0.0437
11134SOL    HW134236   2.718   0.339   5.013 -1.2061  0.7400 -0.6325
11134SOL    HW234237   2.657   0.435   4.912 -0.7494  1.9186  0.1904
11135SOL     OW34238   3.596   3.249   3.622  0.0635  0.1210 -0.4653
11135SOL    HW134239   3.509   3.225   3.589  0.4201 -0.6415 -0.8628
11135SOL    HW234240   3.627   3.316   3.560 -0.0047 -0.0192 -0.6534
11136SOL     OW34241   0.332   5.351   2.946  0.2341 -0.1762 -0.0729
11136SOL    HW134242   0.314   5.320   3.035 -3.3132 -1.2319 -0.9584
11136SOL    HW234243   0.301   5.442   2.946 -0.5011 -0.4199 -0.3835
11137SOL     OW34244   7.105   2.850   1.471  0.5121 -0.3211 -0.3981
11137SOL    HW134245   7.064   2.891   1.395  2.1175  1.1655 -0.5251
11137SOL    HW234246   7.169   2.789   1.435  0.6422 -0.2825 -0.2353
11138SOL     OW34247   4.328   7.866   6.794  0.1906 -0.2250  0.0707
11138SOL    HW134248   4.378   7.935   6.837  1.4850 -0.0841 -1.5537
11138SOL    HW234249   4.342   7.788   6.847 -1.0370  0.6489  1.7619
11139SOL     OW34250   5.155   4.138   5.532 -0.3438  0.1448 -0.2004
11139SOL    HW134251   5.120   4.163   5.446 -2.2087 -0.4684  0.3512
11139SOL    HW234252   5.214   4.210   5.555  0.0566  0.4130 -1.9023
11140SOL     OW34253   5.058   4.371   1.304  0.2083  0.1014 -0.4367
11140SOL    HW134254   5.060   4.463   1.277 -0.2817  0.7934  1.7029
11140SOL    HW234255   4.965   4.346   1.297  0.3693 -0.3147 -1.2106
11141SOL     OW34256   1.484   3.064   6.893  0.0573  0.2322 -0.0165
11141SOL    HW134257   1.500   2.993   6.830 -1.3213 -0.9771  0.9234
11141SOL    HW234258   1.510   3.028   6.977  0.2157  1.1959  0.3515
11142SOL     OW34259   2.219   2.823   6.477  0.1770  0.0769  0.2890
11142SOL    HW134260   2.296   2.783   6.517  0.1778  1.2173  1.5047
11142SOL    HW234261   2.204   2.902   6.528  0.0833  1.5671 -1.9065
11143SOL     OW34262   5.432   4.461   5.870  0.1275  0.2906 -0.1473
11143SOL    HW134263   5.378   4.385   5.889 -0.1368  0.8911  1.6149
11143SOL    HW234264   5.518   4.424   5.848  0.0348 -0.5102  0.7940
11144SOL     OW34265   3.540   6.924   5.546 -0.5136  0.4145 -0.1491
11144SOL    HW134266   3.563   6.843   5.501  0.1858  0.9814 -0.8396
11144SOL    HW234267   3.615   6.941   5.603 -0.5131  0.7411 -0.2473
11145SOL     OW34268   4.736   7.348   2.935 -0.0631  0.0120  0.1005
11145SOL    HW134269   4.783   7.269   2.906 -0.8100 -0.6372  0.6133
11145SOL    HW234270   4.731   7.403   2.857  0.4172 -0.4777 -0.2828
11146SOL     OW34271   6.986   5.240   6.911  0.2702  0.0766  0.1416
11146SOL    HW134272   6.890   5.239   6.907 -0.0031  1.1401  3.3154
11146SOL    HW234273   7.010   5.331   6.895  0.7214 -0.1211 -0.3194
11147SOL     OW34274   2.885   3.497   4.156 -0.3137  0.2733  0.3733
11147SOL    HW134275   2.828   3.573   4.170  2.5368  2.5515  0.4795
11147SOL    HW234276   2.924   3.512   4.070  0.1320 -1.2498  0.2819
11148SOL     OW34277   1.579   6.963   3.591  0.1112  0.6061 -0.2793
11148SOL    HW134278   1.503   7.021   3.589  0.5816  1.2108 -1.6601
11148SOL    HW234279   1.654   7.020   3.571  0.6633 -0.3407 -1.0081
11149SOL     OW34280   2.778   3.624   6.067 -0.8032 -0.1046  0.2638
11149SOL    HW134281   2.805   3.555   6.006  0.1738  1.2191 -0.8684
11149SOL    HW234282   2.850   3.687   6.066 -1.8959  1.2028  0.8269
11150SOL     OW34283   4.434   0.386   1.124  0.6527 -0.5567 -0.2155
11150SOL    HW134284   4.493   0.429   1.062  0.2215  2.1227  1.0456
11150SOL    HW234285   4.492   0.343   1.187  1.1987 -0.1320 -0.4219
11151SOL     OW34286   1.340   2.486   6.185 -0.2541  0.4374  0.6015
11151SOL    HW134287   1.257   2.501   6.229 -0.3242  1.4157  0.1600
11151SOL    HW234288   1.324   2.511   6.094  0.0621 -0.9578  0.1392
11152SOL     OW34289   7.437   2.849   3.537  0.2413 -0.1992  0.1615
11152SOL    HW134290   7.365   2.814   3.483  0.1854 -1.4185  0.9796
11152SOL    HW234291   7.516   2.808   3.500  0.4123  0.4186 -0.1591
11153SOL     OW34292   3.943   5.677   5.110 -0.6604 -0.0634 -0.1142
11153SOL    HW134293   3.895   5.595   5.124 -2.3929  0.6996 -1.2707
11153SOL    HW234294   3.939   5.691   5.016  1.6736  0.1997 -0.2453
11154SOL     OW34295   7.088   4.272   1.771  0.3254 -0.0985  0.0235
11154SOL    HW134296   7.168   4.246   1.817  0.1365  0.0633  0.4439
11154SOL    HW234297   7.028   4.199   1.784  0.2469 -0.0218  0.0907
11155SOL     OW34298   0.863   1.240   3.059 -0.4522  0.3399 -0.0137
11155SOL    HW134299   0.804   1.201   2.995 -0.8589  0.3255  0.3671
11155SOL    HW234300   0.872   1.173   3.127  0.5760  0.0535 -0.4133
11156SOL     OW34301   6.518   7.316   6.908 -0.2729  0.4623 -0.0418
11156SOL    HW134302   6.607   7.281   6.907 -0.4820 -0.1643  1.0874
11156SOL    HW234303   6.529   7.410   6.914  0.3379  0.3398  1.0362
11157SOL     OW34304   5.584   1.232   4.831  0.4887  0.5246 -0.4952
11157SOL    HW134305   5.542   1.259   4.749  1.4255  1.3407 -0.7255
11157SOL    HW234306   5.650   1.299   4.847  0.7461  0.0256  0.6012
11158SOL     OW34307   2.334   4.034   4.722 -0.5297  0.1332 -0.3003
11158SOL    HW134308   2.420   4.052   4.684 -0.7146 -0.9196 -1.2866
11158SOL    HW234309   2.309   4.116   4.765  1.1019  0.3437  0.3180
11159SOL     OW34310   5.915   4.569   3.156 -0.3045 -0.0915  0.3719
11159SOL    HW134311   5.869   4.568   3.072 -0.3822 -2.4043  0.3858
11159SOL    HW234312   5.870   4.504   3.209  0.6570  0.2924  1.7133
11160SOL     OW34313   1.695   2.866   5.895 -0.3854  0.1757  0.0959
11160SOL    HW134314   1.735   2.821   5.821  0.8674  1.6674 -0.1820
11160SOL    HW234315   1.768   2.887   5.953 -0.9710  1.5164  0.3796
11161SOL     OW34316   3.225   6.689   6.121  0.2988  0.4109  0.3288
11161SOL    HW134317   3.269   6.630   6.060  1.3714  1.5196 -0.0287
11161SOL    HW234318   3.208   6.636   6.198 -0.5384 -0.8575 -0.7034
11162SOL     OW34319   4.300   7.678   0.835 -0.3467 -0.2088  0.2364
11162SOL    HW134320   4.357   7.749   0.807 -0.2366 -1.1365 -2.1421
11162SOL    HW234321   4.354   7.625   0.893  0.5524  0.0411 -0.3507
11163SOL     OW34322   0.294   6.954   7.247 -0.0855  0.3939 -0.3077
11163SOL    HW134323   0.233   6.894   7.203 -0.8071  0.2640  0.8188
11163SOL    HW234324   0.280   7.038   7.204 -1.5027  0.4983  0.2970
11164SOL     OW34325   2.395   4.847   5.108 -0.3559 -0.7055 -0.1638
11164SOL    HW134326   2.347   4.824   5.187 -0.1425  1.1651  0.5719
11164SOL    HW234327   2.439   4.929   5.130  2.1065 -1.6337 -1.2507
11165SOL     OW34328   0.050   6.358   0.124 -0.6248 -0.6966  0.2099
11165SOL    HW134329   0.087   6.291   0.068  0.4884  0.2845 -0.2608
11165SOL    HW234330  -0.007   6.410   0.067 -0.2782 -0.3118  0.2065
11166SOL     OW34331   7.436   0.236   5.828  0.1079 -0.0531 -0.3087
11166SOL    HW134332   7.417   0.315   5.879 -0.3343  0.4151 -1.1822
11166SOL    HW234333   7.365   0.232   5.763  0.0743 -1.2136 -0.2238
11167SOL     OW34334   5.207   2.685   6.989 -0.7180 -0.1747 -0.4767
11167SOL    HW134335   5.273   2.715   7.052  0.9744 -2.0550 -1.2535
11167SOL    HW234336   5.189   2.595   7.014 -1.0582 -0.5059 -1.8393
11168SOL     OW34337   3.285   6.123   1.147  0.8007 -0.3372  0.1835
11168SOL    HW134338   3.326   6.150   1.065  0.0533 -0.0653 -0.1155
11168SOL    HW234339   3.257   6.032   1.131  0.6341 -0.2765  0.1270
11169SOL     OW34340   1.522   6.990   3.257 -1.0873  0.1480  0.8360
11169SOL    HW134341   1.611   6.978   3.289 -0.0698  0.8628 -1.5159
11169SOL    HW234342   1.512   6.925   3.188 -2.8240 -0.6355  1.7379
11170SOL     OW34343   7.531   2.646   2.498  0.3719 -0.3396  0.1862
11170SOL    HW134344   7.530   2.551   2.490  0.2336 -0.3373  0.1710
11170SOL    HW234345   7.586   2.676   2.426  1.8478 -0.5008  1.2013
11171SOL     OW34346   7.629   6.411   3.934  0.0738  0.0144  0.1028
11171SOL    HW134347   7.629   6.507   3.932 -1.2084  0.0316 -0.0035
11171SOL    HW234348   7.704   6.388   3.988 -1.2266  1.1689  2.5321
11172SOL     OW34349   0.016   3.605   0.734 -0.0838  0.1712  0.0085
11172SOL    HW134350   0.010   3.578   0.826  2.5761  2.1719  0.8984
11172SOL    HW234351  -0.002   3.699   0.735  1.8918  0.6240 -1.1467
11173SOL     OW34352   1.741   0.568   4.610  0.0609 -0.5249 -0.3143
11173SOL    HW134353   1.808   0.506   4.580  2.1935  0.8660  1.2360
11173SOL    HW234354   1.780   0.609   4.687 -2.6779  0.3244  0.7301
11174SOL     OW34355   0.887   6.565   7.554  0.1792 -0.6468  0.0977
11174SOL    HW134356   0.931   6.632   7.503  0.5910 -0.5264  0.6097
11174SOL    HW234357   0.800   6.602   7.573  0.5460 -0.0809  0.7252
11175SOL     OW34358   7.041   4.804   6.158  0.2768 -0.1965  0.3025
11175SOL    HW134359   7.006   4.761   6.080 -0.9409  0.6804  0.3294
11175SOL    HW234360   7.013   4.896   6.149  0.0149 -0.1024  1.8069
11176SOL     OW34361   7.848   1.618   2.031 -0.6592  0.3797  0.1269
11176SOL    HW134362   7.911   1.548   2.014 -1.0361  0.1805 -0.4731
11176SOL    HW234363   7.778   1.576   2.081 -2.7681 -0.6812 -3.3581
11177SOL     OW34364   4.186   1.395   7.748  0.3158  0.4757  0.4915
11177SOL    HW134365   4.194   1.337   7.823 -1.6345 -3.7790 -2.1794
11177SOL    HW234366   4.091   1.402   7.734  0.5736  2.7130 -0.5133
11178SOL     OW34367   2.734   2.390   5.524  0.2357 -0.8089 -0.0614
11178SOL    HW134368   2.801   2.328   5.554  0.7119 -0.9807 -1.4016
11178SOL    HW234369   2.752   2.401   5.431 -1.1980 -0.3338 -0.3094
11179SOL     OW34370   5.345   3.612   4.087  0.9451  0.3961  0.0937
11179SOL    HW134371   5.254   3.621   4.058  0.9979  1.2006  0.1575
11179SOL    HW234372   5.338   3.589   4.179  0.7991 -0.3110 -0.0919
11180SOL     OW34373   1.555   0.923   0.375  0.0362 -0.3524  0.1333
11180SOL    HW134374   1.539   0.850   0.435 -0.1520  1.6468  2.7468
11180SOL    HW234375   1.485   0.917   0.311 -1.1892 -1.3303  1.4770
11181SOL     OW34376   1.568   4.133   7.624 -0.6546 -0.2530  0.0230
11181SOL    HW134377   1.501   4.192   7.588 -1.5401 -1.2270  0.0174
11181SOL    HW234378   1.590   4.076   7.550 -0.7802 -0.7740  0.3851
11182SOL     OW34379   5.661   2.178   2.211  0.3971 -0.0545  0.0497
11182SOL    HW134380   5.608   2.201   2.288  1.5218 -1.7875  1.4104
11182SOL    HW234381   5.694   2.090   2.230  0.6422 -0.5878 -2.4863
11183SOL     OW34382   2.696   2.325   6.841 -0.1005 -0.3539 -0.1799
11183SOL    HW134383   2.757   2.254   6.863 -1.3189 -1.5112 -0.4080
11183SOL    HW234384   2.683   2.317   6.746 -0.5231 -0.0643 -0.1507
11184SOL     OW34385   0.364   1.879   1.260  0.0699  0.5940 -0.5221
11184SOL    HW134386   0.344   1.887   1.167  2.5823 -1.2420 -1.3413
11184SOL    HW234387   0.310   1.805   1.290  1.9780 -1.3350 -1.5644
11185SOL     OW34388   2.543   7.668   2.429 -0.2669  0.5879  0.2608
11185SOL    HW134389   2.520   7.681   2.521  0.6894  0.7996  0.4815
11185SOL    HW234390   2.637   7.649   2.430 -0.4845 -0.7107 -0.5532
11186SOL     OW34391   7.531   6.329   7.757 -0.2723 -0.6742 -0.3678
11186SOL    HW134392   7.588   6.315   7.832 -1.8825 -1.0016  0.8346
11186SOL    HW234393   7.483   6.246   7.747  0.4185 -0.8944 -2.2218
11187SOL     OW34394   1.289   2.239   6.341  0.3320  0.0688  0.1081
11187SOL    HW134395   1.278   2.318   6.288 -1.1394 -0.1996 -0.0363
11187SOL    HW234396   1.267   2.167   6.282  4.1561 -0.7784 -0.5648
11188SOL     OW34397   4.333   1.551   7.922  0.1108 -0.2838  1.1225
11188SOL    HW134398   4.265   1.601   7.967  0.0518  0.1996  0.5033
11188SOL    HW234399   4.289   1.511   7.847  0.9437  1.9290 -0.6631
11189SOL     OW34400   3.833   3.917   1.238 -0.6173 -0.0466  0.0328
11189SOL    HW134401   3.822   3.961   1.154  0.6614 -0.9168 -0.6244
11189SOL    HW234402   3.785   3.834   1.228 -0.4066 -0.1812  0.1412
11190SOL     OW34403   4.704   1.561   1.022 -0.0994  0.0251 -0.1537
11190SOL    HW134404   4.793   1.529   1.030 -0.4241 -0.6911  0.6927
11190SOL    HW234405   4.675   1.574   1.112 -0.1389  2.2983 -0.4423
11191SOL     OW34406   6.320   6.650   4.894  0.1082  0.3488 -0.1336
11191SOL    HW134407   6.273   6.678   4.815  0.7505 -0.1286 -0.6926
11191SOL    HW234408   6.321   6.555   4.888  1.3754  0.3585 -0.2680
11192SOL     OW34409   4.968   1.491   2.994  0.1075 -0.2959  0.2406
11192SOL    HW134410   5.018   1.536   2.926  1.8556 -1.9584  0.3427
11192SOL    HW234411   5.019   1.505   3.074 -1.9072  1.6118  1.2783
11193SOL     OW34412   0.608   6.254   1.410  0.0637 -0.2489 -0.4798
11193SOL    HW134413   0.545   6.269   1.480 -0.2355 -0.0985 -0.7779
11193SOL    HW234414   0.683   6.309   1.433  0.3132 -0.8346  0.1558
11194SOL     OW34415   2.646   5.315   4.224  0.2036  0.3637  0.1948
11194SOL    HW134416   2.575   5.329   4.162  0.4432 -0.8167 -0.3791
11194SOL    HW234417   2.604   5.275   4.300  0.0788  0.7532  0.3299
11195SOL     OW34418   6.862   0.585   1.827  0.1529 -0.0979  0.1952
11195SOL    HW134419   6.785   0.531   1.843 -0.9817  1.2229 -0.6053
11195SOL    HW234420   6.843   0.667   1.872 -0.0302  1.1275 -1.9896
11196SOL     OW34421   4.303   6.311   3.648  0.0011  0.6443 -0.2159
11196SOL    HW134422   4.290   6.385   3.589 -1.1937  0.1050 -0.6662
11196SOL    HW234423   4.379   6.265   3.614 -0.5735  0.4346 -1.2692
11197SOL     OW34424   1.176   5.743   1.736 -0.2234  0.2736 -0.4274
11197SOL    HW134425   1.116   5.673   1.761  1.8731 -1.1682  0.8751
11197SOL    HW234426   1.218   5.712   1.656  2.0551 -0.9596  1.1260
11198SOL     OW34427   4.601   2.932   5.508 -0.3333  0.2142  0.2175
11198SOL    HW134428   4.597   2.840   5.480 -1.8456 -0.1365  1.4593
11198SOL    HW234429   4.599   2.928   5.604 -2.2874  1.5683  0.2962
11199SOL     OW34430   1.366   4.363   3.479 -0.3758  0.2567  0.3803
11199SOL    HW134431   1.383   4.328   3.566 -0.2933 -0.3937  0.1039
11199SOL    HW234432   1.452   4.393   3.448 -0.2365 -0.3757  0.1467
11200SOL     OW34433   6.992   4.332   2.151 -0.6297 -0.0538  0.0898
11200SOL    HW134434   6.958   4.398   2.092  2.3585 -1.4230 -3.5217
11200SOL    HW234435   7.034   4.381   2.222  1.0845  2.0026 -2.2190
11201SOL     OW34436   5.535   4.536   4.602  0.0134 -0.1272  0.8823
11201SOL    HW134437   5.461   4.484   4.571  1.9093 -2.5276  0.1214
11201SOL    HW234438   5.525   4.620   4.557  0.2530 -1.9863 -3.0843
11202SOL     OW34439   2.369   4.027   0.994 -0.5600 -0.8230 -0.0428
11202SOL    HW134440   2.420   3.952   1.025  0.6261 -0.9458 -2.1113
11202SOL    HW234441   2.297   3.988   0.944 -1.5319 -0.6036  1.1531
11203SOL     OW34442   1.697   4.255   2.733  0.0097 -0.5103  0.0195
11203SOL    HW134443   1.693   4.246   2.829 -1.9434 -0.0833  0.0171
11203SOL    HW234444   1.630   4.321   2.713  0.1789 -0.8248 -1.6787
11204SOL     OW34445   0.771   1.577   7.802  0.5554 -0.3644 -0.2832
11204SOL    HW134446   0.759   1.664   7.840 -2.0579 -0.9791  0.5331
11204SOL    HW234447   0.726   1.581   7.718  1.4284 -0.6197 -0.7741
11205SOL     OW34448   7.621   5.986   7.033 -0.3214  0.0219 -0.5965
11205SOL    HW134449   7.712   6.013   7.019 -1.0656  2.6128 -1.0607
11205SOL    HW234450   7.571   6.039   6.970 -2.3475  0.3934  1.2086
11206SOL     OW34451   7.548   7.929   0.751 -0.6635  0.0037 -0.3705
11206SOL    HW134452   7.543   7.957   0.659 -2.6986  0.8125 -0.0656
11206SOL    HW234453   7.470   7.967   0.791  0.7680  0.6392  1.9774
11207SOL     OW34454   4.371   7.287   1.452  0.3418  0.6899  0.7653
11207SOL    HW134455   4.424   7.224   1.403  0.3854  2.2858 -1.4124
11207SOL    HW234456   4.357   7.246   1.537  4.3813 -0.2115  1.2116
11208SOL     OW34457   7.610   1.787   4.285 -0.3520  0.1845 -0.3324
11208SOL    HW134458   7.621   1.858   4.348 -0.7033  0.5362 -0.6632
11208SOL    HW234459   7.517   1.788   4.263 -0.3277 -0.2768 -0.4592
11209SOL     OW34460   1.789   6.898   3.847 -0.0998 -0.2213  0.3639
11209SOL    HW134461   1.869   6.892   3.899  1.1657  1.5358 -1.2449
11209SOL    HW234462   1.768   6.992   3.846 -1.0125 -0.4125 -0.8982
11210SOL     OW34463   4.978   3.133   6.695 -0.1091 -0.0715  0.3656
11210SOL    HW134464   5.025   3.177   6.625 -2.6807  0.4927 -1.1486
11210SOL    HW234465   4.992   3.188   6.772 -0.6361  1.6971 -0.7379
11211SOL     OW34466   1.119   6.877   6.215  0.1283 -0.7907 -0.2854
11211SOL    HW134467   1.029   6.848   6.201 -0.5584 -1.1359  3.7179
11211SOL    HW234468   1.110   6.969   6.241  0.8935 -0.9048  0.4140
11212SOL     OW34469   7.029   4.733   2.322 -0.3594 -0.0986  0.0022
11212SOL    HW134470   7.096   4.713   2.256 -0.2930 -0.8631  0.2898
11212SOL    HW234471   6.960   4.669   2.307  0.0104 -0.7990  1.1702
11213SOL     OW34472   3.412   3.453   0.199 -0.1798  0.3188  0.8421
11213SOL    HW134473   3.328   3.416   0.228  0.3697 -0.6573  1.1996
11213SOL    HW234474   3.478   3.392   0.230  0.7575  1.5522  1.3692
11214SOL     OW34475   2.483   6.548   6.411  0.1249 -0.2787 -0.6141
11214SOL    HW134476   2.393   6.560   6.382  0.7158  1.5938 -1.8420
11214SOL    HW234477   2.535   6.605   6.355  2.0700 -1.0892  0.2402
11215SOL     OW34478   7.701   2.209   7.117 -0.3418 -0.1022 -0.3406
11215SOL    HW134479   7.782   2.227   7.164 -1.8395 -0.3097  2.5056
11215SOL    HW234480   7.695   2.280   7.052  2.1125 -0.1719 -0.7413
11216SOL     OW34481   7.823   7.540   3.993  0.5500 -0.1067  0.2747
11216SOL    HW134482   7.917   7.545   3.973  0.5744 -1.4239 -0.0263
11216SOL    HW234483   7.819   7.544   4.089  0.9159 -0.1057  0.2919
11217SOL     OW34484   5.348   1.726   7.466  0.0781 -0.1751 -0.4565
11217SOL    HW134485   5.325   1.812   7.501  1.8309  0.2155 -0.1552
11217SOL    HW234486   5.369   1.743   7.374  1.1005 -0.1353 -0.2266
11218SOL     OW34487   1.048   5.417   1.290 -0.3581 -0.2675 -0.3387
11218SOL    HW134488   0.987   5.484   1.257 -0.9759 -0.7390 -0.1652
11218SOL    HW234489   1.048   5.350   1.222 -2.2858 -1.6496  0.9418
11219SOL     OW34490   3.427   5.686   1.754  0.3333  0.3967  0.2364
11219SOL    HW134491   3.469   5.616   1.703  0.8276  0.4029  0.6246
11219SOL    HW234492   3.340   5.695   1.715  0.5714  0.1496 -0.3706
11220SOL     OW34493   0.021   2.725   5.010 -0.0386 -0.4056 -0.2805
11220SOL    HW134494  -0.060   2.723   4.958  0.2831 -0.4178 -0.7789
11220SOL    HW234495   0.091   2.731   4.946  0.3039  0.8539  0.1871
11221SOL     OW34496   7.907   2.705   4.673  0.0204 -0.1864 -0.0144
11221SOL    HW134497   7.947   2.642   4.614 -0.9632 -0.3073 -0.5824
11221SOL    HW234498   7.948   2.789   4.651 -1.0730 -0.0251 -1.6597
11222SOL     OW34499   5.719   2.004   0.791  0.1192 -0.5612 -0.0974
11222SOL    HW134500   5.789   1.979   0.852 -0.1799 -0.1446  0.4329
11222SOL    HW234501   5.657   2.052   0.846  0.0496  0.1936 -0.8207
11223SOL     OW34502   2.683   0.332   7.739  0.2262 -0.2789 -0.1643
11223SOL    HW134503   2.593   0.308   7.716 -0.1039 -0.6196  1.3667
11223SOL    HW234504   2.704   0.403   7.679  0.0260 -2.0892 -2.5732
11224SOL     OW34505   6.661   1.803   7.924 -0.9694  0.8347  0.2562
11224SOL    HW134506   6.707   1.887   7.925  0.6214 -0.0021  1.3226
11224SOL    HW234507   6.657   1.777   8.016 -1.2653 -0.3425 -0.0724
11225SOL     OW34508   3.419   2.018   3.727 -0.2913 -0.0090 -0.0049
11225SOL    HW134509   3.404   2.022   3.822 -2.1922 -0.5803 -0.2285
11225SOL    HW234510   3.433   2.109   3.700  2.5146 -0.0299  1.0848
11226SOL     OW34511   0.036   2.457   5.554  0.3783  0.7301 -0.1451
11226SOL    HW134512   0.113   2.445   5.498  0.3922 -1.0459  0.1987
11226SOL    HW234513   0.005   2.545   5.533  0.9608  0.4935 -2.2296
11227SOL     OW34514   6.134   1.167   7.443  0.1959  0.2528  0.1373
11227SOL    HW134515   6.063   1.103   7.440 -0.3422  0.8804 -1.3494
11227SOL    HW234516   6.202   1.130   7.387  0.5876  0.1812  0.6567
11228SOL     OW34517   2.806   3.296   2.573 -0.0321  0.1690  0.4518
11228SOL    HW134518   2.869   3.225   2.568  1.4246  1.4882 -1.1810
11228SOL    HW234519   2.853   3.367   2.617 -0.1812  1.3072 -1.1371
11229SOL     OW34520   4.468   0.189   5.515 -0.0049  0.4640  0.3319
11229SOL    HW134521   4.379   0.220   5.497 -0.2577 -2.0958 -4.4857
11229SOL    HW234522   4.457   0.096   5.536  1.4689  0.7567  2.8998
11230SOL     OW34523   4.671   7.934   3.837 -0.1089  0.0914 -0.5684
11230SOL    HW134524   4.626   7.860   3.878 -0.8211  0.5601 -0.4857
11230SOL    HW234525   4.759   7.933   3.876  0.2030 -1.2423 -1.2215
11231SOL     OW34526   3.893   7.481   1.380  0.2872 -0.0546 -0.6855
11231SOL    HW134527   3.953   7.408   1.399  0.3821  0.0633 -0.5314
11231SOL    HW234528   3.890   7.531   1.462  0.1192  0.0415 -0.7509
11232SOL     OW34529   2.290   1.122   5.785  0.6806  0.0053  0.5741
11232SOL    HW134530   2.230   1.048   5.772  1.1272 -0.1635 -0.7074
11232SOL    HW234531   2.358   1.109   5.719  2.4862 -0.1297  2.4026
11233SOL     OW34532   0.954   1.377   0.368 -0.6372  0.4501  0.2874
11233SOL    HW134533   0.883   1.332   0.414  0.3019 -1.5960 -0.1388
11233SOL    HW234534   1.024   1.311   0.362 -0.2079  1.0443 -2.8053
11234SOL     OW34535   1.867   2.912   5.060  0.3335  0.1529  0.3999
11234SOL    HW134536   1.915   2.917   5.143 -1.3570  0.1957  1.4320
11234SOL    HW234537   1.935   2.908   4.993  1.7598 -0.6393  1.8226
11235SOL     OW34538   0.403   3.310   5.526 -0.1207  0.3310  0.1874
11235SOL    HW134539   0.408   3.214   5.534  0.6077  0.4827  2.0217
11235SOL    HW234540   0.494   3.337   5.512  0.0139  0.9004  2.0043
11236SOL     OW34541   2.257   6.839   5.181  0.1827 -0.5685 -0.1734
11236SOL    HW134542   2.330   6.895   5.207 -1.8830  0.9082  3.1787
11236SOL    HW234543   2.273   6.757   5.227 -0.1673 -0.2712  0.5000
11237SOL     OW34544   4.737   5.267   6.756  0.6162 -0.3674 -0.1240
11237SOL    HW134545   4.786   5.258   6.674  0.3593  0.3582 -0.3685
11237SOL    HW234546   4.742   5.180   6.797  1.9990 -0.3433 -0.1904
11238SOL     OW34547   4.990   7.012   1.420  0.1575  0.1274 -0.1058
11238SOL    HW134548   4.919   6.949   1.433  0.6385 -0.6326 -1.0539
11238SOL    HW234549   5.020   6.997   1.330  1.5489  0.3930  0.2873
11239SOL     OW34550   2.594   5.084   1.164 -0.0737  0.0656 -0.3759
11239SOL    HW134551   2.637   5.124   1.240  0.9165  0.7268 -1.2465
11239SOL    HW234552   2.667   5.055   1.108 -0.7189  1.4715 -2.0468
11240SOL     OW34553   3.219   0.290   5.568 -0.9341  0.8825 -0.4272
11240SOL    HW134554   3.289   0.226   5.581  1.9266  3.3488 -2.3868
11240SOL    HW234555   3.165   0.282   5.647 -1.3065 -4.2927 -0.8145
11241SOL     OW34556   2.621   2.361   5.042  0.2639  0.3642 -0.0237
11241SOL    HW134557   2.571   2.367   4.960  0.2804  1.2244  0.0287
11241SOL    HW234558   2.555   2.344   5.109  0.3970 -2.1348 -0.4007
11242SOL     OW34559   5.122   6.832   6.934  0.0492  0.0053  0.2987
11242SOL    HW134560   5.182   6.903   6.911 -0.1448 -0.0187 -0.2846
11242SOL    HW234561   5.035   6.869   6.921 -0.0521 -0.4096 -0.2038
11243SOL     OW34562   5.880   3.230   5.359  0.1758  0.0105 -0.2261
11243SOL    HW134563   5.955   3.226   5.299  2.1636 -0.6903  2.1308
11243SOL    HW234564   5.865   3.139   5.384  1.4598  0.4504  2.5796
11244SOL     OW34565   2.330   0.587   7.259  0.3489  0.1185 -0.1959
11244SOL    HW134566   2.355   0.645   7.331  4.3092  0.7754 -1.8392
11244SOL    HW234567   2.380   0.507   7.274  0.8773  0.0908 -1.9257
11245SOL     OW34568   3.615   6.690   7.136  0.3703  0.3883 -0.5063
11245SOL    HW134569   3.587   6.772   7.097 -1.4436  0.3384  0.5773
11245SOL    HW234570   3.648   6.715   7.223  2.6188  0.2791 -1.2627
11246SOL     OW34571   7.617   5.180   3.607  0.1753  0.0724  0.7651
11246SOL    HW134572   7.668   5.136   3.540  2.4214  3.7894 -0.2490
11246SOL    HW234573   7.527   5.178   3.574  0.9539  0.2600 -1.5297
11247SOL     OW34574   5.145   7.758   3.282  0.2491 -0.3217 -0.4762
11247SOL    HW134575   5.184   7.824   3.339 -3.3222  0.8555  0.9450
11247SOL    HW234576   5.129   7.805   3.200 -1.6131  0.5085  0.2880
11248SOL     OW34577   0.951   6.145   3.114 -0.3195 -0.2934 -0.1888
11248SOL    HW134578   0.930   6.236   3.135  0.6534  0.2499 -1.4401
11248SOL    HW234579   0.895   6.093   3.172 -1.2971  1.0934  0.1439
11249SOL     OW34580   4.562   5.997   6.835  0.0420 -0.6114 -0.4863
11249SOL    HW134581   4.505   5.984   6.911 -0.3859 -2.2287 -1.0571
11249SOL    HW234582   4.646   6.024   6.874  0.2032 -2.5807  0.7091
11250SOL     OW34583   6.322   4.094   2.901 -0.1811 -0.2765 -0.3250
11250SOL    HW134584   6.294   4.184   2.916  0.1333 -0.1325 -0.5869
11250SOL    HW234585   6.241   4.043   2.899 -0.4491  0.1659 -1.3217
11251SOL     OW34586   0.800   4.107   3.167  0.1312  0.3439 -0.4582
11251SOL    HW134587   0.863   4.067   3.106  0.5070  0.9358 -0.4619
11251SOL    HW234588   0.846   4.109   3.251 -0.4766 -0.7081 -0.0735
11252SOL     OW34589   6.116   4.388   6.199  0.0943 -0.0497  0.1234
11252SOL    HW134590   6.053   4.440   6.249 -1.9445 -0.9683 -1.3449
11252SOL    HW234591   6.105   4.299   6.231  0.3965 -0.2797 -0.3927
11253SOL     OW34592   1.616   0.479   5.495  0.4398  0.2027  0.2773
11253SOL    HW134593   1.591   0.433   5.575  1.9162 -1.6619 -0.2615
11253SOL    HW234594   1.642   0.566   5.524 -0.1711 -0.0505  1.6480
11254SOL     OW34595   2.931   6.019   2.006 -0.5622  0.5504  0.1188
11254SOL    HW134596   2.928   6.040   1.913 -0.9128  1.8037  0.3965
11254SOL    HW234597   3.014   6.055   2.036 -0.8793  0.9787  0.4838
11255SOL     OW34598   7.675   5.593   0.188  0.0206 -0.1795  0.3647
11255SOL    HW134599   7.630   5.677   0.203 -1.0803 -0.8826  1.1786
11255SOL    HW234600   7.614   5.543   0.135 -0.0199 -1.0248  1.1893
11256SOL     OW34601   0.029   3.110   4.901  0.5552 -0.8997  0.0762
11256SOL    HW134602  -0.063   3.084   4.904  0.5640 -1.0294 -0.6301
11256SOL    HW234603   0.052   3.128   4.992 -0.1858 -0.8048  0.2485
11257SOL     OW34604   5.585   6.132   7.802 -0.1533 -0.1430 -0.1782
11257SOL    HW134605   5.497   6.094   7.801 -0.8564  1.3898 -0.1491
11257SOL    HW234606   5.576   6.210   7.857  0.8408  0.8731 -1.3979
11258SOL     OW34607   2.942   2.547   0.857 -0.0937 -0.4116 -0.0426
11258SOL    HW134608   2.906   2.459   0.854  1.0188 -0.8602 -1.1364
11258SOL    HW234609   2.883   2.599   0.802 -0.1036 -0.7258 -0.3309
11259SOL     OW34610   0.120   2.706   0.627  0.2372  0.1456 -0.4394
11259SOL    HW134611   0.070   2.781   0.593  0.2029  0.8024  0.9703
11259SOL    HW234612   0.178   2.744   0.693 -1.0382 -1.2710  1.6066
11260SOL     OW34613   4.707   1.395   0.149 -0.1407  0.0937  0.7933
11260SOL    HW134614   4.671   1.437   0.071 -1.2628  0.2426  1.3654
11260SOL    HW234615   4.796   1.372   0.125 -0.8188 -0.9103 -0.9279
11261SOL     OW34616   3.320   6.003   4.518 -0.2706  0.2529  0.1722
11261SOL    HW134617   3.408   5.969   4.504  0.5538  2.2771  0.0035
11261SOL    HW234618   3.307   6.000   4.613  1.3870  2.9615  0.5892
11262SOL     OW34619   6.001   4.836   7.878 -0.3864 -0.2322  0.1605
11262SOL    HW134620   5.950   4.916   7.881 -1.4196 -0.8753  0.0268
11262SOL    HW234621   6.004   4.812   7.786  0.0686 -0.2602  0.1796
11263SOL     OW34622   7.438   2.064   5.495 -0.1121  0.2690  0.3779
11263SOL    HW134623   7.401   2.150   5.512 -1.4752 -0.2543  0.1959
11263SOL    HW234624   7.406   2.041   5.407  1.4407  0.1826 -0.1955
11264SOL     OW34625   7.130   1.827   6.072 -0.1720  0.7044 -0.1386
11264SOL    HW134626   7.151   1.836   6.164  1.0988  1.2148 -0.4614
11264SOL    HW234627   7.082   1.907   6.050  0.2601  0.9765 -0.1053
11265SOL     OW34628   5.189   7.662   5.167  0.4142 -0.1574  0.4002
11265SOL    HW134629   5.129   7.612   5.112 -1.7195  2.3388  0.2391
11265SOL    HW234630   5.166   7.754   5.150  2.2260  0.8285  2.6874
11266SOL     OW34631   6.461   3.724   4.670 -0.7221 -0.4767  0.0717
11266SOL    HW134632   6.433   3.728   4.762  1.1452  1.1120  0.6468
11266SOL    HW234633   6.524   3.796   4.661 -0.1358 -1.1876 -2.2202
11267SOL     OW34634   2.417   2.303   6.268  0.2221  0.9436 -0.1700
11267SOL    HW134635   2.506   2.272   6.283  0.3136  1.5283  0.5900
11267SOL    HW234636   2.420   2.345   6.182  0.9013  1.7105  0.2139
11268SOL     OW34637   3.692   7.249   5.268  0.8043 -0.0239  0.1392
11268SOL    HW134638   3.608   7.230   5.225  1.7048 -0.8320 -1.3580
11268SOL    HW234639   3.723   7.328   5.225  0.7314  0.3916  0.8383
11269SOL     OW34640   4.376   0.618   6.278 -0.1792  0.7335  0.0083
11269SOL    HW134641   4.443   0.588   6.218 -0.6059  1.7927 -1.0397
11269SOL    HW234642   4.418   0.618   6.364  0.5762 -0.3659 -0.3540
11270SOL     OW34643   7.033   6.788   4.623  0.0203  0.4665 -0.5321
11270SOL    HW134644   7.116   6.741   4.633  0.7626  2.1812  3.0498
11270SOL    HW234645   6.965   6.721   4.635  0.9573 -0.4186 -0.0627
11271SOL     OW34646   0.999   1.280   7.173 -0.4630  0.0198 -0.2873
11271SOL    HW134647   1.056   1.230   7.114 -1.0550  0.5461 -1.3191
11271SOL    HW234648   0.972   1.215   7.238  0.4696 -0.4916 -0.3780
11272SOL     OW34649   0.101   5.897   6.005  0.1146  0.0416 -0.3253
11272SOL    HW134650   0.123   5.888   5.912  2.4363 -0.8105  0.2478
11272SOL    HW234651   0.005   5.897   6.006  0.0145 -0.3344 -2.6830
11273SOL     OW34652   6.453   4.760   6.556  0.1730  0.5102  0.1321
11273SOL    HW134653   6.401   4.839   6.541  1.2083  1.2119  0.0996
11273SOL    HW234654   6.523   4.788   6.616 -0.2588 -0.7384  1.2716
11274SOL     OW34655   1.452   1.961   3.903 -0.2756  0.0248  0.0332
11274SOL    HW134656   1.442   1.917   3.819  1.6700  0.4279 -0.4532
11274SOL    HW234657   1.430   2.052   3.886  0.7376  0.2361 -0.2261
11275SOL     OW34658   1.661   2.025   4.357  0.1529  0.3437 -0.8679
11275SOL    HW134659   1.614   1.945   4.377  0.6177  0.3975  0.5253
11275SOL    HW234660   1.688   2.015   4.265 -1.9232  0.0246 -1.5002
11276SOL     OW34661   5.445   7.641   5.161  0.6130 -1.0335  0.4950
11276SOL    HW134662   5.351   7.638   5.144  0.5799 -2.3203  0.8507
11276SOL    HW234663   5.457   7.721   5.212 -0.5839 -1.8394  2.1172
11277SOL     OW34664   3.716   7.899   3.870 -0.2069 -0.1748 -0.2000
11277SOL    HW134665   3.708   7.861   3.782  1.5082 -0.9991 -0.0450
11277SOL    HW234666   3.680   7.832   3.928 -2.0231  0.6692 -0.2755
11278SOL     OW34667   6.460   0.593   7.636 -0.1324  0.2974 -0.4944
11278SOL    HW134668   6.517   0.516   7.638  0.2839  0.6119  1.6279
11278SOL    HW234669   6.511   0.662   7.677 -1.6788  0.8501  0.5782
11279SOL     OW34670   4.927   0.026   3.991  0.1154  0.2999  0.5345
11279SOL    HW134671   4.985  -0.048   3.974  1.5729  1.4224  0.4690
11279SOL    HW234672   4.967   0.100   3.945 -0.1801  1.5925  2.2454
11280SOL     OW34673   5.265   1.305   2.547 -0.5316 -1.0216  0.1620
11280SOL    HW134674   5.273   1.278   2.455  1.1805 -1.2582  0.3343
11280SOL    HW234675   5.331   1.253   2.593  0.6439  1.0820  1.0288
11281SOL     OW34676   0.842   2.608   1.097  0.2039  0.1511  0.0924
11281SOL    HW134677   0.843   2.519   1.062 -0.6773 -0.2753  1.1032
11281SOL    HW234678   0.808   2.599   1.186  1.2720  1.3568  0.6592
11282SOL     OW34679   6.353   5.472   1.597  0.5302  0.3094 -0.3181
11282SOL    HW134680   6.425   5.488   1.536  0.0334  1.5471 -0.6132
11282SOL    HW234681   6.288   5.424   1.545  0.7875 -0.0722 -0.2910
11283SOL     OW34682   5.732   6.312   0.480  0.5190  0.0163  0.5452
11283SOL    HW134683   5.776   6.315   0.565 -1.3874  1.5472  1.5402
11283SOL    HW234684   5.659   6.251   0.493  0.8562 -0.5928 -0.3468
11284SOL     OW34685   6.582   0.392   1.240  0.6135  0.2222 -0.2546
11284SOL    HW134686   6.558   0.358   1.326  2.4191 -1.9591 -0.5483
11284SOL    HW234687   6.627   0.320   1.197  0.6298  1.5836 -2.6892
11285SOL     OW34688   2.438   7.170   7.938  0.0246  0.6099  0.2739
11285SOL    HW134689   2.441   7.171   7.843  1.6907  1.7045  0.2910
11285SOL    HW234690   2.509   7.110   7.963  0.2449  1.1013  0.8298
11286SOL     OW34691   2.426   5.500   2.382 -0.0937  0.1000  0.2653
11286SOL    HW134692   2.376   5.469   2.458  0.0753 -0.2427  0.2407
11286SOL    HW234693   2.402   5.439   2.312  0.0089  0.2128  0.1336
11287SOL     OW34694   4.756   7.097   2.228 -0.3747  0.9253  0.5436
11287SOL    HW134695   4.789   7.181   2.261  0.1804 -0.2318  3.2154
11287SOL    HW234696   4.675   7.082   2.277 -0.1145 -0.3836  0.6030
11288SOL     OW34697   1.121   4.821   0.900 -0.0761 -0.2104 -0.4889
11288SOL    HW134698   1.077   4.906   0.889 -0.9639 -0.7548 -1.2488
11288SOL    HW234699   1.050   4.760   0.917  0.6068 -0.7285  0.6471
11289SOL     OW34700   3.573   6.738   4.413  0.1770 -0.0122  0.1197
11289SOL    HW134701   3.599   6.671   4.476  1.2487  1.3260  1.1596
11289SOL    HW234702   3.478   6.732   4.409  0.1804 -0.8619  1.0054
11290SOL     OW34703   4.447   5.428   2.256 -0.4902 -0.3305  0.3758
11290SOL    HW134704   4.536   5.409   2.224  0.0729 -0.0009  1.6764
11290SOL    HW234705   4.391   5.411   2.181  0.9186  2.1023 -1.4017
11291SOL     OW34706   4.126   4.442   2.409 -0.3065  0.1482  0.0147
11291SOL    HW134707   4.116   4.410   2.319 -2.4751  1.7913 -0.4217
11291SOL    HW234708   4.062   4.391   2.459  0.2713 -0.1418  0.4702
11292SOL     OW34709   7.282   4.945   6.302 -0.2718  0.6602 -0.2900
11292SOL    HW134710   7.359   4.975   6.350 -1.4831  1.5514  1.2072
11292SOL    HW234711   7.229   5.023   6.291 -1.8892 -0.2699  0.5374
11293SOL     OW34712   5.279   5.820   1.959 -0.7901  0.3215  0.6860
11293SOL    HW134713   5.191   5.850   1.982 -1.2012 -0.9620  0.8516
11293SOL    HW234714   5.268   5.730   1.931  0.1937  0.7902 -1.3777
11294SOL     OW34715   2.890   3.096   3.987 -0.3294 -0.0162  0.0445
11294SOL    HW134716   2.821   3.035   3.962 -1.7444  2.2190 -2.0452
11294SOL    HW234717   2.863   3.179   3.947  3.0320  1.2436  0.0896
11295SOL     OW34718   0.490   0.718   1.715 -0.3892 -0.2940  0.0585
11295SOL    HW134719   0.568   0.665   1.701  0.5675  0.9246  0.6329
11295SOL    HW234720   0.468   0.752   1.629  0.7668  0.7600  0.1523
11296SOL     OW34721   2.928   6.084   1.428 -0.4098  0.2040 -0.4747
11296SOL    HW134722   2.877   6.092   1.347 -0.8179  0.0530 -0.2322
11296SOL    HW234723   2.963   6.172   1.442 -0.6623  0.3277 -0.6034
11297SOL     OW34724   1.509   1.256   5.075  0.0839  0.0704 -0.3982
11297SOL    HW134725   1.571   1.193   5.037  1.2831  0.2919  1.0869
11297SOL    HW234726   1.563   1.333   5.095 -1.1027  1.0855 -0.9618
11298SOL     OW34727   4.060   4.596   7.699 -0.0761  0.4144 -0.5875
11298SOL    HW134728   4.077   4.502   7.706 -0.3069  0.4791  1.3455
11298SOL    HW234729   4.051   4.612   7.605 -0.6578 -1.6043 -0.9145
11299SOL     OW34730   3.144   5.082   1.497 -0.0426  0.0499 -0.0244
11299SOL    HW134731   3.176   5.003   1.455 -1.2299 -0.2786 -0.3490
11299SOL    HW234732   3.137   5.146   1.426 -2.3602 -0.6015 -0.4636
11300SOL     OW34733   5.238   3.820   0.549  0.3775  0.4170 -0.3078
11300SOL    HW134734   5.181   3.793   0.621 -1.2240  1.0663 -1.2878
11300SOL    HW234735   5.242   3.743   0.492 -1.3764  1.0647 -1.3589
11301SOL     OW34736   2.878   5.126   1.521  0.1829  0.0700  0.1254
11301SOL    HW134737   2.967   5.109   1.491  1.2061  1.9970  1.8378
11301SOL    HW234738   2.841   5.187   1.456  0.3876 -0.1134 -0.1644
11302SOL     OW34739   7.187   7.326   3.366 -0.1672  0.4909  0.1083
11302SOL    HW134740   7.100   7.357   3.342 -1.2092 -0.9940  1.7285
11302SOL    HW234741   7.190   7.236   3.333  1.0750  0.7633 -0.6026
11303SOL     OW34742   6.561   4.277   4.341 -0.6643 -0.2298  0.3363
11303SOL    HW134743   6.527   4.330   4.268 -0.0698 -0.0465  0.1901
11303SOL    HW234744   6.586   4.194   4.299 -1.4659 -0.5859  0.5422
11304SOL     OW34745   4.539   1.067   6.672 -0.6067 -0.1511  0.0677
11304SOL    HW134746   4.634   1.079   6.674 -0.5063 -0.9679  0.2900
11304SOL    HW234747   4.508   1.110   6.752 -0.0284 -3.0648  2.0109
11305SOL     OW34748   1.915   2.077   0.460  0.8170  0.1758 -0.3359
11305SOL    HW134749   1.959   2.142   0.515  0.8111  0.3183 -0.4963
11305SOL    HW234750   1.885   2.010   0.521 -1.4226  1.5461  0.2136
11306SOL     OW34751   4.768   6.667   1.681 -0.0186 -0.0541 -0.3417
11306SOL    HW134752   4.784   6.762   1.679 -0.5880  0.0308 -1.4315
11306SOL    HW234753   4.731   6.651   1.768 -0.5724  0.8314 -0.4110
11307SOL     OW34754   3.839   1.235   6.837  0.0550 -0.4577 -0.4119
11307SOL    HW134755   3.828   1.309   6.898 -1.2252 -1.3681  0.5311
11307SOL    HW234756   3.923   1.197   6.860  0.5510  0.4646 -0.6517
11308SOL     OW34757   2.877   3.786   2.001 -0.5002 -0.7145 -0.3376
11308SOL    HW134758   2.863   3.745   2.086  0.3582 -0.1197  0.0955
11308SOL    HW234759   2.811   3.855   1.996  0.0370 -0.1431  0.2502
11309SOL     OW34760   6.042   1.804   4.187  0.0647 -0.1950 -0.0640
11309SOL    HW134761   5.976   1.873   4.183 -0.8151 -1.0498 -1.0053
11309SOL    HW234762   6.080   1.802   4.098 -0.1180 -1.1025 -0.1243
11310SOL     OW34763   0.590   2.301   4.615 -0.3557  0.3947  0.0264
11310SOL    HW134764   0.673   2.345   4.595 -2.1536  3.1725 -1.9425
11310SOL    HW234765   0.607   2.209   4.594  2.5498  0.6040  0.9366
11311SOL     OW34766   1.169   1.590   4.634 -0.2072 -0.0667  0.1989
11311SOL    HW134767   1.220   1.523   4.589  0.6946  1.4328 -1.1617
11311SOL    HW234768   1.156   1.556   4.722 -0.1363 -2.1735 -0.5535
11312SOL     OW34769   2.231   1.763   7.768  0.7642 -0.0104  0.0745
11312SOL    HW134770   2.232   1.776   7.862 -0.0798  1.2619 -0.0632
11312SOL    HW234771   2.310   1.808   7.737  0.7668  0.0268  0.1346
11313SOL     OW34772   3.304   5.679   7.590  0.4140 -0.2523 -0.7455
11313SOL    HW134773   3.245   5.744   7.629  2.6450  1.5020 -0.0496
11313SOL    HW234774   3.257   5.648   7.512 -1.4977  0.8630 -0.1126
11314SOL     OW34775   5.927   4.181   0.345 -0.5642 -0.5458  0.2300
11314SOL    HW134776   5.858   4.246   0.362 -0.3338 -0.6134  1.5246
11314SOL    HW234777   5.900   4.104   0.395  0.4297 -0.5801  0.7289
11315SOL     OW34778   6.878   7.451   1.605 -0.8553 -0.0670  0.1554
11315SOL    HW134779   6.857   7.467   1.513 -0.6120  1.1943  0.3002
11315SOL    HW234780   6.800   7.478   1.653  0.0464  2.0557  0.5020
11316SOL     OW34781   1.968   4.958   1.562  0.5014  0.4494  0.3001
11316SOL    HW134782   2.023   5.036   1.570  0.8799  0.2621 -0.4278
11316SOL    HW234783   1.880   4.988   1.585  0.2153  1.6214 -2.0763
11317SOL     OW34784   1.876   2.276   3.063  0.2953  0.5048 -0.3533
11317SOL    HW134785   1.799   2.308   3.110 -0.5495  1.3348 -2.2385
11317SOL    HW234786   1.841   2.218   2.996  1.5585 -1.4697  0.5813
11318SOL     OW34787   4.057   1.620   0.045 -0.4420  0.0379 -0.0562
11318SOL    HW134788   3.961   1.625   0.043 -0.4037  1.0453 -1.8949
11318SOL    HW234789   4.076   1.540   0.095 -2.2343 -0.3671  0.0541
11319SOL     OW34790   7.531   5.312   0.519 -0.2223  0.2540 -0.2354
11319SOL    HW134791   7.597   5.373   0.487 -1.0117  0.8238 -0.8036
11319SOL    HW234792   7.476   5.293   0.443  0.9020 -2.3909 -0.4771
11320SOL     OW34793   1.287   7.790   4.044  0.2311 -0.5091 -0.0838
11320SOL    HW134794   1.241   7.724   3.991  1.0097 -0.3118 -1.0275
11320SOL    HW234795   1.367   7.809   3.995 -0.0470  1.2521  0.1105
11321SOL     OW34796   7.501   6.921   0.221  0.4680 -0.2011  0.5217
11321SOL    HW134797   7.540   7.007   0.231  0.0832 -0.0119  0.4333
11321SOL    HW234798   7.468   6.899   0.309  0.0000  0.0273  0.4112
11322SOL     OW34799   4.288   3.329   2.644 -0.0431  0.3737 -0.5957
11322SOL    HW134800   4.307   3.302   2.554  1.2954 -1.3912  0.1440
11322SOL    HW234801   4.277   3.247   2.692  2.1272  1.1328  1.4026
11323SOL     OW34802   0.438   7.067   4.981 -0.7773  0.4017  0.3455
11323SOL    HW134803   0.483   7.117   5.049 -0.6004  0.9039 -0.1332
11323SOL    HW234804   0.353   7.110   4.972 -1.4764 -0.6837  1.4093
11324SOL     OW34805   5.330   7.205   4.300 -0.2119  0.0273 -0.0100
11324SOL    HW134806   5.385   7.246   4.367 -0.9652 -0.2026  0.7582
11324SOL    HW234807   5.243   7.202   4.338 -1.4586  2.8777 -2.2216
11325SOL     OW34808   4.358   6.279   4.645  0.2548 -0.1537  0.1541
11325SOL    HW134809   4.267   6.262   4.623  0.3478 -0.9270  0.3344
11325SOL    HW234810   4.366   6.375   4.645 -0.3190 -0.0905 -0.8186
11326SOL     OW34811   1.207   1.881   6.030  0.7549  0.3069 -0.3617
11326SOL    HW134812   1.174   1.961   6.072  0.7547  0.3306 -0.4067
11326SOL    HW234813   1.223   1.907   5.939 -0.6366 -0.1387 -0.7461
11327SOL     OW34814   2.763   0.874   5.677  0.2393  0.4295  0.1359
11327SOL    HW134815   2.816   0.953   5.684  0.9983 -0.1364  0.9048
11327SOL    HW234816   2.823   0.806   5.647  0.5426 -0.7446  3.0921
11328SOL     OW34817   4.571   3.466   7.413  0.5790  0.1152 -0.4057
11328SOL    HW134818   4.640   3.532   7.421  1.7327 -1.2062  1.2511
11328SOL    HW234819   4.583   3.430   7.325  2.1986 -0.2346 -0.0746
11329SOL     OW34820   4.159   4.277   0.799  0.1621  0.5033 -0.0134
11329SOL    HW134821   4.216   4.224   0.854 -1.3198 -0.2023  0.9080
11329SOL    HW234822   4.122   4.342   0.858  1.8091  2.5464 -1.0842
11330SOL     OW34823   4.010   7.775   7.393  0.3049 -0.2055 -0.1379
11330SOL    HW134824   4.102   7.777   7.369  0.4192  1.0855  0.3634
11330SOL    HW234825   3.969   7.841   7.338  0.1326  0.9765  1.3202
11331SOL     OW34826   7.255   6.731   1.673 -0.1859 -0.1050  0.0115
11331SOL    HW134827   7.165   6.762   1.666  0.2265  0.7457 -2.7434
11331SOL    HW234828   7.296   6.790   1.736 -1.0370  0.8528 -0.3072
11332SOL     OW34829   1.753   7.181   3.891 -0.1572  0.0312  0.2706
11332SOL    HW134830   1.815   7.203   3.960 -0.3232  0.8040  0.1885
11332SOL    HW234831   1.670   7.166   3.937 -0.2832  0.6113  0.2366
11333SOL     OW34832   1.956   7.009   6.350  0.1186  0.0578 -0.1917
11333SOL    HW134833   1.911   6.986   6.269 -1.0252  1.3254  0.0533
11333SOL    HW234834   1.974   6.925   6.393 -1.7827 -0.5080 -0.4317
11334SOL     OW34835   5.455   7.492   2.090  0.0641 -0.3359  0.1564
11334SOL    HW134836   5.370   7.450   2.087  0.0716 -0.3414  0.0340
11334SOL    HW234837   5.504   7.453   2.018  0.1550 -0.2995  0.1973
11335SOL     OW34838   5.298   0.873   0.186 -0.2201 -0.0281  0.4537
11335SOL    HW134839   5.376   0.839   0.141 -1.1412 -0.3721 -0.9340
11335SOL    HW234840   5.300   0.967   0.168 -1.1965 -0.3150 -1.3553
11336SOL     OW34841   6.389   6.187   7.309 -0.5247 -0.0098 -0.3330
11336SOL    HW134842   6.446   6.137   7.250  1.7859 -0.9284  2.4124
11336SOL    HW234843   6.420   6.277   7.303  1.2331 -0.4759  1.0070
11337SOL     OW34844   7.023   6.866   2.680  0.2146 -0.2188  0.0108
11337SOL    HW134845   7.042   6.835   2.768  0.8544  0.3748  0.0943
11337SOL    HW234846   6.986   6.954   2.693  2.7960  1.0262 -0.3753
11338SOL     OW34847   0.965   7.373   0.878 -0.1865  0.2393  0.2033
11338SOL    HW134848   1.038   7.312   0.874 -0.3254 -0.0456  1.4516
11338SOL    HW234849   0.893   7.322   0.916 -1.3310  0.2571 -1.8142
11339SOL     OW34850   7.564   7.667   2.849 -0.3626 -1.0781 -0.5994
11339SOL    HW134851   7.616   7.721   2.908 -1.2916  1.1333 -1.7140
11339SOL    HW234852   7.627   7.632   2.787 -0.1016  1.7511 -2.0757
11340SOL     OW34853   7.345   4.632   4.970 -0.2457 -0.7446 -0.1874
11340SOL    HW134854   7.253   4.605   4.974 -0.1750 -0.9332  0.2654
11340SOL    HW234855   7.348   4.697   4.900 -1.0137  0.3471  0.7504
11341SOL     OW34856   2.413   0.390   5.635 -0.0326 -0.0496  1.1762
11341SOL    HW134857   2.508   0.397   5.628  0.0330  0.9682  2.7523
11341SOL    HW234858   2.389   0.329   5.565  1.6855  0.2356  0.2791
11342SOL     OW34859   4.985   4.445   4.026  0.1288 -0.0820  0.3152
11342SOL    HW134860   5.028   4.519   3.982  0.3883 -1.1606 -1.3539
11342SOL    HW234861   5.048   4.417   4.092  0.0332  1.1518  0.9608
11343SOL     OW34862   2.128   6.667   2.530  0.1746  0.0835 -0.2811
11343SOL    HW134863   2.060   6.734   2.541 -0.6837 -0.7224 -0.5987
11343SOL    HW234864   2.102   6.597   2.590 -0.0680 -0.8390 -1.4190
11344SOL     OW34865   0.276   6.210   6.221 -0.4872 -0.1474  0.4952
11344SOL    HW134866   0.296   6.162   6.141 -1.0919  0.4442 -0.0265
11344SOL    HW234867   0.277   6.302   6.195 -2.6272 -0.0098  0.6866
11345SOL     OW34868   1.355   4.730   4.994 -0.1789  0.7123  0.1719
11345SOL    HW134869   1.354   4.824   5.014 -1.1460  0.8413 -0.4335
11345SOL    HW234870   1.390   4.725   4.905  0.9028  0.4017  0.5985
11346SOL     OW34871   5.720   2.693   5.062  0.4446 -0.2499 -0.4011
11346SOL    HW134872   5.641   2.678   5.113 -0.1559 -2.3423 -1.8058
11346SOL    HW234873   5.758   2.773   5.098 -2.2913  0.8270  0.3102
11347SOL     OW34874   4.935   2.457   5.915 -0.0281 -0.5731  0.0931
11347SOL    HW134875   4.945   2.444   6.010  0.2879 -1.6358 -0.0662
11347SOL    HW234876   4.986   2.386   5.876  1.1381  0.7657 -0.9133
11348SOL     OW34877   7.124   0.691   6.134 -0.0355  0.5365 -0.8455
11348SOL    HW134878   7.137   0.598   6.114  0.3297  0.7540 -1.6750
11348SOL    HW234879   7.063   0.722   6.067 -0.7953  0.7249 -0.0944
11349SOL     OW34880   2.781   5.906   1.621  1.0199 -0.3354 -0.2015
11349SOL    HW134881   2.848   5.841   1.641  1.1839 -0.9264 -2.4302
11349SOL    HW234882   2.810   5.945   1.538 -0.8794  0.0887 -0.7084
11350SOL     OW34883   0.735   4.375   0.860 -0.1869 -0.0248  0.3388
11350SOL    HW134884   0.737   4.327   0.778 -1.8543  1.2649 -0.5166
11350SOL    HW234885   0.668   4.330   0.913 -1.0850  0.7600 -0.1046
11351SOL     OW34886   6.029   4.341   2.768 -0.1390  0.7593 -0.4419
11351SOL    HW134887   5.953   4.359   2.824 -0.0484 -1.2653  0.4291
11351SOL    HW234888   6.102   4.333   2.830  0.2282 -0.1537 -0.9831
11352SOL     OW34889   6.331   5.999   5.776 -0.0869 -0.2138 -0.3489
11352SOL    HW134890   6.316   6.087   5.740 -0.1755  0.0162  0.2316
11352SOL    HW234891   6.424   5.983   5.763 -0.2345 -0.4007 -1.2482
11353SOL     OW34892   2.925   0.447   5.424 -0.6260 -0.3075 -0.2899
11353SOL    HW134893   3.019   0.428   5.430 -0.8508 -1.8156 -1.0353
11353SOL    HW234894   2.908   0.453   5.330 -1.4548 -1.1295 -0.2116
11354SOL     OW34895   6.618   5.634   1.821 -0.1351 -0.2690  0.9716
11354SOL    HW134896   6.633   5.728   1.826  0.4425 -0.3430  0.7529
11354SOL    HW234897   6.613   5.614   1.728 -0.0438 -0.4846  1.0104
11355SOL     OW34898   3.748   2.745   1.444 -0.5545  0.2407 -0.3426
11355SOL    HW134899   3.779   2.820   1.393  1.2201 -0.8729 -1.0113
11355SOL    HW234900   3.770   2.767   1.534  0.6656  0.2243 -0.6198
11356SOL     OW34901   6.066   4.208   7.935  0.0742  0.3194  0.0654
11356SOL    HW134902   6.023   4.222   7.851 -1.8225 -0.9303  0.7357
11356SOL    HW234903   6.003   4.240   8.000 -0.2306 -2.1783  1.1240
11357SOL     OW34904   1.891   1.672   6.651 -0.3173  0.4625  0.4456
11357SOL    HW134905   1.975   1.655   6.694  0.0593 -0.6437 -0.6610
11357SOL    HW234906   1.915   1.714   6.569 -0.9352  1.1705  0.6222
11358SOL     OW34907   2.547   1.524   3.329 -0.3367 -0.2769 -0.6203
11358SOL    HW134908   2.475   1.462   3.320 -0.4997 -0.7625  2.7315
11358SOL    HW234909   2.509   1.598   3.377  0.4150  1.4717 -2.5675
11359SOL     OW34910   5.487   6.920   0.182  0.2826 -0.4731 -0.1369
11359SOL    HW134911   5.401   6.882   0.200  1.2958 -2.6483  0.5043
11359SOL    HW234912   5.484   6.943   0.089 -1.9905  2.4610  0.5223
11360SOL     OW34913   6.649   5.874   6.874  0.1484 -0.1862  0.0853
11360SOL    HW134914   6.660   5.781   6.897 -1.2811 -0.2820  0.5090
11360SOL    HW234915   6.565   5.898   6.913 -0.2102  0.8945 -1.2791
11361SOL     OW34916   4.161   6.853   3.891  0.2960  0.6178 -0.8283
11361SOL    HW134917   4.119   6.932   3.858 -1.7353 -1.0603 -2.5172
11361SOL    HW234918   4.253   6.862   3.865  0.2699  2.6620 -0.3858
11362SOL     OW34919   5.580   3.368   1.203 -0.4471  0.2473 -0.2152
11362SOL    HW134920   5.646   3.312   1.163 -0.6347  1.5912 -2.5869
11362SOL    HW234921   5.496   3.331   1.174 -0.6387  0.4146  0.1158
11363SOL     OW34922   7.019   3.559   5.449 -0.0539 -0.5069  0.0323
11363SOL    HW134923   7.059   3.473   5.440  2.2272 -0.0437  3.7544
11363SOL    HW234924   7.084   3.620   5.414  0.6944 -0.0503  2.0677
11364SOL     OW34925   7.906   1.917   3.989 -0.0257  0.0049 -0.3860
11364SOL    HW134926   7.902   1.866   4.070  1.9430  0.3589 -0.0168
11364SOL    HW234927   7.883   1.855   3.920  2.0872 -1.3701  0.0712
11365SOL     OW34928   0.532   5.128   3.446 -0.1324  0.6171  0.6675
11365SOL    HW134929   0.469   5.197   3.467 -0.2395  0.4785  0.8075
11365SOL    HW234930   0.571   5.155   3.362 -1.6444 -0.1650 -0.3397
11366SOL     OW34931   0.893   5.913   3.484 -0.3599  0.5360  0.0244
11366SOL    HW134932   0.883   5.819   3.501  2.1808  0.0048 -0.8966
11366SOL    HW234933   0.830   5.955   3.542 -1.8260 -1.7354  0.2121
11367SOL     OW34934   2.093   5.161   2.878  0.1925  0.2230  0.2139
11367SOL    HW134935   2.064   5.087   2.824  3.4367 -0.1016 -1.3554
11367SOL    HW234936   2.074   5.134   2.967  0.4605 -2.1772 -0.3787
11368SOL     OW34937   6.866   3.109   3.184 -0.1232 -0.2537  0.1927
11368SOL    HW134938   6.867   3.032   3.128 -1.3647 -0.0188 -0.1951
11368SOL    HW234939   6.877   3.075   3.272 -1.0016 -0.9313  0.0601
11369SOL     OW34940   1.008   4.343   7.075 -0.3496 -0.5039 -0.1625
11369SOL    HW134941   0.928   4.377   7.033  0.2125  0.8047 -0.2402
11369SOL    HW234942   1.046   4.284   7.011  0.3765  1.2836 -1.4520
11370SOL     OW34943   2.377   3.733   2.843 -0.4007 -0.2323  0.1045
11370SOL    HW134944   2.322   3.734   2.765  0.0830 -1.0028 -0.2513
11370SOL    HW234945   2.459   3.773   2.815 -0.2591 -0.4223  0.2469
11371SOL     OW34946   1.405   3.900   1.164 -0.3550 -0.2156  0.0307
11371SOL    HW134947   1.343   3.907   1.236 -1.4481  1.0766 -0.9911
11371SOL    HW234948   1.417   3.805   1.151 -1.4040 -0.4696  0.8263
11372SOL     OW34949   7.266   3.023   4.345 -0.0110 -0.7082  0.3892
11372SOL    HW134950   7.274   3.032   4.440  3.4862 -0.5062  0.1732
11372SOL    HW234951   7.335   2.962   4.320 -2.1009 -2.3316 -1.8924
11373SOL     OW34952   1.268   7.945   4.824 -0.0260  0.2313 -0.5805
11373SOL    HW134953   1.230   7.945   4.912 -2.9398  0.8706 -1.7126
11373SOL    HW234954   1.291   7.853   4.808  0.0863  0.0255  0.6542
11374SOL     OW34955   3.025   4.804   3.241 -0.0102 -0.3688 -0.2160
11374SOL    HW134956   2.999   4.893   3.219  0.0056 -0.7155 -1.7338
11374SOL    HW234957   3.043   4.806   3.335 -0.9079  0.9963 -0.0645
11375SOL     OW34958   5.435   6.056   5.511  0.0912  0.1630 -0.1228
11375SOL    HW134959   5.460   6.142   5.478 -0.0162  0.1494 -0.2388
11375SOL    HW234960   5.514   6.023   5.554 -0.6666  1.5769  2.5643
11376SOL     OW34961   7.064   2.224   1.483 -0.7480 -0.3856  0.2278
11376SOL    HW134962   7.105   2.139   1.465 -1.2083 -0.6221  0.2666
11376SOL    HW234963   7.120   2.263   1.550 -1.7653 -1.6669  1.9307
11377SOL     OW34964   3.602   6.602   0.717  0.1371  0.1200 -0.3395
11377SOL    HW134965   3.682   6.620   0.668  1.2384 -0.1755  1.2637
11377SOL    HW234966   3.570   6.688   0.744  0.2138  0.2073 -0.5259
11378SOL     OW34967   2.177   5.139   3.973  0.2129 -0.4162 -0.6807
11378SOL    HW134968   2.169   5.223   4.018  2.0397 -0.4629 -0.1835
11378SOL    HW234969   2.135   5.076   4.032  0.8886 -0.1814  0.0698
11379SOL     OW34970   7.348   1.647   7.252 -0.3710  0.4203  0.2907
11379SOL    HW134971   7.362   1.652   7.346  0.7931  3.3337  0.0476
11379SOL    HW234972   7.281   1.713   7.234 -1.0930 -0.5804 -0.8921
11380SOL     OW34973   3.626   2.863   0.370  0.0302 -0.4134 -0.2362
11380SOL    HW134974   3.654   2.834   0.457 -1.1214 -0.6870  0.0592
11380SOL    HW234975   3.696   2.923   0.342  0.6539 -0.6834  0.6691
11381SOL     OW34976   4.384   2.241   3.312 -0.4342 -0.2079  0.4323
11381SOL    HW134977   4.302   2.222   3.266 -1.1643 -0.7486  1.8772
11381SOL    HW234978   4.363   2.316   3.368  0.2194 -0.0063  0.4184
11382SOL     OW34979   6.218   2.624   5.346  0.7997 -0.7846 -0.1585
11382SOL    HW134980   6.279   2.595   5.414  0.5101  0.3860  0.6215
11382SOL    HW234981   6.133   2.594   5.377  0.6186  0.0822  0.1914
11383SOL     OW34982   6.957   0.191   3.212 -0.5649 -0.6906  0.4757
11383SOL    HW134983   7.021   0.133   3.171 -0.9539 -0.4822 -0.4703
11383SOL    HW234984   6.967   0.176   3.306 -0.0898 -1.6716  0.2824
11384SOL     OW34985   0.645   3.924   4.825  0.7778  0.7005 -0.0050
11384SOL    HW134986   0.620   3.987   4.757  0.8392  1.4020  0.6078
11384SOL    HW234987   0.601   3.843   4.800 -1.2514  1.6005  0.4212
11385SOL     OW34988   0.865   0.304   4.726  0.0778 -0.2133  0.1127
11385SOL    HW134989   0.848   0.211   4.715  0.3674 -0.3245  0.5998
11385SOL    HW234990   0.956   0.316   4.701  0.6446 -0.4104  1.9605
11386SOL     OW34991   6.382   5.313   6.350 -0.1197  0.0532 -0.6788
11386SOL    HW134992   6.297   5.273   6.370  0.0395  0.3604  0.7083
11386SOL    HW234993   6.377   5.400   6.390  0.9020  0.0228 -0.4592
11387SOL     OW34994   3.934   1.196   7.836  0.5550  0.7184  0.1309
11387SOL    HW134995   3.855   1.156   7.873 -0.7754  1.9873 -1.1596
11387SOL    HW234996   3.910   1.288   7.822  1.7413  0.8215 -1.6516
11388SOL     OW34997   1.195   7.882   3.731 -0.6194  0.5547  0.6386
11388SOL    HW134998   1.111   7.920   3.704  0.1067  1.9251  0.2502
11388SOL    HW234999   1.255   7.956   3.737  0.4843 -0.3479  1.3019
11389SOL     OW35000   0.636   7.031   6.784 -0.1507  0.3821  0.1330
11389SOL    HW135001   0.685   6.950   6.773 -0.1839  0.4132 -0.2789
11389SOL    HW235002   0.577   7.034   6.708 -0.6638  0.4294  0.5259
11390SOL     OW35003   7.350   2.176   1.098  0.5047  0.5706  0.3654
11390SOL    HW135004   7.407   2.223   1.037  1.6388  0.9166  1.6490
11390SOL    HW235005   7.340   2.089   1.059  2.3152  0.3396  0.3342
11391SOL     OW35006   2.417   3.761   4.851  0.1521  0.2239  0.6466
11391SOL    HW135007   2.365   3.839   4.832 -0.7600 -0.7104 -0.9692
11391SOL    HW235008   2.353   3.690   4.856  1.1923 -1.0579 -1.9312
11392SOL     OW35009   3.394   7.443   0.712 -0.4585  0.1261 -0.0303
11392SOL    HW135010   3.383   7.530   0.751  0.6869  0.0703  0.4625
11392SOL    HW235011   3.337   7.386   0.764  0.1236  0.2802  0.8012
11393SOL     OW35012   4.842   1.919   3.661  0.4437 -0.1366  0.1701
11393SOL    HW135013   4.806   1.860   3.594  2.1559  1.9185 -2.7807
11393SOL    HW235014   4.765   1.953   3.707 -0.7232 -2.5386  0.1886
11394SOL     OW35015   3.700   1.336   0.135 -0.2025  0.5397  0.2376
11394SOL    HW135016   3.729   1.260   0.086  1.0942  2.9261 -3.0511
11394SOL    HW235017   3.604   1.335   0.126 -0.1383 -0.2590 -0.4567
11395SOL     OW35018   0.476   3.751   3.287 -0.2911 -0.1752  0.0588
11395SOL    HW135019   0.416   3.711   3.225  0.2282  0.1469 -0.6723
11395SOL    HW235020   0.463   3.845   3.276 -0.8609 -0.1166  1.1181
11396SOL     OW35021   5.587   3.996   5.270 -0.1317  0.0941 -0.1156
11396SOL    HW135022   5.493   3.996   5.253 -0.4175 -0.6706  1.3193
11396SOL    HW235023   5.624   4.045   5.196 -1.3219 -2.0468 -2.2763
11397SOL     OW35024   1.761   3.873   5.004 -0.4989  0.2923 -0.2324
11397SOL    HW135025   1.769   3.964   5.036  1.9473 -0.0429  0.3097
11397SOL    HW235026   1.792   3.820   5.078 -0.4616 -0.8859 -1.0826
11398SOL     OW35027   7.467   0.191   2.619  0.6352 -0.1546  0.1826
11398SOL    HW135028   7.514   0.198   2.536 -0.6246 -1.3995 -0.6921
11398SOL    HW235029   7.528   0.144   2.677  0.1053 -2.9980 -1.3465
11399SOL     OW35030   3.759   7.845   6.046 -0.5467  0.0367  0.0604
11399SOL    HW135031   3.806   7.871   5.967  3.1808  0.1827  2.0781
11399SOL    HW235032   3.785   7.754   6.060 -1.8550 -0.2622  0.7072
11400SOL     OW35033   6.670   6.339   7.341  0.0196 -0.3556 -0.0376
11400SOL    HW135034   6.696   6.390   7.418  1.2777 -1.6483  0.4360
11400SOL    HW235035   6.743   6.347   7.280 -1.0522  0.8308 -1.2472
11401SOL     OW35036   4.262   6.877   6.571  0.5077  0.3111  0.2443
11401SOL    HW135037   4.187   6.819   6.556  0.6922  0.0823  0.2029
11401SOL    HW235038   4.270   6.927   6.490  0.2687  0.4866  0.3276
11402SOL     OW35039   1.220   7.702   6.218 -0.4269 -0.6073 -0.1594
11402SOL    HW135040   1.178   7.627   6.175  0.1036  0.0027 -1.8501
11402SOL    HW235041   1.279   7.737   6.151  1.3972 -0.3325  1.5291
11403SOL     OW35042   3.169   4.238   5.812  0.2149  0.0417  0.3456
11403SOL    HW135043   3.165   4.208   5.721 -0.1093  0.4017  0.2411
11403SOL    HW235044   3.124   4.170   5.862 -0.2429  0.1952  0.1472
11404SOL     OW35045   3.448   2.285   6.470  0.0635 -0.7892 -0.1821
11404SOL    HW135046   3.356   2.299   6.446  0.6236  0.5391 -1.7327
11404SOL    HW235047   3.462   2.343   6.545 -0.6810 -2.0240  0.9577
11405SOL     OW35048   4.297   4.473   6.123  0.7726  0.0728 -0.0426
11405SOL    HW135049   4.333   4.555   6.158  1.6735 -0.5807  0.6196
11405SOL    HW235050   4.262   4.497   6.038 -1.8243  1.8168  1.3795
11406SOL     OW35051   6.289   1.937   1.170 -0.1615  0.0943 -0.1852
11406SOL    HW135052   6.239   2.005   1.214  1.6406  0.4438  1.4701
11406SOL    HW235053   6.256   1.937   1.080 -1.4410  1.9036  0.2319
11407SOL     OW35054   6.744   5.819   5.377  0.0304 -0.6097  0.1828
11407SOL    HW135055   6.748   5.891   5.314 -1.6281 -0.5355  0.1175
11407SOL    HW235056   6.678   5.846   5.441  2.5790 -0.1014  2.7912
11408SOL     OW35057   7.301   0.959   5.670 -0.0005 -0.4909  0.2828
11408SOL    HW135058   7.382   0.923   5.635 -0.5786 -1.1127 -0.4578
11408SOL    HW235059   7.329   1.016   5.741  1.2508  1.1146 -1.4023
11409SOL     OW35060   4.932   7.135   7.029 -0.3491 -0.0321 -0.3408
11409SOL    HW135061   4.925   7.071   6.958 -2.4304 -0.9554  0.6206
11409SOL    HW235062   5.024   7.131   7.056  0.2246 -0.4820 -2.2018
11410SOL     OW35063   1.347   7.679   4.730  0.1017 -0.0521  0.1369
11410SOL    HW135064   1.366   7.633   4.648  1.2286  0.9184 -0.1689
11410SOL    HW235065   1.279   7.626   4.771 -1.4559  0.1165 -2.0183
11411SOL     OW35066   2.874   7.078   1.228  0.9161  0.2235  0.3564
11411SOL    HW135067   2.832   7.044   1.307 -1.3640  0.9316 -0.4777
11411SOL    HW235068   2.930   7.149   1.259  1.4162 -0.6421  1.4984
11412SOL     OW35069   5.690   0.431   1.478 -0.0129 -0.4419  0.1821
11412SOL    HW135070   5.743   0.508   1.494 -0.5736  0.0131 -0.0770
11412SOL    HW235071   5.628   0.459   1.410  0.9160 -1.6415 -1.2108
11413SOL     OW35072   6.780   1.746   2.870 -0.5223  0.2821  0.3165
11413SOL    HW135073   6.806   1.711   2.785 -1.0619 -0.9012  0.6207
11413SOL    HW235074   6.735   1.829   2.849 -0.3692  0.1626 -0.5182
11414SOL     OW35075   5.905   0.463   7.253  0.1192  0.7586  0.0967
11414SOL    HW135076   5.883   0.414   7.332 -0.7314  1.6935  0.4520
11414SOL    HW235077   5.936   0.548   7.284 -0.7399  1.3396 -0.5683
11415SOL     OW35078   4.330   5.795   3.424 -0.4809  0.0617 -0.5149
11415SOL    HW135079   4.402   5.747   3.383 -0.3923  1.0761 -1.6167
11415SOL    HW235080   4.354   5.799   3.517 -0.2325 -1.5129 -0.4887
11416SOL     OW35081   4.747   6.623   7.301 -0.2443  0.5242  0.1642
11416SOL    HW135082   4.654   6.602   7.298 -0.0100 -0.7204  0.8938
11416SOL    HW235083   4.788   6.557   7.246  0.1554  1.4819 -0.7143
11417SOL     OW35084   4.104   6.886   3.192 -0.4664 -0.7325 -0.5242
11417SOL    HW135085   4.128   6.798   3.164  2.4485  0.2718 -1.6838
11417SOL    HW235086   4.017   6.901   3.156 -0.6686 -2.8424 -0.9961
11418SOL     OW35087   6.997   3.473   0.803  0.4115 -0.2228  0.1254
11418SOL    HW135088   6.969   3.489   0.893  1.8349 -2.2566  0.9926
11418SOL    HW235089   7.053   3.548   0.782 -1.4284  1.2436  0.1858
11419SOL     OW35090   0.421   4.769   5.863  0.2195 -0.2551 -0.3606
11419SOL    HW135091   0.404   4.691   5.917  1.4343 -0.4361 -0.1959
11419SOL    HW235092   0.496   4.744   5.808 -0.6055  0.1469 -1.7057
11420SOL     OW35093   4.591   7.520   2.592 -0.1008 -0.8754 -0.4089
11420SOL    HW135094   4.573   7.582   2.522  1.3604 -0.3337 -0.3249
11420SOL    HW235095   4.656   7.461   2.556 -0.4497 -1.5234 -0.0074
11421SOL     OW35096   4.419   0.356   0.115  0.4323 -0.5049 -0.1382
11421SOL    HW135097   4.432   0.316   0.029 -1.0584 -0.0216 -0.6141
11421SOL    HW235098   4.416   0.450   0.098 -0.6180 -0.4370  0.3192
11422SOL     OW35099   5.001   7.591   5.717  0.0541 -0.5558 -0.0216
11422SOL    HW135100   5.072   7.573   5.655 -0.5544 -0.8140 -0.6608
11422SOL    HW235101   5.041   7.647   5.783  0.6029  0.1176 -0.8982
11423SOL     OW35102   3.498   3.959   5.399 -0.5805  0.5428  0.2418
11423SOL    HW135103   3.520   4.004   5.481  1.9315  0.0411 -0.0833
11423SOL    HW235104   3.458   3.877   5.427 -1.7573  1.3156  0.9055
11424SOL     OW35105   7.079   5.711   6.951  0.2129 -0.7310 -0.2761
11424SOL    HW135106   7.172   5.701   6.969  0.9612  2.7412 -1.4238
11424SOL    HW235107   7.062   5.653   6.876  1.6633 -0.7153 -0.6353
11425SOL     OW35108   5.468   2.163   1.435  0.0870 -0.1705  0.7255
11425SOL    HW135109   5.504   2.171   1.523  0.4190  1.7256  0.4507
11425SOL    HW235110   5.523   2.097   1.393  0.6910 -0.2107  1.5612
11426SOL     OW35111   5.424   4.993   5.271  0.6349  0.5740 -0.0515
11426SOL    HW135112   5.400   4.973   5.181 -1.5449  0.8792  0.3840
11426SOL    HW235113   5.354   5.051   5.302  1.4754  0.7080  1.7398
11427SOL     OW35114   2.044   6.826   5.830  0.2362 -0.1922  0.8092
11427SOL    HW135115   1.970   6.848   5.774 -0.4492 -0.2606  1.6689
11427SOL    HW235116   2.115   6.806   5.769 -0.4397 -0.0968 -0.0269
11428SOL     OW35117   3.900   3.406   6.550  0.0007 -0.3047 -0.4805
11428SOL    HW135118   3.845   3.394   6.473 -0.0522 -1.6170 -0.2550
11428SOL    HW235119   3.990   3.399   6.518 -0.0279 -1.2506 -0.3705
11429SOL     OW35120   2.271   3.192   6.457  0.1522  0.3937 -0.3564
11429SOL    HW135121   2.196   3.161   6.508 -0.0951 -0.2256 -1.0711
11429SOL    HW235122   2.236   3.203   6.368  1.0259 -0.4737 -0.8295
11430SOL     OW35123   6.397   7.614   2.781  0.5127 -0.4293 -0.3019
11430SOL    HW135124   6.305   7.630   2.799  0.6814 -0.6610  0.8133
11430SOL    HW235125   6.436   7.596   2.866  2.1066  2.1663 -0.3694
11431SOL     OW35126   6.765   3.971   6.034 -0.7700 -0.9726 -0.2935
11431SOL    HW135127   6.691   3.988   5.975 -2.1203 -3.5597  0.4845
11431SOL    HW235128   6.838   3.950   5.975 -0.5748  1.5448 -1.0766
11432SOL     OW35129   7.223   0.235   5.672 -0.0162  0.5819  0.8608
11432SOL    HW135130   7.170   0.315   5.675  1.7848  1.8024  3.2796
11432SOL    HW235131   7.159   0.164   5.685 -1.3397  1.7938  1.2461
11433SOL     OW35132   0.975   3.817   4.010  0.0956 -0.2460  0.1677
11433SOL    HW135133   0.915   3.872   4.060  0.5777 -0.3853  0.9291
11433SOL    HW235134   0.956   3.728   4.040 -0.6376 -0.5007 -1.0095
11434SOL     OW35135   4.320   7.401   7.472  0.1524  0.1888 -0.6038
11434SOL    HW135136   4.333   7.360   7.387  0.4226 -0.6314 -0.1785
11434SOL    HW235137   4.332   7.495   7.455  2.7993 -0.1343 -1.0175
11435SOL     OW35138   6.112   0.743   1.035  0.4772  0.2264 -0.1369
11435SOL    HW135139   6.139   0.668   1.087  0.0298 -0.7230 -1.2211
11435SOL    HW235140   6.137   0.720   0.945  0.2477  1.3352 -0.4972
11436SOL     OW35141   5.742   7.011   2.309  0.3194 -0.2770 -0.1959
11436SOL    HW135142   5.829   6.995   2.273  1.6050  2.6426  1.2807
11436SOL    HW235143   5.754   7.010   2.404 -0.9425  1.3478  0.0336
11437SOL     OW35144   5.255   6.642   6.600 -0.0083 -0.3570  0.4304
11437SOL    HW135145   5.337   6.682   6.571 -0.2141 -1.2415 -1.5358
11437SOL    HW235146   5.264   6.636   6.695 -0.0481  4.3608  0.9384
11438SOL     OW35147   1.126   7.392   4.484  0.0236 -0.7297  0.5696
11438SOL    HW135148   1.155   7.484   4.483  0.9429 -1.0174 -0.6749
11438SOL    HW235149   1.179   7.351   4.552  0.4219 -0.5951  0.3385
11439SOL     OW35150   4.564   3.221   1.147  0.5307  0.2825  0.5046
11439SOL    HW135151   4.503   3.290   1.174  0.4314  0.3239  0.1869
11439SOL    HW235152   4.650   3.262   1.148  0.4094  0.5701 -0.2059
11440SOL     OW35153   6.397   3.895   4.903  0.1732  0.0460  0.4206
11440SOL    HW135154   6.402   3.986   4.871 -1.2336 -0.8259 -2.6103
11440SOL    HW235155   6.303   3.876   4.904  0.4861 -1.5812  0.3115
11441SOL     OW35156   3.123   4.284   4.109  0.3644  0.5285  0.1802
11441SOL    HW135157   3.138   4.286   4.014 -2.1852  1.6840 -0.2870
11441SOL    HW235158   3.101   4.193   4.127  3.6672 -0.4024  0.2998
11442SOL     OW35159   6.662   0.194   3.479  0.3617  0.1937  0.1926
11442SOL    HW135160   6.655   0.289   3.488 -1.1376  0.0539  0.7910
11442SOL    HW235161   6.613   0.159   3.553 -2.3233 -1.0389 -2.0064
11443SOL     OW35162   4.824   4.741   7.525  0.5456 -0.9774 -0.6920
11443SOL    HW135163   4.753   4.677   7.525 -1.2991  0.9563 -0.2564
11443SOL    HW235164   4.786   4.820   7.487  2.7161 -0.0850 -1.1705
11444SOL     OW35165   4.572   4.294   3.972  0.2283 -0.0687 -0.1459
11444SOL    HW135166   4.506   4.305   4.040 -0.6288 -0.0133 -0.9691
11444SOL    HW235167   4.534   4.231   3.911  0.8331  0.1376 -0.7494
11445SOL     OW35168   6.597   4.222   7.034 -0.7171  0.0028 -0.3089
11445SOL    HW135169   6.676   4.180   6.998 -0.7225 -0.0893 -0.2137
11445SOL    HW235170   6.620   4.315   7.039 -0.9648  0.1275 -1.2176
11446SOL     OW35171   1.650   0.458   5.950 -0.5394 -0.5768 -0.2475
11446SOL    HW135172   1.737   0.496   5.957  0.4153 -2.7048 -0.0591
11446SOL    HW235173   1.656   0.393   5.880 -1.8289 -1.1378  0.1221
11447SOL     OW35174   4.980   3.421   2.787  0.5600 -0.8489  0.2435
11447SOL    HW135175   4.958   3.413   2.694  0.2459 -0.2600  0.2629
11447SOL    HW235176   5.070   3.389   2.793  0.5807 -0.8935 -0.2643
11448SOL     OW35177   6.411   4.916   5.709  0.2519  0.5419 -0.0904
11448SOL    HW135178   6.373   4.947   5.791 -0.5432  0.9157 -0.5891
11448SOL    HW235179   6.404   4.821   5.714  1.3629  0.4896  0.8111
11449SOL     OW35180   4.963   3.802   6.395  0.2764  0.0148 -0.2453
11449SOL    HW135181   4.889   3.752   6.362  1.2239 -0.5870 -1.5237
11449SOL    HW235182   5.028   3.801   6.324  0.6129  2.4929 -0.0930
11450SOL     OW35183   3.454   1.298   2.856  0.1449 -0.4109 -0.2377
11450SOL    HW135184   3.404   1.217   2.858  0.3246 -0.5452  2.4791
11450SOL    HW235185   3.544   1.271   2.837  0.0200 -0.7331 -0.3680
11451SOL     OW35186   7.542   1.483   1.723 -0.2588  0.6958 -1.0335
11451SOL    HW135187   7.523   1.432   1.645  0.5144 -2.6259  0.7871
11451SOL    HW235188   7.634   1.467   1.742 -0.6739  0.5072  1.1308
11452SOL     OW35189   3.210   1.798   2.368 -0.1023  0.2024  0.1066
11452SOL    HW135190   3.297   1.778   2.333 -0.6150  0.3047 -1.2729
11452SOL    HW235191   3.164   1.840   2.296 -0.7066  1.8843  1.4077
11453SOL     OW35192   6.941   7.829   1.216 -0.0353  0.2684 -0.0282
11453SOL    HW135193   6.998   7.752   1.216 -1.7373 -1.1125  1.2362
11453SOL    HW235194   6.966   7.877   1.296  2.5714  2.3991 -1.9507
11454SOL     OW35195   0.432   3.038   5.553  0.1357 -0.2600 -0.2813
11454SOL    HW135196   0.389   2.953   5.558 -0.1669 -0.0488  1.0859
11454SOL    HW235197   0.511   3.022   5.502 -0.1473 -1.2605 -0.4319
11455SOL     OW35198   6.118   1.641   3.244  0.3363  0.5509 -0.3279
11455SOL    HW135199   6.096   1.587   3.168  3.6646  0.1487 -1.1690
11455SOL    HW235200   6.213   1.646   3.243  0.4172  2.1026  2.7997
11456SOL     OW35201   0.988   4.345   5.557 -0.8543  0.4874  0.0357
11456SOL    HW135202   0.945   4.327   5.474 -1.9234 -1.8702  1.0084
11456SOL    HW235203   0.943   4.289   5.620  1.9721 -0.1976  1.6188
11457SOL     OW35204   7.185   0.535   7.336  0.1716  0.2302  0.2810
11457SOL    HW135205   7.184   0.455   7.283  0.8601  0.1802  0.3240
11457SOL    HW235206   7.231   0.599   7.281  0.5640  0.2826  0.6634
11458SOL     OW35207   0.743   0.513   6.954  0.1985  0.2302  0.3257
11458SOL    HW135208   0.838   0.508   6.965  0.2299 -0.8296 -0.2991
11458SOL    HW235209   0.729   0.514   6.860 -0.4855 -3.1414  0.2476
11459SOL     OW35210   5.047   7.288   4.852  0.2135 -0.6414  0.2693
11459SOL    HW135211   5.073   7.323   4.767 -0.9328 -0.6767 -0.1167
11459SOL    HW235212   5.104   7.212   4.865  1.7722  0.5154  0.4794
11460SOL     OW35213   3.370   5.119   2.801  0.0915  0.0953  0.3065
11460SOL    HW135214   3.280   5.128   2.833  0.4113  2.0569  0.7587
11460SOL    HW235215   3.421   5.098   2.878  0.1135 -0.5407  0.1274
11461SOL     OW35216   6.774   7.233   5.105  0.1395 -0.1174  0.0280
11461SOL    HW135217   6.840   7.173   5.142  1.0225 -0.2760 -1.7241
11461SOL    HW235218   6.703   7.233   5.170  1.2095 -1.1007  1.2573
11462SOL     OW35219   6.617   5.302   3.032 -0.0633 -0.0066  0.1316
11462SOL    HW135220   6.627   5.358   2.956 -1.2847  0.0198 -0.0237
11462SOL    HW235221   6.524   5.279   3.034  0.0587 -0.5003  1.2637
11463SOL     OW35222   4.392   5.054   5.878  0.0269 -1.0076  0.2225
11463SOL    HW135223   4.481   5.073   5.847  0.3261 -0.7930  1.2028
11463SOL    HW235224   4.362   5.135   5.919 -0.3605 -1.2972  0.5210
11464SOL     OW35225   4.128   4.907   6.406 -0.1231 -0.1776 -0.5233
11464SOL    HW135226   4.127   4.976   6.473 -1.8882 -0.6742  0.0433
11464SOL    HW235227   4.219   4.902   6.377  0.3229  1.3587  0.4842
11465SOL     OW35228   7.319   5.869   4.861 -0.0635  0.2578  0.2533
11465SOL    HW135229   7.392   5.930   4.857  1.9167 -1.9514  0.7385
11465SOL    HW235230   7.312   5.844   4.953 -1.7554  0.7341  0.2943
11466SOL     OW35231   3.346   5.682   2.658  0.5509 -0.2245  0.2915
11466SOL    HW135232   3.405   5.685   2.733  1.1908 -2.0876 -0.1087
11466SOL    HW235233   3.401   5.659   2.584 -0.4810 -0.9016 -0.2927
11467SOL     OW35234   2.901   5.563   1.879  0.8417 -0.1162 -0.0403
11467SOL    HW135235   2.951   5.605   1.949  2.1959 -0.8724 -0.5252
11467SOL    HW235236   2.901   5.627   1.808  0.2670  0.2685  0.2892
11468SOL     OW35237   0.051   1.212   3.186 -0.1576 -0.3901  0.3303
11468SOL    HW135238   0.060   1.287   3.245  3.1509 -0.3012 -0.1090
11468SOL    HW235239   0.018   1.250   3.105  1.6337  0.7182  0.0527
11469SOL     OW35240   3.280   0.368   3.583 -0.4076  0.0297  0.2552
11469SOL    HW135241   3.327   0.388   3.664 -0.1463  0.5171 -0.0177
11469SOL    HW235242   3.349   0.350   3.519 -0.6157 -0.4447  0.1592
11470SOL     OW35243   1.694   5.252   2.445 -0.1231 -0.8963 -0.3902
11470SOL    HW135244   1.771   5.218   2.490  0.9406  0.8418 -0.7840
11470SOL    HW235245   1.724   5.269   2.356 -1.4814 -1.8481 -1.0674
11471SOL     OW35246   4.128   2.390   5.597 -0.0297  0.0316  0.6491
11471SOL    HW135247   4.060   2.443   5.638  0.7871  0.9634  0.8239
11471SOL    HW235248   4.082   2.337   5.532 -1.0821 -0.1768  1.5446
11472SOL     OW35249   0.847   1.450   3.920 -0.4265 -0.1098 -0.2171
11472SOL    HW135250   0.912   1.390   3.885  1.2927  1.1364  0.6730
11472SOL    HW235251   0.768   1.398   3.930  0.8503 -2.0925  0.0523
11473SOL     OW35252   7.866   6.476   2.340 -0.6715 -0.1492  0.2153
11473SOL    HW135253   7.843   6.564   2.310 -1.5780  0.1435  1.6810
11473SOL    HW235254   7.943   6.488   2.395 -0.6617 -0.3170  0.2409
11474SOL     OW35255   1.990   4.832   4.783 -0.0575 -0.3348 -0.1337
11474SOL    HW135256   2.006   4.900   4.717 -0.4751 -1.0546 -0.9947
11474SOL    HW235257   2.077   4.813   4.819  0.0480  0.7484  0.2286
11475SOL     OW35258   6.802   4.432   7.863 -0.0121 -0.1874 -0.2797
11475SOL    HW135259   6.803   4.391   7.950  0.6597 -0.1932 -0.2834
11475SOL    HW235260   6.710   4.445   7.844 -0.2675 -1.8156 -0.3265
11476SOL     OW35261   1.604   6.217   6.985 -0.0787 -0.1523 -0.3524
11476SOL    HW135262   1.569   6.137   6.946 -3.3141  1.5857 -1.3007
11476SOL    HW235263   1.672   6.245   6.924  0.4414 -1.6193 -0.4968
11477SOL     OW35264   7.943   3.716   5.342  0.0088 -0.1063  0.1563
11477SOL    HW135265   7.905   3.672   5.419 -0.1410 -0.4174 -0.0931
11477SOL    HW235266   8.037   3.701   5.350  0.0582  0.4175  0.6216
11478SOL     OW35267   2.277   1.428   6.043  0.0293 -0.3608 -0.3536
11478SOL    HW135268   2.309   1.471   5.963 -2.8502 -0.1723 -1.5522
11478SOL    HW235269   2.260   1.500   6.103 -0.4486 -0.2336 -0.6374
11479SOL     OW35270   1.935   2.610   1.258 -0.3597 -0.8370  0.2816
11479SOL    HW135271   1.889   2.528   1.274  0.8016 -1.4720  0.4573
11479SOL    HW235272   1.989   2.623   1.335  2.1736 -1.7989 -1.2141
11480SOL     OW35273   5.642   1.507   5.122 -0.1421  0.0763 -0.0234
11480SOL    HW135274   5.558   1.482   5.084 -0.7140 -0.9089  1.7662
11480SOL    HW235275   5.693   1.427   5.121 -0.5520 -0.2601  2.1593
11481SOL     OW35276   1.970   0.402   0.293 -0.5002 -0.4539  0.3905
11481SOL    HW135277   1.904   0.337   0.269 -1.5474  0.7760 -0.2093
11481SOL    HW235278   2.025   0.409   0.215 -1.8240  1.0396 -0.4816
11482SOL     OW35279   6.481   5.347   2.287  0.0598  0.4974 -0.0143
11482SOL    HW135280   6.427   5.384   2.357 -0.2060  1.1427 -0.5505
11482SOL    HW235281   6.424   5.346   2.211  0.1551 -0.7827 -0.0829
11483SOL     OW35282   7.512   7.289   1.543 -0.2324  0.1495  0.0445
11483SOL    HW135283   7.529   7.282   1.449 -0.3610  0.8060 -0.0340
11483SOL    HW235284   7.481   7.202   1.569  0.9991 -0.4022 -0.2648
11484SOL     OW35285   5.670   5.605   4.895  0.0400  0.2014 -0.3042
11484SOL    HW135286   5.671   5.671   4.964 -1.4136  1.5926 -1.5471
11484SOL    HW235287   5.745   5.550   4.914 -0.3739  0.4490  2.4520
11485SOL     OW35288   4.343   5.947   1.412  0.4910 -0.3597 -0.0186
11485SOL    HW135289   4.343   6.027   1.360 -0.1456 -1.2921 -1.5302
11485SOL    HW235290   4.271   5.958   1.474 -1.3058 -0.7632 -1.9337
11486SOL     OW35291   3.440   4.495   4.202  0.3499 -0.4337 -0.7162
11486SOL    HW135292   3.502   4.527   4.267  1.2349 -1.4691 -1.0252
11486SOL    HW235293   3.467   4.537   4.120 -0.1318  0.0706 -0.6233
11487SOL     OW35294   3.143   3.160   2.357  0.4315  0.1478  0.3338
11487SOL    HW135295   3.207   3.228   2.341  1.0375 -0.1230  1.4700
11487SOL    HW235296   3.126   3.165   2.451  2.5139 -2.9470  1.0401
11488SOL     OW35297   4.101   1.376   0.179 -0.4682 -0.2534 -0.8821
11488SOL    HW135298   4.176   1.319   0.161 -0.2393  0.2976 -1.7414
11488SOL    HW235299   4.051   1.330   0.246  1.4298  0.0568  0.8429
11489SOL     OW35300   1.747   5.372   1.032 -0.2657  0.7920 -0.5051
11489SOL    HW135301   1.687   5.423   1.086  0.1985  0.5793  0.2221
11489SOL    HW235302   1.812   5.338   1.094  0.1349  0.3461 -1.1625
11490SOL     OW35303   2.614   6.725   6.224  0.4061 -0.3766  0.3620
11490SOL    HW135304   2.531   6.765   6.199  1.0077  0.7774  0.1768
11490SOL    HW235305   2.661   6.713   6.141  0.1444 -1.7257  0.3757
11491SOL     OW35306   3.552   4.537   0.330  0.3251 -0.4008  0.2758
11491SOL    HW135307   3.623   4.593   0.362 -0.1082  0.5679 -0.4143
11491SOL    HW235308   3.529   4.574   0.245 -0.5928 -1.0838  0.2171
11492SOL     OW35309   2.553   0.528   4.790  0.0248 -0.0266 -0.3953
11492SOL    HW135310   2.547   0.621   4.809  1.6914 -0.0066  0.2006
11492SOL    HW235311   2.540   0.522   4.696 -0.6770  0.7406 -0.3562
11493SOL     OW35312   5.050   2.879   7.125  0.1655 -0.0511  0.0798
11493SOL    HW135313   5.105   2.839   7.058 -0.5013  1.3164 -1.3362
11493SOL    HW235314   5.092   2.962   7.145 -0.2466  0.0532  0.5516
11494SOL     OW35315   7.697   0.522   3.109 -0.3796 -0.2176 -0.1629
11494SOL    HW135316   7.743   0.541   3.191 -0.4529  0.1884 -0.2107
11494SOL    HW235317   7.619   0.577   3.112  0.4494  1.0836 -1.2427
11495SOL     OW35318   6.789   3.917   1.306 -0.2748  0.2939 -0.1276
11495SOL    HW135319   6.781   3.935   1.399 -2.3876 -0.7005 -0.0487
11495SOL    HW235320   6.733   3.982   1.264  1.2941  1.2589 -0.8224
11496SOL     OW35321   7.582   5.804   4.683  0.1709  0.2654 -0.3983
11496SOL    HW135322   7.649   5.794   4.615  1.0151 -2.9165  0.7090
11496SOL    HW235323   7.513   5.742   4.657  0.8339 -1.5644  1.8613
11497SOL     OW35324   0.391   0.889   6.004  0.3070  0.3799  0.0752
11497SOL    HW135325   0.444   0.967   6.025  1.0289  0.0684 -0.5455
11497SOL    HW235326   0.391   0.885   5.908  1.6894 -1.3032  0.0885
11498SOL     OW35327   1.856   3.583   3.767 -0.3164 -0.2961 -0.3853
11498SOL    HW135328   1.911   3.661   3.760  1.9079 -1.7589 -0.3555
11498SOL    HW235329   1.776   3.606   3.720  0.2333  1.9935 -0.3399
11499SOL     OW35330   3.582   2.274   0.540 -0.3444 -0.1312  0.1384
11499SOL    HW135331   3.516   2.285   0.609  0.2331  1.1259  0.5244
11499SOL    HW235332   3.638   2.203   0.571  1.4285  2.0306  2.2730
11500SOL     OW35333   1.119   0.704   0.099  0.1812 -0.2962 -0.6000
11500SOL    HW135334   1.049   0.768   0.088 -0.2695 -0.6240  0.2853
11500SOL    HW235335   1.199   0.756   0.095 -0.1165  0.1171 -1.3425
11501SOL     OW35336   0.393   0.885   4.387 -0.1786 -0.4678 -0.4252
11501SOL    HW135337   0.488   0.878   4.383 -0.1192  0.1036 -0.2121
11501SOL    HW235338   0.370   0.945   4.317 -0.0414  1.9684  1.4646
11502SOL     OW35339   5.240   1.075   7.828 -0.8143 -0.3589  0.3754
11502SOL    HW135340   5.281   1.080   7.741 -0.7968 -0.6607  0.3654
11502SOL    HW235341   5.302   1.120   7.886 -0.3601 -0.9923  0.3957
11503SOL     OW35342   5.292   4.388   5.620 -0.3647  0.0585 -0.4751
11503SOL    HW135343   5.304   4.448   5.546 -1.0030 -1.2375 -1.6717
11503SOL    HW235344   5.308   4.442   5.697  0.3134  1.4601 -1.5454
11504SOL     OW35345   7.819   5.445   4.513 -0.1931 -0.4330 -0.4483
11504SOL    HW135346   7.830   5.521   4.570  1.0899  0.5000 -1.8583
11504SOL    HW235347   7.768   5.478   4.438 -2.0482 -1.6873  0.1821
11505SOL     OW35348   1.583   7.303   3.315  0.4773 -0.3085 -0.2386
11505SOL    HW135349   1.511   7.339   3.367  2.2724  0.9406  1.5533
11505SOL    HW235350   1.617   7.231   3.368  0.7810 -0.6398 -0.8728
11506SOL     OW35351   0.615   4.052   1.558  0.1995 -0.1293  0.1992
11506SOL    HW135352   0.572   4.106   1.624  1.4268  0.6440  0.3919
11506SOL    HW235353   0.544   4.028   1.498 -0.8764 -0.5807  1.5899
11507SOL     OW35354   7.013   6.068   7.202  0.0759 -0.0454  0.1790
11507SOL    HW135355   7.103   6.097   7.194 -0.9579  2.9079 -3.2354
11507SOL    HW235356   6.999   6.011   7.126 -1.1826  0.3295  0.1097
11508SOL     OW35357   1.150   1.556   0.452  0.6387  0.1768 -0.1137
11508SOL    HW135358   1.118   1.640   0.485 -0.8768 -0.6357  0.6104
11508SOL    HW235359   1.072   1.502   0.445  1.5743 -1.1643 -0.6346
11509SOL     OW35360   5.227   4.341   0.987 -0.5136 -0.3853  0.5658
11509SOL    HW135361   5.243   4.316   0.896 -1.1792  0.9867  0.0430
11509SOL    HW235362   5.310   4.380   1.015 -0.7027  0.4129  0.0833
11510SOL     OW35363   7.513   7.415   4.172  0.5048  1.0391  0.4778
11510SOL    HW135364   7.559   7.499   4.175  0.9442  0.8145  3.7895
11510SOL    HW235365   7.574   7.352   4.210 -0.2934 -0.5573 -0.7410
11511SOL     OW35366   3.494   5.324   1.912 -0.4551 -0.6281 -0.4975
11511SOL    HW135367   3.529   5.249   1.959  1.4447 -0.5397 -1.6661
11511SOL    HW235368   3.406   5.337   1.949  0.0107 -2.0449  1.2405
11512SOL     OW35369   1.662   4.197   0.185 -0.2195  0.1521  0.6831
11512SOL    HW135370   1.667   4.254   0.108  0.0256 -2.5554 -1.4276
11512SOL    HW235371   1.752   4.168   0.199 -0.6851 -1.6012  0.1849
11513SOL     OW35372   4.364   5.254   2.741 -0.2328 -0.1613 -0.0238
11513SOL    HW135373   4.375   5.257   2.646 -0.0463 -0.6291 -0.0209
11513SOL    HW235374   4.394   5.167   2.766 -0.5369 -0.1431  0.4315
11514SOL     OW35375   5.015   4.742   6.301 -0.1902 -0.6721 -0.1095
11514SOL    HW135376   5.019   4.834   6.328 -0.1747 -0.4615 -0.8146
11514SOL    HW235377   5.087   4.732   6.239 -0.2825 -1.1300 -0.1478
11515SOL     OW35378   0.808   5.646   2.850 -0.8019  0.1291  0.0455
11515SOL    HW135379   0.786   5.566   2.801  0.4512  0.2378 -0.7462
11515SOL    HW235380   0.724   5.677   2.883 -1.4112 -1.1253 -0.2385
11516SOL     OW35381   5.175   7.082   7.827  0.5700  0.3631  0.5572
11516SOL    HW135382   5.224   7.151   7.783  0.6005  1.0737  1.6831
11516SOL    HW235383   5.085   7.115   7.831  0.8391  0.9725  2.3081
11517SOL     OW35384   1.167   4.468   4.519 -0.0667 -0.3307 -0.3200
11517SOL    HW135385   1.102   4.528   4.556 -1.0429 -1.0085 -0.8829
11517SOL    HW235386   1.246   4.521   4.509 -0.6143  0.5920  0.1137
11518SOL     OW35387   2.934   6.367   6.810 -0.9170  0.2211 -0.7678
11518SOL    HW135388   2.866   6.307   6.780 -1.1430  0.4434 -0.7103
11518SOL    HW235389   2.999   6.311   6.852 -1.3865  0.0642 -0.2362
11519SOL     OW35390   4.447   1.089   0.637 -0.1279  0.3092  0.6240
11519SOL    HW135391   4.363   1.053   0.607 -0.4631  0.7726  0.9778
11519SOL    HW235392   4.510   1.063   0.570 -0.7595  0.8626 -0.2145
11520SOL     OW35393   4.775   1.983   4.090 -0.3395  0.5130 -0.0809
11520SOL    HW135394   4.848   1.921   4.091 -0.7682 -0.0169 -0.6413
11520SOL    HW235395   4.706   1.939   4.040 -0.9654  1.0974  0.2350
11521SOL     OW35396   0.608   3.538   1.893  0.0446 -0.1416 -1.0619
11521SOL    HW135397   0.592   3.461   1.947 -1.1248  0.2369 -0.8487
11521SOL    HW235398   0.688   3.517   1.845 -0.8754 -1.9700 -1.8915
11522SOL     OW35399   1.217   5.405   0.949  0.1636 -0.5364  0.3677
11522SOL    HW135400   1.159   5.387   0.875  0.3591 -0.8899  0.2971
11522SOL    HW235401   1.172   5.367   1.025  0.1302 -0.4845  0.3741
11523SOL     OW35402   1.808   7.067   0.293  0.0913 -0.1555 -0.2033
11523SOL    HW135403   1.804   7.142   0.234 -0.6091 -0.6254 -0.7761
11523SOL    HW235404   1.755   7.000   0.249  0.6782 -0.9676  0.3099
11524SOL     OW35405   5.861   3.388   0.031  0.6080  0.2745  0.0862
11524SOL    HW135406   5.770   3.369   0.057  0.5082 -0.3711 -0.7030
11524SOL    HW235407   5.867   3.355  -0.059  1.6207  0.3364  0.1302
11525SOL     OW35408   1.743   5.218   7.434  0.0710 -0.3264 -0.0796
11525SOL    HW135409   1.839   5.220   7.441  0.1027  0.7715 -0.5128
11525SOL    HW235410   1.727   5.184   7.345  0.0268 -1.2399  0.2671
11526SOL     OW35411   5.012   0.744   1.950 -0.0872 -0.0049 -0.0390
11526SOL    HW135412   4.974   0.817   1.901  1.2169  0.8742  0.2215
11526SOL    HW235413   4.959   0.668   1.924  0.6602  0.3746 -2.9690
11527SOL     OW35414   1.136   4.032   6.342 -0.3112 -0.2896 -0.3826
11527SOL    HW135415   1.161   3.942   6.365  0.3741 -0.8517 -2.9828
11527SOL    HW235416   1.095   4.024   6.256  1.0404  2.0478 -1.3308
11528SOL     OW35417   2.632   4.391   4.749 -0.1973  0.1583  0.0058
11528SOL    HW135418   2.725   4.409   4.757  0.0055 -1.1858  0.9514
11528SOL    HW235419   2.626   4.299   4.724 -1.2671  0.2531 -0.1725
11529SOL     OW35420   6.420   3.027   2.775 -0.1505 -0.1610 -0.4065
11529SOL    HW135421   6.358   2.955   2.787 -0.1009 -0.2072 -0.4246
11529SOL    HW235422   6.368   3.106   2.783  0.0493 -0.1554  1.2932
11530SOL     OW35423   2.259   4.893   2.644  0.0296  0.0065  0.3722
11530SOL    HW135424   2.260   4.987   2.626 -0.9728 -0.0318  0.0435
11530SOL    HW235425   2.333   4.879   2.703 -0.0186  1.0547  0.7005
11531SOL     OW35426   1.434   5.579   4.779  0.7094  0.1483  0.0872
11531SOL    HW135427   1.513   5.528   4.758  0.6692  0.8897 -2.0972
11531SOL    HW235428   1.454   5.618   4.864  2.6895  0.2593 -0.3697
11532SOL     OW35429   1.976   0.202   0.943  0.1295  0.2929 -0.4346
11532SOL    HW135430   1.898   0.222   0.995  0.8310  0.7579  0.4823
11532SOL    HW235431   2.000   0.286   0.903  0.2900  0.1985 -0.5374
11533SOL     OW35432   5.223   5.618   4.882 -0.2090  0.2809  0.2076
11533SOL    HW135433   5.236   5.625   4.787  0.3899 -1.9736  0.0888
11533SOL    HW235434   5.142   5.568   4.891 -2.1139  3.1879  0.9782
11534SOL     OW35435   4.313   2.173   0.747  0.0753 -0.2213  0.2130
11534SOL    HW135436   4.325   2.137   0.835  1.8151 -0.0034  0.1138
11534SOL    HW235437   4.389   2.140   0.698 -0.9472 -0.4630 -1.2529
11535SOL     OW35438   0.202   5.072   1.764 -0.3190  0.2236 -0.4248
11535SOL    HW135439   0.113   5.046   1.786 -0.2613 -1.8921 -2.3086
11535SOL    HW235440   0.258   5.009   1.810  0.3807  2.4294  1.9538
11536SOL     OW35441   3.772   0.073   6.761  0.2973 -0.1713  0.0682
11536SOL    HW135442   3.685   0.110   6.774  0.4800  0.6218 -0.8841
11536SOL    HW235443   3.831   0.137   6.801  0.6545  0.8737 -2.0244
11537SOL     OW35444   2.540   5.717   0.564  0.0111 -0.1977  0.4910
11537SOL    HW135445   2.492   5.637   0.541  0.3919 -0.4329  0.4944
11537SOL    HW235446   2.472   5.781   0.584 -0.3012 -0.5790  0.6827
11538SOL     OW35447   4.814   7.763   0.321 -0.3484  0.0361  0.7050
11538SOL    HW135448   4.778   7.849   0.300  1.2198  0.7159  0.6838
11538SOL    HW235449   4.743   7.702   0.300 -1.3046  1.2692  0.2162
11539SOL     OW35450   4.731   5.744   1.077  0.4410  0.4325  0.0918
11539SOL    HW135451   4.639   5.750   1.052  0.2070  1.9411  1.1965
11539SOL    HW235452   4.731   5.751   1.173  1.6431 -0.5899  0.2046
11540SOL     OW35453   3.662   0.292   6.134 -0.3582  0.7428 -0.2303
11540SOL    HW135454   3.745   0.273   6.090  0.0065  1.0771  0.3038
11540SOL    HW235455   3.686   0.307   6.225 -1.0867  0.2415  0.0522
11541SOL     OW35456   2.470   7.878   1.456  0.2003  0.1412 -0.5316
11541SOL    HW135457   2.424   7.866   1.373 -0.9575 -0.7983  0.2184
11541SOL    HW235458   2.560   7.850   1.437 -0.4235 -1.6580 -1.0843
11542SOL     OW35459   4.032   1.889   1.460 -0.2774 -0.0400 -0.0358
11542SOL    HW135460   4.079   1.842   1.391  1.3385  1.5307 -0.0646
11542SOL    HW235461   4.082   1.870   1.540  0.3597  1.4797 -0.0342
11543SOL     OW35462   7.235   4.764   6.891  0.0434 -0.3407 -0.2951
11543SOL    HW135463   7.327   4.773   6.869  0.3275 -1.3911  0.3618
11543SOL    HW235464   7.190   4.764   6.806  0.8754 -1.9954 -0.7772
11544SOL     OW35465   7.401   5.250   2.886 -0.4028  0.4586 -0.5262
11544SOL    HW135466   7.307   5.239   2.898 -0.1267 -0.6829  0.9516
11544SOL    HW235467   7.410   5.333   2.839 -2.1703  0.1651 -1.4967
11545SOL     OW35468   1.930   3.858   3.001 -0.2184  0.3878  0.5130
11545SOL    HW135469   1.939   3.933   2.943  0.6286  0.1405  0.3100
11545SOL    HW235470   2.011   3.858   3.053  0.8416 -1.6202 -0.9776
11546SOL     OW35471   3.931   6.325   5.400  0.5712  0.0461 -0.9904
11546SOL    HW135472   3.976   6.394   5.449  0.7248  0.7329 -2.0630
11546SOL    HW235473   3.843   6.321   5.437  1.3778 -1.1358  0.9692
11547SOL     OW35474   5.633   0.684   6.517  0.6057  0.1097  0.3396
11547SOL    HW135475   5.660   0.621   6.450  0.4687 -1.0344  1.3432
11547SOL    HW235476   5.593   0.756   6.467  1.3069 -0.3012 -0.8588
11548SOL     OW35477   0.429   0.113   0.835 -0.0213 -0.5964  0.1682
11548SOL    HW135478   0.367   0.183   0.813 -0.3398 -1.4602 -1.8962
11548SOL    HW235479   0.481   0.101   0.756  2.9251  0.1221  1.8463
11549SOL     OW35480   1.810   1.394   0.541  0.1447 -0.5415  0.2512
11549SOL    HW135481   1.876   1.436   0.487 -0.2978  2.0082  1.5332
11549SOL    HW235482   1.727   1.435   0.515 -0.1774  0.2221  2.2479
11550SOL     OW35483   5.401   1.629   6.958 -0.1105 -0.2930 -0.0085
11550SOL    HW135484   5.458   1.563   6.995 -1.3712 -0.5175  1.6614
11550SOL    HW235485   5.396   1.608   6.865  1.5864 -0.9316  0.0227
11551SOL     OW35486   1.240   1.840   5.452 -0.7041  0.2664 -0.0786
11551SOL    HW135487   1.235   1.757   5.498 -1.8956 -0.1671 -0.9424
11551SOL    HW235488   1.298   1.894   5.506 -0.9887 -0.6580  1.1977
11552SOL     OW35489   4.324   4.249   3.566  0.8290 -0.0877 -0.7703
11552SOL    HW135490   4.287   4.334   3.589  1.2622  0.0345 -0.4943
11552SOL    HW235491   4.399   4.270   3.511  1.5698 -0.2233  0.1511
11553SOL     OW35492   3.670   4.532   6.211 -0.6802  0.1405  0.1767
11553SOL    HW135493   3.716   4.489   6.139  0.1309 -0.3198  0.9420
11553SOL    HW235494   3.591   4.568   6.172 -0.7303 -0.9362 -0.7440
11554SOL     OW35495   0.715   6.120   5.506 -0.2592 -0.3637  0.1132
11554SOL    HW135496   0.783   6.177   5.542 -0.7062  0.0449  0.3182
11554SOL    HW235497   0.761   6.067   5.440 -0.1410  1.3632 -1.2642
11555SOL     OW35498   3.467   6.242   4.506 -0.6070 -0.0343  0.1447
11555SOL    HW135499   3.432   6.160   4.472 -0.4415  0.7230 -2.0367
11555SOL    HW235500   3.419   6.256   4.588 -0.6576 -2.2508  0.5577
11556SOL     OW35501   2.069   6.094   4.598  0.4364 -0.4737 -0.0951
11556SOL    HW135502   1.992   6.039   4.581  1.6469 -2.2762 -0.0068
11556SOL    HW235503   2.117   6.093   4.515  0.0130  1.2847 -0.3889
11557SOL     OW35504   1.615   2.444   0.720  0.6488  0.2774 -0.5224
11557SOL    HW135505   1.579   2.421   0.806 -0.2001  1.1372 -0.6227
11557SOL    HW235506   1.573   2.528   0.699  1.3464  0.3992 -1.4848
11558SOL     OW35507   0.204   2.753   4.275 -0.8117 -0.2321  0.6641
11558SOL    HW135508   0.292   2.776   4.247 -0.5335 -3.2476 -1.4532
11558SOL    HW235509   0.215   2.722   4.365  0.0274  0.5655  0.8523
11559SOL     OW35510   0.087   1.655   7.103 -0.0977  0.2291  0.6653
11559SOL    HW135511   0.063   1.748   7.106  0.8518  0.4758  0.9943
11559SOL    HW235512   0.023   1.612   7.160  0.4652  0.9376  1.8738
11560SOL     OW35513   5.756   3.370   6.495 -0.0443 -0.0968 -0.0161
11560SOL    HW135514   5.677   3.424   6.497  1.2255  1.8860 -0.5432
11560SOL    HW235515   5.788   3.379   6.405 -0.2839 -2.5475 -0.3921
11561SOL     OW35516   7.603   7.045   5.631  0.3300 -0.1012 -0.2647
11561SOL    HW135517   7.614   6.994   5.711  0.0082 -1.0792 -0.8281
11561SOL    HW235518   7.676   7.019   5.575 -0.1052 -0.3198 -0.7412
11562SOL     OW35519   1.446   6.289   3.585 -0.5710 -0.3273 -0.3221
11562SOL    HW135520   1.445   6.194   3.571 -2.1863 -0.5071  0.6740
11562SOL    HW235521   1.500   6.301   3.663  0.5995 -0.2861 -1.1185
11563SOL     OW35522   5.841   2.663   1.869  0.7587  0.3687 -0.0773
11563SOL    HW135523   5.868   2.630   1.954 -2.2060 -0.2105  0.7210
11563SOL    HW235524   5.785   2.595   1.833  1.5681  0.8064 -2.3373
11564SOL     OW35525   3.090   2.867   7.411  0.8054  0.3579  0.1867
11564SOL    HW135526   3.036   2.903   7.341  1.5759 -1.5171 -1.4581
11564SOL    HW235527   3.062   2.915   7.489 -2.7144  0.0529 -0.6874
11565SOL     OW35528   7.675   5.199   5.624  0.0917  0.3567 -0.4034
11565SOL    HW135529   7.756   5.198   5.676 -1.0225  0.8181  1.4329
11565SOL    HW235530   7.696   5.254   5.549  1.8188 -0.4529 -0.5565
11566SOL     OW35531   4.278   6.857   6.032  0.1508  0.1806 -0.1130
11566SOL    HW135532   4.255   6.845   5.939 -2.6333  1.5888  0.2641
11566SOL    HW235533   4.355   6.913   6.030  0.5577 -0.3756 -1.5824
11567SOL     OW35534   3.946   7.324   5.130 -0.7651 -0.1844 -0.1650
11567SOL    HW135535   3.913   7.277   5.053  0.3273 -1.3128  0.0127
11567SOL    HW235536   3.958   7.256   5.196  1.6655  0.1780 -0.1632
11568SOL     OW35537   1.442   5.898   6.218  0.0121  0.5619  0.1154
11568SOL    HW135538   1.510   5.901   6.151  0.5354  0.9807  0.6566
11568SOL    HW235539   1.394   5.980   6.208 -0.8041  0.0120 -0.6504
11569SOL     OW35540   1.388   5.426   5.313 -0.2741 -0.1299 -0.5022
11569SOL    HW135541   1.314   5.486   5.328 -0.9292 -1.2852  1.0785
11569SOL    HW235542   1.466   5.480   5.326 -0.7990  0.9817 -1.6709
11570SOL     OW35543   3.505   0.316   1.994 -0.1640 -0.4368 -0.8173
11570SOL    HW135544   3.574   0.382   2.002 -0.6246 -0.1254  0.9609
11570SOL    HW235545   3.536   0.257   1.925  0.3914  1.4364 -2.2340
11571SOL     OW35546   4.783   4.976   5.239 -0.0502 -0.2764 -0.1438
11571SOL    HW135547   4.772   4.906   5.303  0.6249 -0.4206 -0.1717
11571SOL    HW235548   4.859   5.026   5.272  1.8221 -1.7118 -2.0088
11572SOL     OW35549   4.616   3.918   2.762  0.1553 -0.1918  0.3743
11572SOL    HW135550   4.520   3.920   2.760  0.1672  1.3300 -0.8447
11572SOL    HW235551   4.639   3.921   2.855 -0.9795 -0.3002  0.6681
11573SOL     OW35552   2.109   1.110   4.765 -0.1592 -0.1701  0.1841
11573SOL    HW135553   2.062   1.074   4.690  1.1450  1.4732 -1.4985
11573SOL    HW235554   2.061   1.076   4.841 -2.4189 -0.7131 -1.3782
11574SOL     OW35555   2.406   6.888   4.372  0.6223  0.2556 -0.1338
11574SOL    HW135556   2.480   6.881   4.431 -0.0379 -0.0781  0.6757
11574SOL    HW235557   2.374   6.978   4.383  1.3773  0.6603 -1.0834
11575SOL     OW35558   5.468   0.938   5.757  0.1697 -0.6341 -0.4267
11575SOL    HW135559   5.483   1.031   5.775  0.5141 -1.0029  1.3774
11575SOL    HW235560   5.386   0.937   5.706  0.4737  0.6725 -0.9936
11576SOL     OW35561   2.050   5.571   7.707  0.3940 -0.3561 -0.4697
11576SOL    HW135562   2.142   5.545   7.714  0.0795 -1.7155 -1.1250
11576SOL    HW235563   2.049   5.639   7.639  1.1252  0.9766  0.7732
11577SOL     OW35564   5.221   4.413   6.258 -0.2452  0.1251  0.3163
11577SOL    HW135565   5.175   4.486   6.216  0.5968  0.5565  0.1256
11577SOL    HW235566   5.161   4.339   6.250 -1.5571  1.0225  1.4152
11578SOL     OW35567   0.522   1.298   7.766 -0.2638  0.1018  1.2966
11578SOL    HW135568   0.556   1.346   7.841 -0.3798  1.5063  0.4818
11578SOL    HW235569   0.460   1.357   7.725  1.2407  0.2103 -1.0321
11579SOL     OW35570   0.286   6.828   6.860  0.4067 -0.5731 -0.5380
11579SOL    HW135571   0.328   6.751   6.821  0.6859 -0.8757  0.3271
11579SOL    HW235572   0.353   6.866   6.917  0.0126 -0.1561 -0.3440
11580SOL     OW35573   0.456   6.249   0.328 -0.1165  0.6119  0.1894
11580SOL    HW135574   0.532   6.301   0.354 -0.5096  0.6080  1.4113
11580SOL    HW235575   0.387   6.313   0.310 -0.0094  0.5879 -0.3395
11581SOL     OW35576   7.179   7.076   4.555  1.1972  0.8913  0.4776
11581SOL    HW135577   7.151   7.110   4.640  2.7709 -0.0964  1.4317
11581SOL    HW235578   7.121   7.120   4.492  0.8095  2.6034  1.9290
11582SOL     OW35579   7.813   3.711   1.657  0.0699 -0.2405 -0.2604
11582SOL    HW135580   7.752   3.785   1.656 -0.0743 -0.3349  0.6110
11582SOL    HW235581   7.899   3.750   1.642 -0.2454 -0.1731 -2.0947
11583SOL     OW35582   4.033   4.646   0.616 -0.0847 -0.1422  0.5272
11583SOL    HW135583   3.961   4.640   0.679 -1.5284 -1.0029 -1.1187
11583SOL    HW235584   4.002   4.599   0.539  1.9360  0.1746 -0.5653
11584SOL     OW35585   6.237   6.932   3.188  0.0354  0.3626  0.4628
11584SOL    HW135586   6.207   6.873   3.119 -1.9344  0.2205  1.3643
11584SOL    HW235587   6.220   7.020   3.154 -0.9292  0.2933  0.7599
11585SOL     OW35588   7.611   0.837   5.884 -0.1027 -0.3173 -0.2626
11585SOL    HW135589   7.639   0.772   5.819 -0.7167 -1.3708  0.4903
11585SOL    HW235590   7.604   0.787   5.965 -0.3060  0.7726  0.4035
11586SOL     OW35591   6.419   3.268   2.566  0.0920  0.6198  0.0003
11586SOL    HW135592   6.471   3.273   2.646  0.1041  3.0444 -0.0811
11586SOL    HW235593   6.360   3.343   2.571 -0.8708  0.0355 -1.6293
11587SOL     OW35594   7.345   5.527   7.446 -0.1220  0.1972  0.1770
11587SOL    HW135595   7.389   5.534   7.361  0.2517 -0.6491  0.2918
11587SOL    HW235596   7.282   5.598   7.446  0.1489  0.4512 -0.6506
11588SOL     OW35597   4.041   5.422   0.958  0.7202  0.1493  0.2909
11588SOL    HW135598   4.075   5.506   0.930  1.6522 -0.0315  0.8572
11588SOL    HW235599   4.086   5.403   1.040 -1.3785  0.3134  1.5798
11589SOL     OW35600   5.125   4.541   5.366  0.1404 -0.0346  0.1389
11589SOL    HW135601   5.034   4.511   5.372  0.0281  0.4716  1.1515
11589SOL    HW235602   5.125   4.626   5.411  0.4862  1.4656 -2.4960
11590SOL     OW35603   5.702   2.895   5.993 -0.2294 -0.7568  0.1400
11590SOL    HW135604   5.620   2.875   5.948 -0.8077  1.1282  0.2594
11590SOL    HW235605   5.767   2.901   5.923 -0.9614  1.3607 -0.4278
11591SOL     OW35606   6.725   1.572   3.918 -0.4192  0.2989 -0.2151
11591SOL    HW135607   6.754   1.631   3.988 -0.5143 -0.0835  0.1504
11591SOL    HW235608   6.656   1.620   3.873 -0.2233  0.6261 -0.1719
11592SOL     OW35609   2.617   6.674   3.139 -0.2009 -0.0478 -0.0297
11592SOL    HW135610   2.603   6.603   3.076  1.7492  1.0203 -1.8207
11592SOL    HW235611   2.693   6.647   3.190  0.3021  0.5382 -0.4484
11593SOL     OW35612   0.972   5.186   0.533  0.5200  0.7412 -0.5560
11593SOL    HW135613   0.892   5.135   0.534  2.3225 -2.3202  0.9547
11593SOL    HW235614   1.016   5.160   0.452  0.4294  1.7771 -0.9629
11594SOL     OW35615   7.138   6.658   6.714 -0.2597  0.3512 -0.1391
11594SOL    HW135616   7.190   6.725   6.757 -2.2429  0.8297  1.6532
11594SOL    HW235617   7.102   6.605   6.785  1.3199 -2.8076 -1.4578
11595SOL     OW35618   0.474   4.270   0.446 -0.4023 -0.0914 -0.4508
11595SOL    HW135619   0.505   4.317   0.369  0.4731 -0.0158 -0.0718
11595SOL    HW235620   0.550   4.268   0.504 -1.2130  0.4200  0.6766
11596SOL     OW35621   5.151   7.296   7.415  0.7049 -0.3666  0.0238
11596SOL    HW135622   5.137   7.208   7.381  1.6636 -1.3381  1.9755
11596SOL    HW235623   5.219   7.333   7.359 -1.1211 -0.0293 -2.0934
11597SOL     OW35624   5.854   7.044   4.421 -0.1498 -0.1918  0.3191
11597SOL    HW135625   5.794   7.108   4.460 -0.1434 -0.3668  0.6181
11597SOL    HW235626   5.800   6.966   4.409 -0.3798  0.1234 -0.8179
11598SOL     OW35627   2.777   0.470   0.554  0.0086 -0.2647 -0.4594
11598SOL    HW135628   2.788   0.550   0.606  3.3598 -0.6489 -0.3575
11598SOL    HW235629   2.695   0.483   0.507 -1.2896  1.7062  2.1259
11599SOL     OW35630   5.895   5.240   5.554 -0.0642 -0.0617  0.3081
11599SOL    HW135631   5.810   5.197   5.565 -1.0271  1.4211 -1.0800
11599SOL    HW235632   5.939   5.226   5.638 -2.0157 -0.1360  1.3788
11600SOL     OW35633   1.710   5.909   2.752 -0.2946 -0.1665 -0.3540
11600SOL    HW135634   1.678   5.840   2.810 -0.4100 -0.4218 -0.7141
11600SOL    HW235635   1.654   5.985   2.771 -0.8028 -0.4637 -0.6355
11601SOL     OW35636   1.898   3.857   4.681  0.2344 -0.5802  0.3787
11601SOL    HW135637   1.860   3.849   4.768 -1.5973  1.1473 -0.1770
11601SOL    HW235638   1.904   3.951   4.665 -0.6689 -0.8189 -1.8026
11602SOL     OW35639   7.025   6.410   2.549 -0.4733  0.2435  0.0891
11602SOL    HW135640   7.057   6.402   2.459  0.7532 -0.2660  0.5378
11602SOL    HW235641   6.946   6.357   2.552  0.4598 -1.2502 -0.2699
11603SOL     OW35642   2.196   5.849   3.942  0.2172  0.1538  0.7989
11603SOL    HW135643   2.118   5.828   3.890 -0.3275  2.6223  0.4843
11603SOL    HW235644   2.269   5.842   3.881 -0.4236  3.1411 -0.4876
11604SOL     OW35645   6.872   3.290   2.740 -0.2562  0.1049 -0.0453
11604SOL    HW135646   6.804   3.274   2.674  0.2208 -0.9441 -0.3029
11604SOL    HW235647   6.884   3.385   2.740  1.0377  0.0200 -2.8218
11605SOL     OW35648   5.824   7.809   5.896  0.2976  0.4780  0.7527
11605SOL    HW135649   5.919   7.813   5.891  0.3779 -0.4637  1.2949
11605SOL    HW235650   5.805   7.790   5.987 -0.2972 -1.5537  0.2613
11606SOL     OW35651   5.236   1.354   5.964 -0.0600  0.1321  0.1892
11606SOL    HW135652   5.317   1.331   6.010  0.5613  0.6186 -0.6319
11606SOL    HW235653   5.167   1.306   6.010  0.6905 -0.2526  0.9265
11607SOL     OW35654   3.315   6.051   1.426 -0.3766  0.7675  0.1705
11607SOL    HW135655   3.404   6.026   1.399 -0.9768  0.0253 -1.2187
11607SOL    HW235656   3.287   6.115   1.361 -1.6085 -0.5376 -0.6256
11608SOL     OW35657   5.207   0.883   5.689  0.2515  0.1740 -0.3866
11608SOL    HW135658   5.195   0.789   5.673  1.8734  0.0252 -0.9271
11608SOL    HW235659   5.210   0.891   5.784 -0.5381 -0.2187 -0.3194
11609SOL     OW35660   1.962   2.803   2.574  0.3349  0.1414  0.2269
11609SOL    HW135661   1.896   2.817   2.507  0.5511 -1.5563 -0.3823
11609SOL    HW235662   1.913   2.772   2.650  0.2552  0.5980  0.3656
11610SOL     OW35663   4.700   0.210   0.962  0.1800 -0.3804  0.2259
11610SOL    HW135664   4.740   0.171   1.039 -0.3106  0.4550  0.9285
11610SOL    HW235665   4.629   0.150   0.938  1.4859 -1.5955 -0.7189
11611SOL     OW35666   0.348   3.630   0.932  0.0698  0.3040  0.0833
11611SOL    HW135667   0.356   3.616   0.837  0.3893  0.5783  0.0667
11611SOL    HW235668   0.401   3.560   0.971 -0.3837 -0.0501  0.0734
11612SOL     OW35669   1.743   5.564   4.459  0.2043 -0.7424  0.0147
11612SOL    HW135670   1.666   5.516   4.491  0.3907 -0.2438  1.2670
11612SOL    HW235671   1.784   5.599   4.538  0.7159  0.5158 -0.7691
11613SOL     OW35672   2.032   2.792   4.396  0.2119 -0.2152 -0.2006
11613SOL    HW135673   1.951   2.824   4.435  0.3250 -0.4142  0.2124
11613SOL    HW235674   2.086   2.870   4.385 -0.0701 -0.0672 -0.5721
11614SOL     OW35675   6.630   7.912   5.681  0.7355 -0.0601  0.3187
11614SOL    HW135676   6.700   7.970   5.653  0.7617 -0.6510 -0.9118
11614SOL    HW235677   6.630   7.919   5.777  0.9741  1.6608  0.2307
11615SOL     OW35678   3.408   0.742   5.037 -0.4629  0.5250  0.0039
11615SOL    HW135679   3.433   0.782   5.120  1.4652  0.1278 -0.3361
11615SOL    HW235680   3.319   0.710   5.051 -0.4355  1.0950  1.6667
11616SOL     OW35681   5.664   2.089   0.372  0.1249 -1.2103 -0.3178
11616SOL    HW135682   5.606   2.048   0.308 -2.1421  2.6076 -1.0439
11616SOL    HW235683   5.743   2.112   0.322 -0.4787 -0.7196 -1.0698
11617SOL     OW35684   5.855   4.070   1.356 -0.2804  0.0333  0.0153
11617SOL    HW135685   5.926   4.110   1.406  0.4900  1.2989 -1.9811
11617SOL    HW235686   5.820   4.002   1.414  2.0358 -0.1069  1.3528
11618SOL     OW35687   2.326   1.073   3.757 -0.1673  0.7965 -0.0222
11618SOL    HW135688   2.237   1.092   3.727 -0.2162  1.7305  0.6925
11618SOL    HW235689   2.372   1.046   3.678 -1.0474  0.4272 -0.4252
11619SOL     OW35690   7.793   3.893   2.538  0.2745 -0.6395 -0.5474
11619SOL    HW135691   7.706   3.933   2.534 -0.7775 -2.3219  2.5144
11619SOL    HW235692   7.844   3.953   2.592  0.6493 -0.3159 -1.2469
11620SOL     OW35693   2.219   4.112   5.638 -0.5840  0.0088  0.0243
11620SOL    HW135694   2.284   4.065   5.585 -0.1004  1.5965 -0.8500
11620SOL    HW235695   2.271   4.171   5.693 -0.9929 -2.2703  3.1220
11621SOL     OW35696   5.481   4.554   7.559 -0.3283 -0.0900 -0.2609
11621SOL    HW135697   5.571   4.538   7.529  0.2616  1.8176  0.3436
11621SOL    HW235698   5.485   4.542   7.654 -0.6320  0.3287 -0.1941
11622SOL     OW35699   7.056   0.008   5.693  0.1357  0.1940  0.3538
11622SOL    HW135700   7.035   0.005   5.786  1.5348  0.4672  0.6981
11622SOL    HW235701   7.084  -0.081   5.671 -1.6175 -0.2621 -0.1876
11623SOL     OW35702   5.503   5.337   2.742 -0.3988 -0.8162 -0.0646
11623SOL    HW135703   5.510   5.262   2.683  0.4133 -0.9113  0.1380
11623SOL    HW235704   5.483   5.298   2.827  2.7235 -1.0978  0.6489
11624SOL     OW35705   0.534   7.879   1.318  1.0740 -0.3501 -0.3467
11624SOL    HW135706   0.495   7.873   1.405  0.9571  2.0184 -0.1617
11624SOL    HW235707   0.472   7.834   1.261  0.3876 -0.6073  0.5780
11625SOL     OW35708   5.701   0.239   1.682 -0.8757  0.3677  0.3227
11625SOL    HW135709   5.668   0.159   1.640  1.9520 -0.7002 -0.0402
11625SOL    HW235710   5.698   0.305   1.613 -0.7144 -0.1429 -0.1800
11626SOL     OW35711   4.030   5.643   0.005  0.0776  0.2067  0.1178
11626SOL    HW135712   4.059   5.566  -0.042 -1.8126  0.2499 -1.2508
11626SOL    HW235713   3.982   5.695  -0.060 -1.8847  0.7067  1.8407
11627SOL     OW35714   2.748   1.365   2.242  0.2930  0.3987 -0.6625
11627SOL    HW135715   2.811   1.296   2.220 -0.3889  0.4373 -2.9185
11627SOL    HW235716   2.796   1.447   2.230 -0.0210  0.4131 -1.9232
11628SOL     OW35717   3.604   4.573   4.556  0.1981 -0.4761 -0.4947
11628SOL    HW135718   3.566   4.656   4.583 -0.4921 -1.0842  0.4427
11628SOL    HW235719   3.576   4.510   4.622 -0.5491 -1.7684 -1.9660
11629SOL     OW35720   0.033   0.910   3.523 -0.3929 -0.3919 -0.0658
11629SOL    HW135721   0.060   0.840   3.464  1.4467 -0.2043  0.4990
11629SOL    HW235722   0.042   0.872   3.610  3.1776  1.2242  0.4356
11630SOL     OW35723   7.097   7.857   2.113 -0.0140  0.5354  0.7110
11630SOL    HW135724   7.029   7.877   2.177 -0.3252  1.9989 -0.0347
11630SOL    HW235725   7.076   7.769   2.081 -0.5898  0.3085  1.6763
11631SOL     OW35726   3.874   4.476   4.805  0.2973 -0.1542  0.1971
11631SOL    HW135727   3.794   4.462   4.856  0.5288  1.2408  0.9976
11631SOL    HW235728   3.860   4.560   4.762  0.5693 -0.7954 -1.2224
11632SOL     OW35729   4.074   0.815   7.314 -0.2438  0.0897 -0.2145
11632SOL    HW135730   4.056   0.769   7.395  0.0163  1.0797  0.4247
11632SOL    HW235731   3.988   0.843   7.282 -0.3852 -0.6779 -0.5165
11633SOL     OW35732   1.269   5.089   2.916  0.2590  0.0398 -0.2707
11633SOL    HW135733   1.230   5.036   2.986  0.9110 -0.6729 -0.4404
11633SOL    HW235734   1.198   5.102   2.853  0.2633 -1.2057 -0.5496
11634SOL     OW35735   2.938   2.506   6.899 -0.2604 -0.2504 -0.1061
11634SOL    HW135736   3.003   2.537   6.836 -0.3696  2.7526  1.1192
11634SOL    HW235737   2.879   2.451   6.847  2.4025 -2.0311 -1.5172
11635SOL     OW35738   5.898   1.080   7.906  0.0434 -0.1843 -0.3603
11635SOL    HW135739   5.908   1.075   7.810  1.3915 -1.4499 -0.1920
11635SOL    HW235740   5.809   1.051   7.922 -0.1998  0.0328 -1.2342
11636SOL     OW35741   6.257   7.388   0.107  0.1973 -0.2065  0.3096
11636SOL    HW135742   6.296   7.457   0.054 -0.8324  0.0123 -0.1855
11636SOL    HW235743   6.193   7.433   0.162 -1.6072 -0.9175 -1.1152
11637SOL     OW35744   3.515   3.028   1.230 -0.6068  0.3203 -0.3572
11637SOL    HW135745   3.535   3.012   1.322  2.5303  0.2905 -0.9358
11637SOL    HW235746   3.523   2.942   1.189 -0.9199  0.5262 -0.8575
11638SOL     OW35747   7.350   2.449   6.628  0.4535  0.1626  0.2277
11638SOL    HW135748   7.427   2.498   6.598  0.1205 -0.3939 -1.7268
11638SOL    HW235749   7.288   2.457   6.555 -1.6796  1.2544  2.0599
11639SOL     OW35750   3.154   3.968   6.274  0.3923  0.4365  0.0809
11639SOL    HW135751   3.111   3.972   6.188  0.5773 -0.2036 -0.0459
11639SOL    HW235752   3.090   3.924   6.330  1.0525 -0.9816 -0.2309
11640SOL     OW35753   4.536   3.686   2.610 -0.0253 -0.3194 -0.3557
11640SOL    HW135754   4.505   3.674   2.700  0.5270 -1.7758 -0.3402
11640SOL    HW235755   4.557   3.779   2.605  0.7559 -0.3609  1.2970
11641SOL     OW35756   7.216   7.234   3.631 -1.0778 -0.1131  0.5508
11641SOL    HW135757   7.302   7.250   3.669 -0.8221 -0.4272  0.1127
11641SOL    HW235758   7.216   7.281   3.547 -0.4875 -1.9254 -0.5226
11642SOL     OW35759   7.378   0.428   2.429 -0.3849  0.0720 -0.1467
11642SOL    HW135760   7.386   0.483   2.351 -1.3312  0.4720  0.0229
11642SOL    HW235761   7.468   0.419   2.461 -0.1479  1.0381 -0.5070
11643SOL     OW35762   5.991   7.651   3.288 -0.2219 -0.1265  0.2231
11643SOL    HW135763   5.979   7.739   3.251  0.3065 -0.3314 -0.4604
11643SOL    HW235764   6.031   7.667   3.374 -0.2175  0.3090  0.1445
11644SOL     OW35765   1.110   4.685   5.107 -0.2599 -0.1022  0.8417
11644SOL    HW135766   1.075   4.683   5.018  0.3414  0.3465  0.5900
11644SOL    HW235767   1.203   4.702   5.096  0.2708 -2.3162  1.4553
11645SOL     OW35768   7.738   4.457   2.896  0.4361 -0.0138 -0.4280
11645SOL    HW135769   7.728   4.453   2.991  1.6455 -1.3704 -0.3339
11645SOL    HW235770   7.799   4.387   2.875  1.3696  1.2213 -2.0493
11646SOL     OW35771   2.588   6.474   1.823 -0.1004 -0.4804  0.5150
11646SOL    HW135772   2.659   6.525   1.861  0.0556 -0.5955  0.3768
11646SOL    HW235773   2.508   6.517   1.854  0.0253  0.5741 -0.5656
11647SOL     OW35774   1.114   7.519   2.970 -0.2466 -0.1502  0.0561
11647SOL    HW135775   1.129   7.435   3.012 -1.3781  0.4242  1.6871
11647SOL    HW235776   1.050   7.502   2.901 -1.2930 -0.4502  1.0874
11648SOL     OW35777   0.784   5.314   6.350 -0.0664 -0.0639  0.1796
11648SOL    HW135778   0.765   5.394   6.301  1.1772  0.6493  0.8177
11648SOL    HW235779   0.866   5.282   6.312  0.6485  0.2320  1.4387
11649SOL     OW35780   7.807   4.898   2.206  0.1433  0.0392  0.1977
11649SOL    HW135781   7.725   4.948   2.200  0.5422  0.8145  0.9262
11649SOL    HW235782   7.814   4.853   2.122 -0.2949  1.1121 -0.4349
11650SOL     OW35783   1.460   0.912   2.234  0.1535 -0.1612 -0.1238
11650SOL    HW135784   1.429   0.944   2.319 -0.6981  0.7121 -0.7430
11650SOL    HW235785   1.380   0.899   2.183  0.6181 -1.3475 -0.5745
11651SOL     OW35786   3.766   0.565   0.400  0.3852  0.3908 -0.0162
11651SOL    HW135787   3.759   0.510   0.322  1.9280  2.1344 -1.4579
11651SOL    HW235788   3.676   0.590   0.419 -0.3745 -2.3819  0.5954
11652SOL     OW35789   1.326   4.588   2.784  0.2635  0.1846  0.3772
11652SOL    HW135790   1.240   4.628   2.799 -0.1623  0.4701 -2.2394
11652SOL    HW235791   1.388   4.656   2.808 -0.3246  0.7685  0.2777
11653SOL     OW35792   0.592   0.545   2.979  0.6534  0.2893 -0.2597
11653SOL    HW135793   0.675   0.593   2.970  0.4960  0.5658 -0.2278
11653SOL    HW235794   0.525   0.613   2.986  0.4736  0.0694  0.2003
11654SOL     OW35795   4.833   7.525   6.126 -1.0658  0.3239 -0.6854
11654SOL    HW135796   4.762   7.554   6.183 -0.9657  0.4999 -0.6483
11654SOL    HW235797   4.814   7.566   6.041 -1.5677 -0.4621 -0.9603
11655SOL     OW35798   4.975   6.180   4.561  0.2521  0.0173  0.2785
11655SOL    HW135799   4.935   6.102   4.601 -1.7811 -0.3518 -2.1810
11655SOL    HW235800   4.923   6.253   4.595 -1.1668 -0.2497 -1.2153
11656SOL     OW35801   0.927   3.022   5.175 -0.3539 -0.4949  0.3353
11656SOL    HW135802   0.976   2.977   5.106 -0.0846 -1.5628  1.1862
11656SOL    HW235803   0.840   2.982   5.174 -1.0029  0.8621 -0.6597
11657SOL     OW35804   6.559   2.603   1.375  0.4503 -0.9406 -0.3988
11657SOL    HW135805   6.584   2.689   1.408  0.5062 -1.4802  1.0145
11657SOL    HW235806   6.564   2.545   1.451 -0.6863 -1.9771 -1.0749
11658SOL     OW35807   6.855   5.639   4.259 -0.1648 -1.0768 -0.1812
11658SOL    HW135808   6.905   5.561   4.235 -1.7336 -1.7376 -1.5096
11658SOL    HW235809   6.797   5.608   4.330  0.2040 -0.7268  0.2777
11659SOL     OW35810   1.601   0.362   5.236 -0.6077 -0.2194  0.2030
11659SOL    HW135811   1.599   0.425   5.307 -1.1369 -2.2141  2.0629
11659SOL    HW235812   1.600   0.277   5.279  0.7694 -1.5491 -2.1548
11660SOL     OW35813   3.873   0.021   5.498 -0.2077  0.1730  0.0593
11660SOL    HW135814   3.856  -0.073   5.501  0.5269 -0.0088 -0.7632
11660SOL    HW235815   3.790   0.060   5.470 -0.7901 -0.1224  1.3305
11661SOL     OW35816   6.887   2.661   0.900  0.2104 -0.5214 -0.3369
11661SOL    HW135817   6.932   2.679   0.983 -1.1450 -0.5279  0.4318
11661SOL    HW235818   6.937   2.590   0.861 -0.0107 -1.5768  1.2232
11662SOL     OW35819   0.693   2.999   0.423 -0.7385  0.3326 -0.0539
11662SOL    HW135820   0.740   2.945   0.359 -1.1264 -0.2043  0.1132
11662SOL    HW235821   0.690   3.086   0.382  1.1289  0.6089  0.2998
11663SOL     OW35822   1.470   0.664   1.489  0.0369  0.1472 -0.0627
11663SOL    HW135823   1.480   0.630   1.577  2.0310  0.1056 -0.2431
11663SOL    HW235824   1.519   0.747   1.489 -1.7484  1.2653 -0.5738
11664SOL     OW35825   3.586   2.020   3.126  0.5088  0.3634  0.6541
11664SOL    HW135826   3.556   2.073   3.052  0.2723  2.2202  2.0180
11664SOL    HW235827   3.536   1.939   3.120  1.0601  0.1311 -1.6456
11665SOL     OW35828   1.864   5.553   3.781  0.7173  0.1657  0.2098
11665SOL    HW135829   1.868   5.490   3.853 -1.2189  0.3105  0.5093
11665SOL    HW235830   1.863   5.499   3.702  1.0194 -0.0730  0.3659
11666SOL     OW35831   2.058   0.731   3.597  0.0277 -0.3582 -0.4602
11666SOL    HW135832   1.972   0.689   3.604 -0.4978  0.6200 -0.8709
11666SOL    HW235833   2.083   0.749   3.688 -1.0477  0.9885 -0.3970
11667SOL     OW35834   5.647   6.007   4.950 -0.2214  0.0972 -0.4435
11667SOL    HW135835   5.703   5.932   4.974 -1.4897 -0.3184  1.4731
11667SOL    HW235836   5.558   5.976   4.967 -0.7439  2.2948  1.2780
11668SOL     OW35837   2.155   2.033   1.471 -0.4650 -0.0194 -0.2171
11668SOL    HW135838   2.122   1.983   1.396 -1.5224 -0.4242  0.4878
11668SOL    HW235839   2.095   2.010   1.543 -1.5302  2.8633 -0.0407
11669SOL     OW35840   1.486   1.505   6.307 -0.3046  0.2529 -0.2894
11669SOL    HW135841   1.521   1.466   6.387 -2.5794 -0.9372  0.2217
11669SOL    HW235842   1.537   1.465   6.237  0.1260 -0.5590  0.4672
11670SOL     OW35843   3.302   6.985   5.710  0.5966  0.2906 -0.0784
11670SOL    HW135844   3.342   7.035   5.782 -0.8294  1.7409 -0.2250
11670SOL    HW235845   3.376   6.948   5.662  1.6326  0.6706  1.1838
11671SOL     OW35846   7.607   5.513   6.841 -0.1238 -0.5051 -0.1219
11671SOL    HW135847   7.611   5.548   6.752 -0.5654 -1.2865 -0.4557
11671SOL    HW235848   7.650   5.580   6.895  0.8922 -0.4014 -1.0293
11672SOL     OW35849   3.856   2.436   5.743  0.6097  0.2520 -0.0395
11672SOL    HW135850   3.795   2.365   5.766  1.4162 -0.1599  0.9175
11672SOL    HW235851   3.815   2.515   5.779 -0.1077  0.2310 -0.7742
11673SOL     OW35852   5.708   2.335   0.041  0.2090  0.4472 -0.6497
11673SOL    HW135853   5.632   2.392   0.035  0.3185  0.4981 -1.5690
11673SOL    HW235854   5.775   2.377  -0.013 -0.5863 -1.9104 -3.7145
11674SOL     OW35855   4.245   3.965   3.002 -0.2953 -0.5799  0.1251
11674SOL    HW135856   4.259   4.040   2.943  0.3731 -1.9254 -1.5094
11674SOL    HW235857   4.151   3.949   2.997 -0.4505  0.1449  0.5125
11675SOL     OW35858   4.599   3.903   5.765 -0.0862 -0.4781  0.3896
11675SOL    HW135859   4.694   3.902   5.778  0.1881 -1.2153 -1.3436
11675SOL    HW235860   4.562   3.899   5.853  1.4850 -0.1644  1.0932
11676SOL     OW35861   0.017   0.361   1.574  0.0092 -0.5013  0.0333
11676SOL    HW135862  -0.033   0.383   1.653 -0.8896 -1.0072 -0.3824
11676SOL    HW235863   0.092   0.311   1.607 -0.9481 -1.6837  0.4914
11677SOL     OW35864   1.085   3.032   7.005 -0.6470  0.2524 -0.0816
11677SOL    HW135865   1.062   3.108   6.951  2.1096  0.4791 -1.1303
11677SOL    HW235866   1.125   3.070   7.084 -1.9792 -0.1222  0.8011
11678SOL     OW35867   6.167   0.172   1.391  0.2344 -0.1852  0.3519
11678SOL    HW135868   6.227   0.204   1.323  0.0780  1.2864  0.8609
11678SOL    HW235869   6.117   0.103   1.348  1.3580 -0.5097 -0.4909
11679SOL     OW35870   2.290   2.877   7.297  0.3175  0.5574 -0.3970
11679SOL    HW135871   2.290   2.903   7.205  1.6562  0.5154 -0.4293
11679SOL    HW235872   2.299   2.782   7.295 -1.5667  0.3488 -0.2341
11680SOL     OW35873   0.891   5.489   4.127  0.0393 -0.0717 -0.4016
11680SOL    HW135874   0.823   5.500   4.193  0.9303  0.8112  0.3984
11680SOL    HW235875   0.906   5.394   4.124 -1.0594 -0.2590 -0.4483
11681SOL     OW35876   4.548   5.647   0.386  0.1135 -0.0539  0.1738
11681SOL    HW135877   4.512   5.619   0.301 -2.3451  1.6408  0.5290
11681SOL    HW235878   4.578   5.567   0.427  0.8749 -0.9878 -2.0775
11682SOL     OW35879   2.747   5.864   7.323 -0.2309 -0.2204  0.5653
11682SOL    HW135880   2.814   5.797   7.311  0.5107  0.7908 -1.3280
11682SOL    HW235881   2.666   5.824   7.290  0.1809 -0.2409 -0.4426
11683SOL     OW35882   3.238   0.206   0.803  0.2849  0.2324 -0.4016
11683SOL    HW135883   3.177   0.207   0.729  0.8443  0.1979 -0.8665
11683SOL    HW235884   3.260   0.298   0.816  0.0562  0.2558 -0.1619
11684SOL     OW35885   6.166   6.193   4.167 -0.5137  0.3575 -0.2284
11684SOL    HW135886   6.145   6.214   4.076 -0.0627 -0.3664 -0.5012
11684SOL    HW235887   6.114   6.255   4.218 -0.3693  1.1245 -0.9891
11685SOL     OW35888   2.820   2.446   2.937 -0.1956  0.3341 -0.0136
11685SOL    HW135889   2.785   2.404   3.016  1.9103 -1.1142  0.2234
11685SOL    HW235890   2.910   2.469   2.960  0.6660 -0.6471 -2.1382
11686SOL     OW35891   4.794   5.460   6.377 -0.0986  0.4789  0.2158
11686SOL    HW135892   4.739   5.405   6.433  0.6179  2.0757  2.6632
11686SOL    HW235893   4.867   5.402   6.352  0.3767  0.1021  2.2902
11687SOL     OW35894   1.012   5.344   1.553 -0.2027  0.1726  0.3721
11687SOL    HW135895   1.080   5.276   1.554 -1.0143 -0.7314 -1.4797
11687SOL    HW235896   1.024   5.388   1.469 -1.7419  0.1504  0.1175
11688SOL     OW35897   0.012   7.236   4.454 -0.6791 -0.5052 -0.2297
11688SOL    HW135898   0.017   7.331   4.463  1.2393 -0.7038  1.3562
11688SOL    HW235899  -0.062   7.210   4.509 -2.1276  0.1119 -1.7627
11689SOL     OW35900   3.008   5.180   3.724  0.4529  0.4171 -0.1813
11689SOL    HW135901   3.056   5.160   3.803 -0.3001  0.7953  0.3866
11689SOL    HW235902   2.935   5.236   3.753 -0.9575 -1.0010 -0.8367
11690SOL     OW35903   0.150   4.662   6.658 -0.2092  0.4992  0.2690
11690SOL    HW135904   0.071   4.608   6.650 -0.1586  0.2303  1.4778
11690SOL    HW235905   0.120   4.751   6.635 -1.0553  0.5368  1.4268
11691SOL     OW35906   6.377   2.221   4.926 -0.2634  0.3948 -0.5566
11691SOL    HW135907   6.364   2.316   4.921  0.3633  0.4813 -0.5311
11691SOL    HW235908   6.467   2.210   4.956 -0.1313 -0.2092 -1.1385
11692SOL     OW35909   4.944   7.335   1.033 -0.0943 -0.0951  0.4759
11692SOL    HW135910   4.964   7.307   1.122  0.5605 -0.7149  0.1371
11692SOL    HW235911   4.853   7.367   1.038 -0.5367 -1.3988  1.0615
11693SOL     OW35912   0.805   4.242   5.349 -0.8812  0.8211  0.4792
11693SOL    HW135913   0.872   4.223   5.284 -0.8121 -0.1098  0.7994
11693SOL    HW235914   0.773   4.329   5.327  0.0497  1.0509 -0.0084
11694SOL     OW35915   4.310   5.373   7.259  0.9024  0.0397 -0.1719
11694SOL    HW135916   4.219   5.402   7.266  1.8758  3.2986  0.7226
11694SOL    HW235917   4.319   5.347   7.168 -0.7282  0.4649 -0.5019
11695SOL     OW35918   4.819   1.605   3.573  0.6737  0.0331  0.0455
11695SOL    HW135919   4.734   1.635   3.542  0.5077  0.5436  0.9624
11695SOL    HW235920   4.863   1.572   3.494 -0.3252 -0.1475 -0.4528
11696SOL     OW35921   0.277   6.633   1.370 -0.1736  0.3779  0.3918
11696SOL    HW135922   0.357   6.642   1.317 -0.1360 -0.1072  0.3592
11696SOL    HW235923   0.259   6.539   1.370 -1.6314  0.6252 -0.9038
11697SOL     OW35924   7.124   2.687   5.979  0.1533 -0.4169 -0.2611
11697SOL    HW135925   7.107   2.610   6.034 -1.4112  0.5564  0.6943
11697SOL    HW235926   7.106   2.656   5.890  1.0004 -1.5424 -0.0640
11698SOL     OW35927   0.449   5.823   6.296 -0.1173  0.6353 -0.4623
11698SOL    HW135928   0.400   5.822   6.378 -0.3484  2.3334 -0.5382
11698SOL    HW235929   0.539   5.841   6.322 -0.3410  2.0562 -0.6197
11699SOL     OW35930   4.518   2.566   4.536  0.2198 -0.1159  0.3333
11699SOL    HW135931   4.457   2.583   4.463  0.2474 -0.5393  0.2065
11699SOL    HW235932   4.465   2.518   4.600 -0.1001  1.2042  1.0785
11700SOL     OW35933   0.035   1.662   0.576  0.1692  0.0207  0.0438
11700SOL    HW135934   0.005   1.608   0.649 -0.6380 -1.7348 -1.4987
11700SOL    HW235935   0.129   1.670   0.588  0.3981 -2.2046  0.0646
11701SOL     OW35936   0.536   1.296   0.661  0.4938  0.5297  0.0863
11701SOL    HW135937   0.488   1.314   0.742  1.1752 -1.7358  1.0820
11701SOL    HW235938   0.620   1.341   0.672  0.6851  0.0230  0.8039
11702SOL     OW35939   0.260   5.965   3.636  0.2201 -0.7301 -0.0383
11702SOL    HW135940   0.303   5.885   3.667 -1.7963 -1.2207  1.7454
11702SOL    HW235941   0.284   6.031   3.701 -0.4108 -0.6355  0.1119
11703SOL     OW35942   5.166   2.317   7.784 -0.0088  0.2645  0.1056
11703SOL    HW135943   5.256   2.284   7.792 -0.8247 -1.6430  2.4115
11703SOL    HW235944   5.169   2.374   7.707  2.6767 -1.4072 -1.1938
11704SOL     OW35945   2.196   2.073   5.377  0.6364  0.0788 -0.3487
11704SOL    HW135946   2.246   1.992   5.381  0.5094  0.0557  1.0057
11704SOL    HW235947   2.188   2.091   5.283  0.7962 -1.3854 -0.6682
11705SOL     OW35948   5.634   2.412   0.836  0.0130  0.1941 -0.1754
11705SOL    HW135949   5.636   2.389   0.929  0.6901 -0.0909 -0.2570
11705SOL    HW235950   5.718   2.455   0.820  0.1407 -0.2785 -0.7911
11706SOL     OW35951   4.348   4.427   5.676  0.1254 -0.0696 -0.0295
11706SOL    HW135952   4.380   4.473   5.754  3.0034 -2.1757  0.1632
11706SOL    HW235953   4.328   4.339   5.707 -1.3392 -0.1863 -1.2020
11707SOL     OW35954   5.858   2.194   0.220  0.1501 -0.4012 -0.2336
11707SOL    HW135955   5.892   2.246   0.292 -0.6269 -0.0377 -0.1244
11707SOL    HW235956   5.826   2.259   0.156 -0.2737 -0.7302 -0.3608
11708SOL     OW35957   3.924   7.937   2.692  0.2605  0.3741  0.0533
11708SOL    HW135958   3.858   7.917   2.626 -0.3832  0.8840  0.5255
11708SOL    HW235959   3.894   8.018   2.732  0.7598  0.1911  0.8247
11709SOL     OW35960   7.824   3.760   5.950  0.1331  0.5520  0.5458
11709SOL    HW135961   7.830   3.810   5.869  0.7421 -0.2677  0.0676
11709SOL    HW235962   7.915   3.747   5.978 -0.0472  0.3295  1.0469
11710SOL     OW35963   1.119   5.802   6.900 -0.4523  0.2613  0.7807
11710SOL    HW135964   1.115   5.776   6.808  0.2029 -0.4410  0.9378
11710SOL    HW235965   1.048   5.865   6.910 -1.8054 -1.1359  0.2561
11711SOL     OW35966   1.769   7.315   6.881 -0.0905 -0.0725  0.4180
11711SOL    HW135967   1.851   7.301   6.928  1.0484  0.8537 -1.1687
11711SOL    HW235968   1.707   7.254   6.920  1.5077 -1.1653  1.3183
11712SOL     OW35969   4.086   3.578   2.965  0.1365 -0.5200 -0.1743
11712SOL    HW135970   4.074   3.586   2.870 -1.4091  1.7881  0.1450
11712SOL    HW235971   4.175   3.610   2.981  0.6108 -1.4264 -0.8523
11713SOL     OW35972   1.733   3.800   1.686  0.6637 -0.5194 -0.1272
11713SOL    HW135973   1.651   3.759   1.711  0.4038  0.5466  0.8686
11713SOL    HW235974   1.757   3.854   1.762  1.2817  0.6758 -1.1328
11714SOL     OW35975   3.357   5.840   7.922 -0.5788 -0.5681  0.2609
11714SOL    HW135976   3.341   5.798   8.006 -1.1125  0.0328  0.4673
11714SOL    HW235977   3.437   5.799   7.889  0.5482  0.3052  1.7976
11715SOL     OW35978   0.941   6.988   6.499  0.1271  0.0379  1.0064
11715SOL    HW135979   0.994   7.045   6.555  1.8509  0.4064 -0.8894
11715SOL    HW235980   0.935   7.034   6.416 -1.3001 -1.0494  0.4621
11716SOL     OW35981   7.145   7.222   6.868  0.1205  1.0880 -0.1209
11716SOL    HW135982   7.104   7.252   6.787  0.0471 -1.1804 -1.0102
11716SOL    HW235983   7.111   7.281   6.935 -3.1117  0.5822 -1.1006
11717SOL     OW35984   7.287   4.765   5.287 -0.5685 -0.5563  0.2390
11717SOL    HW135985   7.267   4.803   5.202  0.1707 -1.4715 -0.3619
11717SOL    HW235986   7.336   4.685   5.267  0.6935 -0.1595  1.5333
11718SOL     OW35987   0.573   2.166   3.186 -0.4453  0.3881 -0.1406
11718SOL    HW135988   0.560   2.095   3.123  0.0310  0.4882 -0.3571
11718SOL    HW235989   0.664   2.191   3.175  0.1030 -0.6317  1.6981
11719SOL     OW35990   6.672   3.435   6.669 -0.3265  0.1460  0.1649
11719SOL    HW135991   6.595   3.492   6.668 -1.0641 -0.8148 -1.6088
11719SOL    HW235992   6.695   3.428   6.762 -1.3370  1.8106  0.5769
11720SOL     OW35993   0.017   0.402   0.664 -0.3198 -0.1508  0.2962
11720SOL    HW135994   0.038   0.437   0.577  0.2136 -1.9725 -0.3468
11720SOL    HW235995  -0.001   0.310   0.649  0.0663 -0.5714  2.1812
11721SOL     OW35996   1.550   1.168   3.391  0.1808 -0.1029 -0.0843
11721SOL    HW135997   1.551   1.073   3.391  0.7927 -0.1087  0.2729
11721SOL    HW235998   1.476   1.192   3.337 -0.2125 -0.7860  0.1391
11722SOL     OW35999   1.546   2.432   2.074 -0.0047 -0.6042  0.7212
11722SOL    HW136000   1.537   2.411   1.981 -0.4210 -0.5891  0.7548
11722SOL    HW236001   1.509   2.357   2.119  1.8947 -1.4745  0.9302
11723SOL     OW36002   5.735   5.334   7.696  0.1393 -0.6739 -0.2271
11723SOL    HW136003   5.806   5.395   7.673  0.6531 -1.2420 -0.1960
11723SOL    HW236004   5.723   5.281   7.617  0.4878 -1.2745  0.1101
11724SOL     OW36005   6.507   3.645   4.419 -0.2232  0.0749  0.1763
11724SOL    HW136006   6.467   3.697   4.489 -2.3952  1.0495 -1.6225
11724SOL    HW236007   6.504   3.703   4.343  1.7849 -1.0339 -0.8096
11725SOL     OW36008   1.193   1.226   7.426 -0.2305 -0.0815  0.8109
11725SOL    HW136009   1.209   1.312   7.387 -0.3496 -1.3338 -2.2931
11725SOL    HW236010   1.102   1.229   7.456 -0.4170  0.6946  0.1888
11726SOL     OW36011   1.580   6.404   2.765 -0.3088 -0.6357  0.0314
11726SOL    HW136012   1.593   6.382   2.673  0.0997 -0.8071  0.1300
11726SOL    HW236013   1.668   6.408   2.802 -0.4316  0.0175  0.2834
11727SOL     OW36014   1.939   3.773   0.373  0.1855  0.2957 -0.2994
11727SOL    HW136015   2.007   3.760   0.307 -0.0489 -0.0251 -0.4793
11727SOL    HW236016   1.987   3.797   0.452  0.4706  0.6621 -0.5799
11728SOL     OW36017   7.381   3.080   6.250 -0.7760  0.4441 -0.3985
11728SOL    HW136018   7.316   3.132   6.203 -2.7530 -1.8050 -0.3484
11728SOL    HW236019   7.342   2.993   6.256  1.2701 -0.4351  1.7000
11729SOL     OW36020   1.305   3.027   3.262  0.3264  0.3029  0.0675
11729SOL    HW136021   1.269   2.943   3.233  3.3246 -1.8770  2.0916
11729SOL    HW236022   1.329   3.072   3.181 -1.1591 -0.8633 -1.0678
11730SOL     OW36023   4.561   7.858   5.330 -0.0860 -0.5162  0.4027
11730SOL    HW136024   4.530   7.938   5.373  0.1539 -0.1484 -0.0990
11730SOL    HW236025   4.648   7.843   5.367 -0.5615 -1.1692  1.3073
11731SOL     OW36026   0.474   1.738   4.502 -0.0289 -0.6008 -0.5355
11731SOL    HW136027   0.523   1.657   4.517  0.0654 -0.3009  0.9125
11731SOL    HW236028   0.433   1.725   4.416 -0.2847 -2.3275 -0.1996
11732SOL     OW36029   5.709   7.272   1.184 -0.0260  0.7526  0.2991
11732SOL    HW136030   5.672   7.355   1.154  0.2028  0.4390 -0.9381
11732SOL    HW236031   5.653   7.205   1.145  0.1046  0.3142  0.8502
11733SOL     OW36032   5.354   4.826   4.741  0.6112  0.3608  0.1689
11733SOL    HW136033   5.365   4.797   4.651 -0.4998 -1.5413  0.5954
11733SOL    HW236034   5.401   4.760   4.793 -2.4847 -1.2132  1.2130
11734SOL     OW36035   0.708   3.560   0.757  0.5097 -0.0376  0.0624
11734SOL    HW136036   0.685   3.501   0.829 -0.6093 -1.1915 -1.1938
11734SOL    HW236037   0.665   3.523   0.680 -0.6968  2.7197 -0.7197
11735SOL     OW36038   5.928   0.590   2.868 -0.3488 -0.0640 -0.1177
11735SOL    HW136039   5.908   0.682   2.850 -1.9464  0.1153  2.0819
11735SOL    HW236040   5.875   0.569   2.946  1.0081 -2.4617  0.2612
11736SOL     OW36041   0.086   4.099   7.701  0.0550 -0.0007  0.0860
11736SOL    HW136042   0.007   4.136   7.740 -0.2046  0.2619 -0.6855
11736SOL    HW236043   0.059   4.066   7.616  0.4673 -1.2417  0.4131
11737SOL     OW36044   5.577   4.735   6.515 -0.2767  0.8524  0.1916
11737SOL    HW136045   5.510   4.781   6.464 -0.1086  0.9404  0.0488
11737SOL    HW236046   5.534   4.713   6.598 -1.1091 -0.8000 -0.6192
11738SOL     OW36047   2.522   4.534   5.225 -0.2492 -0.6004 -0.3078
11738SOL    HW136048   2.518   4.502   5.135  1.1030 -0.1703 -0.5477
11738SOL    HW236049   2.541   4.627   5.217 -0.1541 -0.5489  0.4198
11739SOL     OW36050   2.508   5.513   1.576 -0.2518  0.0435  0.2717
11739SOL    HW136051   2.454   5.587   1.549  0.5312  0.6403  0.3126
11739SOL    HW236052   2.515   5.521   1.671  1.6479  1.2200  0.0810
11740SOL     OW36053   4.467   7.565   5.361 -0.0820 -0.8531  0.3527
11740SOL    HW136054   4.503   7.651   5.340 -0.4470 -0.9547 -0.7299
11740SOL    HW236055   4.459   7.521   5.276 -0.9823 -1.5314  0.7766
11741SOL     OW36056   2.061   1.352   6.776 -0.0241  0.0917  0.2184
11741SOL    HW136057   2.017   1.431   6.808  0.5935  0.1970  0.8063
11741SOL    HW236058   2.080   1.301   6.854  0.0407 -0.4045 -0.1172
11742SOL     OW36059   0.253   7.679   6.843  0.1747 -0.3873 -0.4454
11742SOL    HW136060   0.324   7.731   6.806  1.4284 -1.9490 -0.3049
11742SOL    HW236061   0.240   7.716   6.930  1.1661 -0.4002 -0.2820
11743SOL     OW36062   5.741   1.102   3.336 -0.2965  0.1710 -0.5195
11743SOL    HW136063   5.834   1.077   3.331 -0.4304 -0.3318 -0.5383
11743SOL    HW236064   5.704   1.045   3.403 -0.5431  0.5436 -0.3342
11744SOL     OW36065   5.846   7.651   0.472 -0.7934  0.3416 -0.0522
11744SOL    HW136066   5.809   7.593   0.405  1.1523 -2.5703  1.2357
11744SOL    HW236067   5.831   7.605   0.555  0.8005  1.7043  1.0522
11745SOL     OW36068   3.097   7.338   2.640 -0.0860  0.2444 -0.0446
11745SOL    HW136069   3.132   7.361   2.726  1.0453 -1.0087 -0.1392
11745SOL    HW236070   3.009   7.376   2.639 -0.4830 -0.4898  2.0179
11746SOL     OW36071   2.046   6.795   2.263 -0.4989  0.3069 -0.2456
11746SOL    HW136072   2.077   6.748   2.340 -1.3747 -1.3567 -0.8677
11746SOL    HW236073   2.116   6.857   2.243 -0.0679  0.4624  1.6083
11747SOL     OW36074   1.821   0.351   5.692 -0.0157  0.2621  0.5627
11747SOL    HW136075   1.917   0.351   5.684 -0.0450  2.7745 -0.6369
11747SOL    HW236076   1.795   0.266   5.658  1.7713 -0.3848  0.6695
11748SOL     OW36077   3.483   2.902   1.796 -0.1011  0.1872  0.6606
11748SOL    HW136078   3.503   2.986   1.837 -1.4569  0.1938  1.3428
11748SOL    HW236079   3.421   2.924   1.726 -2.8021 -0.5122  2.6909
11749SOL     OW36080   0.407   2.100   1.411 -0.1593 -0.4243 -0.1418
11749SOL    HW136081   0.403   2.057   1.325  0.0432 -1.1935  0.2275
11749SOL    HW236082   0.421   2.029   1.473 -1.1049  0.0354  0.6238
11750SOL     OW36083   7.118   2.099   4.543 -0.5185 -0.4702  0.6050
11750SOL    HW136084   7.119   2.156   4.467 -1.1962  0.1133  1.0121
11750SOL    HW236085   7.100   2.158   4.617  1.1919 -0.8526  1.3684
11751SOL     OW36086   6.634   2.303   6.308  0.5707  0.1268  0.0555
11751SOL    HW136087   6.585   2.254   6.242 -1.8444 -0.6115  2.1970
11751SOL    HW236088   6.706   2.245   6.333 -1.0282 -1.5615  1.0480
11752SOL     OW36089   5.802   0.720   3.841 -0.4852  0.5440 -0.0758
11752SOL    HW136090   5.834   0.806   3.816  0.5696 -0.0946 -0.9855
11752SOL    HW236091   5.707   0.732   3.851 -0.1851  2.1914  1.5305
11753SOL     OW36092   4.805   2.332   0.982  0.2413 -0.2751  0.7997
11753SOL    HW136093   4.896   2.302   0.989  0.1242 -1.8135 -2.4286
11753SOL    HW236094   4.812   2.424   0.957  0.9415 -0.4273  0.3989
11754SOL     OW36095   1.565   6.296   6.301 -0.2669 -0.2756  0.0820
11754SOL    HW136096   1.495   6.241   6.266 -0.7824  0.7564 -0.5837
11754SOL    HW236097   1.520   6.375   6.332  0.5790  0.3874 -0.3175
11755SOL     OW36098   5.660   4.679   4.175 -0.2715 -0.3695 -0.2020
11755SOL    HW136099   5.622   4.594   4.196 -0.4137 -0.1907  0.2699
11755SOL    HW236100   5.598   4.718   4.112 -0.5376 -0.3490  0.0712
11756SOL     OW36101   0.691   3.243   2.200 -0.1228 -0.1961 -0.0357
11756SOL    HW136102   0.736   3.163   2.174  2.3183  0.8991  0.5502
11756SOL    HW236103   0.751   3.314   2.177 -1.4043  1.3466  1.0976
11757SOL     OW36104   3.638   3.169   4.851 -0.0568 -0.0311 -0.6658
11757SOL    HW136105   3.700   3.133   4.786 -0.2828 -0.4294 -0.6686
11757SOL    HW236106   3.671   3.137   4.935  1.2700  1.9603 -0.3673
11758SOL     OW36107   0.064   6.410   3.356 -0.3106  0.3213  0.8093
11758SOL    HW136108   0.090   6.332   3.405 -1.7157 -0.6670  0.0460
11758SOL    HW236109  -0.016   6.440   3.400  1.2941  2.6149  2.3901
11759SOL     OW36110   7.387   3.413   4.476 -0.5289  0.0782 -0.1796
11759SOL    HW136111   7.369   3.460   4.395  1.9971 -1.1454 -1.5516
11759SOL    HW236112   7.320   3.345   4.480 -0.9675  0.4539 -0.9743
11760SOL     OW36113   0.491   4.181   1.762  0.1450 -0.0168 -0.6249
11760SOL    HW136114   0.474   4.274   1.752  0.6867  0.2681  0.8497
11760SOL    HW236115   0.413   4.146   1.805  1.3186  0.4786  2.1246
11761SOL     OW36116   6.720   4.136   2.399  0.1182 -0.5911 -0.2860
11761SOL    HW136117   6.807   4.138   2.441 -0.5468 -0.5705  1.1533
11761SOL    HW236118   6.739   4.138   2.305  1.6727 -0.3608 -0.0005
11762SOL     OW36119   0.687   6.861   5.958 -0.3316  0.4893 -0.2662
11762SOL    HW136120   0.724   6.832   5.875 -0.4720 -0.5007  0.0069
11762SOL    HW236121   0.632   6.935   5.936  0.5961  1.0109 -0.8893
11763SOL     OW36122   4.970   3.141   4.157  0.1091  0.3171 -0.3243
11763SOL    HW136123   4.977   3.046   4.148  1.7032  0.2999  0.5938
11763SOL    HW236124   5.002   3.175   4.073 -0.4623  0.0491 -0.6555
11764SOL     OW36125   0.025   0.936   5.064  0.5122  0.3438 -0.5891
11764SOL    HW136126   0.079   0.908   4.991  0.2326 -3.0874  0.3685
11764SOL    HW236127  -0.060   0.955   5.025  0.4211 -1.2476 -1.2116
11765SOL     OW36128   6.028   6.315   7.450  0.3016  0.0048  0.1709
11765SOL    HW136129   6.047   6.239   7.505 -3.9233 -1.6384 -0.2244
11765SOL    HW236130   6.051   6.288   7.362  0.0681 -0.3166  0.2065
11766SOL     OW36131   2.344   6.601   1.700  0.2525 -0.2939  0.4549
11766SOL    HW136132   2.423   6.654   1.697  0.1747 -0.1762  0.4637
11766SOL    HW236133   2.286   6.647   1.761 -0.4109  0.4585 -0.6987
11767SOL     OW36134   2.910   5.871   2.737 -0.0529  0.5010 -0.1815
11767SOL    HW136135   2.991   5.842   2.694  0.5028  0.5821  0.7761
11767SOL    HW236136   2.918   5.838   2.827 -1.8537 -0.9352 -0.4995
11768SOL     OW36137   4.562   5.669   1.900  0.3607 -0.3905  0.3243
11768SOL    HW136138   4.601   5.639   1.818  1.9694  0.6968  0.6307
11768SOL    HW236139   4.614   5.626   1.968 -0.2702 -0.4577  0.7688
11769SOL     OW36140   0.322   3.265   0.033 -0.4329  0.7548  0.1172
11769SOL    HW136141   0.343   3.271  -0.060 -1.0737 -2.1923 -0.3018
11769SOL    HW236142   0.366   3.186   0.063 -3.3516 -0.5538  1.3382
11770SOL     OW36143   3.562   5.887   1.362  0.3496  0.3928 -0.4262
11770SOL    HW136144   3.540   5.901   1.270  0.3913  0.8731 -0.3655
11770SOL    HW236145   3.580   5.794   1.369 -0.3360  0.2249 -0.7664
11771SOL     OW36146   0.992   0.783   4.618 -0.2727  0.4162  0.2959
11771SOL    HW136147   0.981   0.771   4.712  1.2399  1.2540  0.6055
11771SOL    HW236148   1.058   0.852   4.610 -0.1601  0.1511 -1.3850
11772SOL     OW36149   0.666   5.394   2.442  0.2952 -0.0781  0.0348
11772SOL    HW136150   0.592   5.439   2.402 -0.1979 -0.4209  0.5524
11772SOL    HW236151   0.643   5.302   2.439  1.5910 -0.4037 -1.6243
11773SOL     OW36152   5.397   7.566   0.960 -0.0004  0.1770 -0.4277
11773SOL    HW136153   5.340   7.520   1.022  1.3424 -1.0315 -0.0342
11773SOL    HW236154   5.447   7.497   0.917  0.8004  1.1607 -1.1262
11774SOL     OW36155   6.135   7.455   5.562 -0.3910 -0.1540 -0.0621
11774SOL    HW136156   6.074   7.502   5.619 -1.7962 -1.7141 -0.1871
11774SOL    HW236157   6.202   7.519   5.540  0.0560  0.5997  3.0783
11775SOL     OW36158   6.970   1.975   2.128 -0.3546  0.0222  0.6534
11775SOL    HW136159   7.047   1.920   2.117 -0.1163  0.2439  1.1634
11775SOL    HW236160   6.997   2.042   2.191 -0.2922  1.3692 -0.7455
11776SOL     OW36161   4.919   5.267   2.772 -0.2887 -0.0943 -0.0072
11776SOL    HW136162   4.832   5.300   2.793 -0.1919  0.3108 -0.2276
11776SOL    HW236163   4.905   5.176   2.747 -0.2620 -1.0500  3.0282
11777SOL     OW36164   7.280   6.804   5.265 -0.0268 -0.1036  0.1998
11777SOL    HW136165   7.225   6.821   5.189  0.1610 -1.5586 -0.2911
11777SOL    HW236166   7.268   6.881   5.321 -0.5482  0.7686 -1.0627
11778SOL     OW36167   7.337   0.081   2.034  0.2051 -0.1403 -0.3481
11778SOL    HW136168   7.306   0.141   2.101  1.8875  0.6851 -0.2463
11778SOL    HW236169   7.288   0.000   2.049 -0.2062  0.3612  1.1988
11779SOL     OW36170   3.622   4.009   6.866  0.6377 -0.5061  0.2566
11779SOL    HW136171   3.577   3.928   6.890 -0.4075 -0.1939 -0.5697
11779SOL    HW236172   3.643   4.000   6.774  0.0682  0.3477  0.0264
11780SOL     OW36173   5.354   1.480   1.145 -0.3173  0.2220 -0.3934
11780SOL    HW136174   5.392   1.406   1.097  0.4059  0.8599 -0.8380
11780SOL    HW236175   5.330   1.543   1.076  0.2628  0.9346  0.0424
11781SOL     OW36176   4.107   4.287   1.257  0.0511 -0.9983  0.0213
11781SOL    HW136177   4.132   4.375   1.289  0.8940 -0.9860 -0.6280
11781SOL    HW236178   4.108   4.233   1.336  0.0266 -0.5255  0.3548
11782SOL     OW36179   0.609   0.940   7.615 -0.2214  0.1163  0.1288
11782SOL    HW136180   0.560   0.953   7.696 -0.3333  0.9194 -0.0576
11782SOL    HW236181   0.591   0.850   7.590 -0.2812 -0.1028  0.9325
11783SOL     OW36182   4.529   2.484   6.633 -0.1684 -0.0316 -0.4345
11783SOL    HW136183   4.532   2.406   6.578  0.1700  0.5936 -1.3274
11783SOL    HW236184   4.456   2.468   6.693 -0.1927 -0.9638 -0.6974
11784SOL     OW36185   5.669   0.089   7.857 -0.0896  0.8947  0.3071
11784SOL    HW136186   5.635   0.075   7.769  0.0223  0.7191  0.2914
11784SOL    HW236187   5.730   0.017   7.871  1.3953  1.9847 -0.2303
11785SOL     OW36188   2.282   5.499   5.822  0.0716 -0.1603 -0.1569
11785SOL    HW136189   2.213   5.435   5.836 -0.6773  0.8079  0.7542
11785SOL    HW236190   2.327   5.505   5.906  0.7539 -0.1813 -0.5112
11786SOL     OW36191   2.935   2.676   1.098 -0.4638 -0.2867  0.0440
11786SOL    HW136192   2.967   2.765   1.111 -0.9790 -0.0343 -0.3266
11786SOL    HW236193   2.977   2.647   1.017 -0.4292 -0.3105  0.0709
11787SOL     OW36194   4.594   1.061   3.624  0.2832 -0.3793 -0.3124
11787SOL    HW136195   4.575   1.130   3.688  0.0062 -0.2038 -0.5831
11787SOL    HW236196   4.634   0.991   3.676 -2.6733 -1.5202  0.6615
11788SOL     OW36197   7.493   4.950   7.764  0.1658  0.0193 -0.6154
11788SOL    HW136198   7.529   5.015   7.704 -0.1816  1.4445  0.6841
11788SOL    HW236199   7.568   4.895   7.788  0.6725  0.5525 -0.9474
11789SOL     OW36200   6.060   5.243   2.960  0.6547  1.3239  0.2189
11789SOL    HW136201   5.967   5.258   2.947 -0.0708 -1.9583  0.5988
11789SOL    HW236202   6.069   5.222   3.053  1.1980 -1.0224 -0.2750
11790SOL     OW36203   6.299   2.731   0.277 -0.2907  0.4803  0.3032
11790SOL    HW136204   6.259   2.814   0.253  0.5659  0.8814  0.2148
11790SOL    HW236205   6.255   2.666   0.222 -1.6829  0.7124  1.0937
11791SOL     OW36206   0.560   0.125   3.318  0.7213 -0.1555 -0.2722
11791SOL    HW136207   0.611   0.207   3.315 -0.3356  0.6834  2.1076
11791SOL    HW236208   0.521   0.125   3.406 -0.0456 -2.8021 -0.5464
11792SOL     OW36209   2.521   7.188   0.523 -0.8480 -0.1159  0.7718
11792SOL    HW136210   2.506   7.182   0.429  0.2376  0.7331  0.5252
11792SOL    HW236211   2.541   7.281   0.539 -1.5020 -0.1445  1.9218
11793SOL     OW36212   4.171   4.099   7.215  0.4247 -0.4166  0.1860
11793SOL    HW136213   4.214   4.027   7.261  3.0815  1.9263  1.6373
11793SOL    HW236214   4.107   4.133   7.278 -0.6197 -1.2502 -0.3904
11794SOL     OW36215   7.780   4.957   7.756  0.4250  0.1724  0.1705
11794SOL    HW136216   7.752   5.032   7.705  1.0662 -0.4780 -1.1816
11794SOL    HW236217   7.845   4.992   7.817 -0.4715  0.9822  0.6963
11795SOL     OW36218   4.593   3.483   5.940 -0.8161 -0.1063  0.5397
11795SOL    HW136219   4.556   3.401   5.909  2.1126 -1.4583  0.2670
11795SOL    HW236220   4.564   3.549   5.877 -1.2978 -1.3827 -0.6025
11796SOL     OW36221   1.933   5.567   0.906  0.0036  0.4064  0.1330
11796SOL    HW136222   1.896   5.652   0.929 -0.9214  0.0520  0.0183
11796SOL    HW236223   1.873   5.503   0.946  0.5788 -0.1867  0.0618
11797SOL     OW36224   3.594   3.883   4.203  0.5648  0.2339  0.0562
11797SOL    HW136225   3.679   3.904   4.163  1.2621 -1.9052  0.2408
11797SOL    HW236226   3.530   3.899   4.134  1.4199 -0.5571 -0.9598
11798SOL     OW36227   4.911   5.881   6.259  0.1721  0.0718 -0.1199
11798SOL    HW136228   4.931   5.793   6.228  0.3968  0.3759 -0.8570
11798SOL    HW236229   4.818   5.878   6.283 -0.3653  0.1646 -2.0637
11799SOL     OW36230   4.106   5.466   6.321  0.7248 -0.5211  0.3022
11799SOL    HW136231   4.166   5.529   6.281  1.9213 -2.7446 -1.6029
11799SOL    HW236232   4.044   5.445   6.251 -1.2900  0.3771  1.6988
11800SOL     OW36233   5.173   3.668   3.542  0.5851 -0.2898 -0.5002
11800SOL    HW136234   5.267   3.658   3.526  1.2344  2.6001  0.9393
11800SOL    HW236235   5.148   3.745   3.491 -0.6690 -0.1917  0.2284
11801SOL     OW36236   7.113   5.021   6.834 -0.5102 -0.6055 -0.1261
11801SOL    HW136237   7.165   5.001   6.912  0.4378  0.3691 -0.4888
11801SOL    HW236238   7.042   5.077   6.866 -1.5985 -2.2185  0.4289
11802SOL     OW36239   1.952   3.254   7.352 -0.3974 -0.4622  0.5791
11802SOL    HW136240   2.022   3.209   7.401  1.1050  1.2161  0.0803
11802SOL    HW236241   1.919   3.320   7.413 -0.3125 -0.0888  0.2221
11803SOL     OW36242   7.289   3.158   5.212  0.5876 -0.5985  0.0468
11803SOL    HW136243   7.251   3.070   5.222  2.6649 -1.5087  0.5237
11803SOL    HW236244   7.366   3.157   5.269  0.6539  1.5560  0.0529
11804SOL     OW36245   5.244   6.441   1.007 -0.6753  0.3166 -0.3563
11804SOL    HW136246   5.278   6.353   1.024  2.2294  0.9541 -2.0532
11804SOL    HW236247   5.231   6.479   1.094 -0.0888 -1.1198  0.4010
11805SOL     OW36248   2.651   4.860   3.387 -0.0342 -0.2129 -0.3606
11805SOL    HW136249   2.710   4.930   3.414 -1.3061  0.4009  0.9569
11805SOL    HW236250   2.603   4.897   3.312 -0.7255  0.3685  0.3520
11806SOL     OW36251   3.641   1.614   6.768  0.0770  0.0892 -0.3019
11806SOL    HW136252   3.669   1.591   6.856  0.3380  1.3074 -0.0518
11806SOL    HW236253   3.693   1.691   6.745  1.1524 -1.0837 -2.1399
11807SOL     OW36254   2.528   0.613   2.524 -0.2903 -0.7653  0.4544
11807SOL    HW136255   2.572   0.552   2.583  0.7739  0.6750  1.2040
11807SOL    HW236256   2.599   0.654   2.474 -0.7176  1.4185  1.4983
11808SOL     OW36257   5.325   0.708   1.752  0.7587  0.1629 -0.6173
11808SOL    HW136258   5.343   0.674   1.664 -1.5615 -0.3414 -0.9742
11808SOL    HW236259   5.235   0.681   1.769  1.6076 -1.0670  2.5568
11809SOL     OW36260   3.567   7.449   2.397 -0.2508  0.4889  0.5020
11809SOL    HW136261   3.556   7.380   2.331 -1.0424 -0.2461  1.3908
11809SOL    HW236262   3.651   7.429   2.438  0.1345  0.8157 -0.1001
11810SOL     OW36263   2.849   7.194   6.875 -0.2829  0.6805  0.6221
11810SOL    HW136264   2.799   7.142   6.937 -1.0130 -0.4341 -0.8445
11810SOL    HW236265   2.785   7.251   6.833  0.0450  0.8080  0.2807
11811SOL     OW36266   4.303   7.107   4.023  0.4390 -0.0729  0.0190
11811SOL    HW136267   4.315   7.146   3.937 -0.2818  0.3280  0.0912
11811SOL    HW236268   4.213   7.130   4.048  0.6532 -0.1461  0.8983
11812SOL     OW36269   7.290   6.381   3.588  0.1158 -0.4691  0.8766
11812SOL    HW136270   7.223   6.406   3.652  0.0204 -1.7204  1.2882
11812SOL    HW236271   7.367   6.363   3.641  0.3729 -0.3931  0.5301
11813SOL     OW36272   2.120   1.080   2.081 -0.5998  0.4376  0.1182
11813SOL    HW136273   2.190   1.131   2.042  0.4372 -2.3696 -2.0801
11813SOL    HW236274   2.146   1.069   2.173  0.3280  1.8173  0.0363
11814SOL     OW36275   3.280   3.228   7.230 -0.5529  0.1601  0.2690
11814SOL    HW136276   3.257   3.136   7.229 -0.8481  0.2253  0.9607
11814SOL    HW236277   3.235   3.265   7.154  1.0732 -0.6039 -1.1586
11815SOL     OW36278   1.710   1.908   3.003  0.2626  0.6406 -0.7054
11815SOL    HW136279   1.792   1.860   3.013  0.3039  0.8422  0.0116
11815SOL    HW236280   1.641   1.841   3.009  0.3649  0.5150 -0.9556
11816SOL     OW36281   0.786   6.989   2.055 -0.1813 -0.0345 -0.2465
11816SOL    HW136282   0.757   7.057   1.995  1.0965  0.2531 -0.5779
11816SOL    HW236283   0.741   6.910   2.025 -1.4576  0.5891 -0.0330
11817SOL     OW36284   6.158   6.330   3.309 -0.0759  0.0024 -0.7374
11817SOL    HW136285   6.162   6.404   3.249 -2.0403  0.3949 -0.4374
11817SOL    HW236286   6.092   6.354   3.374 -0.6226 -1.9309 -0.5097
11818SOL     OW36287   2.885   5.351   4.996 -0.2181 -1.0074  0.4277
11818SOL    HW136288   2.848   5.262   4.999 -3.3070  0.1003 -1.0534
11818SOL    HW236289   2.878   5.377   4.904  2.5255  0.1376  0.4327
11819SOL     OW36290   4.170   6.634   3.130  0.2094  0.2287 -0.7217
11819SOL    HW136291   4.130   6.554   3.163 -0.3080 -0.4418 -2.8074
11819SOL    HW236292   4.264   6.622   3.147 -0.1648  0.8043  2.1473
11820SOL     OW36293   6.606   1.134   6.083  0.4480  0.5389 -0.0953
11820SOL    HW136294   6.643   1.080   6.013  0.0117 -0.1687  0.2066
11820SOL    HW236295   6.518   1.156   6.052 -0.3271 -1.0331  0.8419
11821SOL     OW36296   4.661   5.910   2.496 -0.2234  0.7846  0.4756
11821SOL    HW136297   4.723   5.838   2.509  1.1481  1.8281 -0.0045
11821SOL    HW236298   4.620   5.922   2.581  0.8993  0.6450  1.0554
11822SOL     OW36299   3.748   5.800   2.694 -0.1562  0.5234 -0.2016
11822SOL    HW136300   3.764   5.732   2.628 -1.0684  0.9939 -0.9278
11822SOL    HW236301   3.820   5.790   2.756  0.4854 -0.2171 -1.0323
11823SOL     OW36302   0.966   5.451   6.923  0.7670 -0.8868  0.2598
11823SOL    HW136303   1.057   5.476   6.936  0.9353 -1.2125 -0.2631
11823SOL    HW236304   0.950   5.467   6.830 -0.0783  0.3416  0.5928
11824SOL     OW36305   3.706   3.058   3.779  0.3942 -0.3007  0.1397
11824SOL    HW136306   3.723   2.995   3.709  0.1661 -0.7606  0.4962
11824SOL    HW236307   3.657   3.128   3.736  1.6273  0.1901 -0.5107
11825SOL     OW36308   7.858   5.726   4.079 -0.3968 -0.1394 -0.6818
11825SOL    HW136309   7.801   5.803   4.088 -0.0039  0.2178 -1.2257
11825SOL    HW236310   7.919   5.748   4.009  1.9463  0.4369  1.3794
11826SOL     OW36311   4.560   5.722   4.079 -0.1363 -0.6050  0.0772
11826SOL    HW136312   4.651   5.734   4.108  0.1867 -1.0398 -0.7148
11826SOL    HW236313   4.518   5.676   4.151  0.2873 -0.4601  0.4237
11827SOL     OW36314   1.204   3.363   5.560 -0.1709  0.1339 -0.3869
11827SOL    HW136315   1.125   3.360   5.614 -1.1568  0.9524 -1.7047
11827SOL    HW236316   1.262   3.424   5.606 -0.8390  0.5422 -0.0696
11828SOL     OW36317   0.138   0.467   3.913 -0.0593 -0.1796  0.2183
11828SOL    HW136318   0.131   0.373   3.895  0.2309 -0.2495  0.4588
11828SOL    HW236319   0.074   0.483   3.983 -0.0713 -0.2090  0.2141
11829SOL     OW36320   1.039   7.390   1.515 -0.4331  0.1585  0.0225
11829SOL    HW136321   1.013   7.450   1.585  1.6208 -0.1292  1.1430
11829SOL    HW236322   0.974   7.319   1.518  1.3623 -1.6848  4.1700
11830SOL     OW36323   4.230   0.936   2.530 -0.2898 -0.5170  0.2052
11830SOL    HW136324   4.141   0.956   2.502  0.4993  0.8444 -1.5664
11830SOL    HW236325   4.281   0.935   2.448  1.3834 -0.8532  1.2088
11831SOL     OW36326   1.764   6.587   2.318  0.3751 -0.1059  0.3696
11831SOL    HW136327   1.749   6.493   2.307 -0.7811  0.1325 -0.1445
11831SOL    HW236328   1.765   6.600   2.413  0.4419 -0.6136  0.4398
11832SOL     OW36329   4.146   7.630   3.373  0.1837  0.1015 -0.0548
11832SOL    HW136330   4.162   7.724   3.387  0.5216  0.0690 -0.2227
11832SOL    HW236331   4.227   7.597   3.337 -0.1208 -0.1491 -0.5182
11833SOL     OW36332   6.335   0.788   2.499 -0.4381 -0.5005 -0.2578
11833SOL    HW136333   6.375   0.712   2.457 -0.3676 -0.6859  0.1343
11833SOL    HW236334   6.291   0.752   2.576 -1.4096 -0.3089 -0.7121
11834SOL     OW36335   3.711   0.439   2.615  0.3836 -0.2672 -0.3504
11834SOL    HW136336   3.756   0.464   2.535  0.3025 -1.1990 -0.7072
11834SOL    HW236337   3.734   0.507   2.678  2.1698 -0.6177 -0.5592
11835SOL     OW36338   0.977   7.530   3.682  0.0711  0.1953 -0.5625
11835SOL    HW136339   0.967   7.516   3.588  0.0988 -0.3081 -0.4935
11835SOL    HW236340   0.936   7.453   3.722 -3.0413  1.9573 -0.0532
11836SOL     OW36341   2.721   3.419   2.856  0.0609  0.2505 -0.6893
11836SOL    HW136342   2.748   3.491   2.913 -0.5792 -0.3756  0.4407
11836SOL    HW236343   2.660   3.459   2.794  1.1432  1.0384 -1.2724
11837SOL     OW36344   1.818   2.145   3.805  0.1140  0.0036 -0.2446
11837SOL    HW136345   1.865   2.158   3.723  2.0984  0.3364  0.8887
11837SOL    HW236346   1.844   2.218   3.860 -0.3321 -0.7713  1.0423
11838SOL     OW36347   4.344   3.964   2.410  0.4067 -0.1739 -0.6691
11838SOL    HW136348   4.324   4.055   2.436 -1.5662 -0.8284  0.3270
11838SOL    HW236349   4.279   3.943   2.343  0.4492 -1.0552 -0.4452
11839SOL     OW36350   6.097   0.647   0.318  0.2374  0.7385 -0.0906
11839SOL    HW136351   6.113   0.555   0.341 -1.7501  0.8472  2.2034
11839SOL    HW236352   6.160   0.696   0.371 -1.2579  0.7811  1.7644
11840SOL     OW36353   3.283   6.675   7.254 -0.1766 -0.4218  0.6455
11840SOL    HW136354   3.373   6.652   7.230 -0.2560 -1.4065  1.2178
11840SOL    HW236355   3.266   6.757   7.208  1.2390  0.1336  1.0559
11841SOL     OW36356   0.341   1.515   7.087  0.2480  0.1669 -0.0821
11841SOL    HW136357   0.401   1.578   7.047  0.7289  0.1002  0.5320
11841SOL    HW236358   0.254   1.554   7.073  0.4214  0.2205 -1.0440
11842SOL     OW36359   4.692   4.553   4.601  0.0949 -0.2581  0.6177
11842SOL    HW136360   4.703   4.546   4.696 -3.2712  0.5010  1.2040
11842SOL    HW236361   4.661   4.642   4.587  0.3600 -0.4154 -1.1839
11843SOL     OW36362   2.238   5.913   3.116  0.0653 -0.2019 -0.1749
11843SOL    HW136363   2.250   5.957   3.032 -0.9493 -0.4080 -0.4385
11843SOL    HW236364   2.268   5.978   3.181 -1.6968  1.0670 -0.5386
11844SOL     OW36365   0.197   4.675   2.588 -0.4796  0.3254  0.1066
11844SOL    HW136366   0.143   4.732   2.533  0.1140 -0.1771 -1.0433
11844SOL    HW236367   0.141   4.652   2.662 -0.6371  2.6133  0.7741
11845SOL     OW36368   5.563   7.773   6.572 -0.3197 -0.4081  0.1565
11845SOL    HW136369   5.641   7.799   6.621  0.1765 -0.4606 -0.5788
11845SOL    HW236370   5.490   7.801   6.626  0.2127  0.7443  0.3095
11846SOL     OW36371   0.824   0.692   3.023 -0.2331 -0.2377 -0.2092
11846SOL    HW136372   0.900   0.744   2.996 -1.4050  2.7911  1.7658
11846SOL    HW236373   0.861   0.622   3.076  1.2868  0.3904 -0.3716
11847SOL     OW36374   3.877   0.561   6.105 -0.7003 -0.2722 -0.4092
11847SOL    HW136375   3.842   0.585   6.190  0.1159  0.7807 -0.3559
11847SOL    HW236376   3.970   0.541   6.121 -0.3841  0.5434 -1.1353
11848SOL     OW36377   5.871   1.005   5.136  0.1003 -0.3383 -0.1301
11848SOL    HW136378   5.925   0.984   5.060 -0.4582  1.2298 -1.0138
11848SOL    HW236379   5.795   0.947   5.129  0.0313 -0.1718 -0.7958
11849SOL     OW36380   2.207   3.104   7.875 -0.4744  0.5109  0.0333
11849SOL    HW136381   2.198   3.017   7.835  0.3194 -1.0475  2.9679
11849SOL    HW236382   2.117   3.134   7.886 -0.8276 -0.4869  0.0344
11850SOL     OW36383   6.075   3.200   6.947 -0.1853  0.2583  0.2892
11850SOL    HW136384   6.027   3.152   7.014 -0.2037  1.6482  1.3266
11850SOL    HW236385   6.008   3.224   6.882 -0.5417  0.5120  0.7416
11851SOL     OW36386   2.897   6.694   1.345  0.0090  0.4087 -0.4269
11851SOL    HW136387   2.822   6.743   1.309 -0.0784  1.1753  0.7613
11851SOL    HW236388   2.889   6.703   1.440  1.0183 -0.4086 -0.2462
11852SOL     OW36389   0.954   7.838   7.935 -0.2445 -0.1641  0.0570
11852SOL    HW136390   0.934   7.835   7.841 -1.4783  0.7663  0.2693
11852SOL    HW236391   0.890   7.779   7.975 -2.1352  2.0891  0.6356
11853SOL     OW36392   4.615   2.759   0.363  0.3441 -0.3259 -0.3450
11853SOL    HW136393   4.664   2.688   0.321  0.0264 -1.1058  0.5767
11853SOL    HW236394   4.620   2.831   0.301  0.5512 -1.1997 -1.3747
11854SOL     OW36395   1.706   0.425   1.231  0.1961 -0.0709  0.5653
11854SOL    HW136396   1.722   0.384   1.316  1.4032 -0.7318  0.0534
11854SOL    HW236397   1.786   0.473   1.212 -0.7768  1.6628  0.6292
11855SOL     OW36398   6.299   0.159   0.633 -0.6040  0.2128  0.8732
11855SOL    HW136399   6.269   0.073   0.663 -1.2240 -0.1352 -0.6551
11855SOL    HW236400   6.234   0.220   0.667 -0.2647  0.0873  1.8052
11856SOL     OW36401   4.618   2.096   4.624 -0.2100  0.2625 -0.5536
11856SOL    HW136402   4.642   2.021   4.571  0.9039 -0.3045  0.6978
11856SOL    HW236403   4.659   2.080   4.709  0.1640  2.3355 -0.2769
11857SOL     OW36404   1.800   0.169   1.388 -0.3724 -0.0414 -0.4904
11857SOL    HW136405   1.888   0.158   1.353 -0.4986  1.2456 -1.2596
11857SOL    HW236406   1.745   0.112   1.334 -0.4657  1.4489 -2.0424
11858SOL     OW36407   7.785   2.317   4.776 -0.0041 -0.5694  0.0941
11858SOL    HW136408   7.855   2.370   4.815  0.1429 -0.1649 -0.7104
11858SOL    HW236409   7.707   2.371   4.783  0.4320  0.4265 -2.0989
11859SOL     OW36410   6.936   2.759   7.599  0.2605 -0.3937 -0.3847
11859SOL    HW136411   6.846   2.782   7.620 -0.1727 -1.9735 -0.4131
11859SOL    HW236412   6.938   2.750   7.504  0.2709 -1.0390 -0.3269
11860SOL     OW36413   0.879   7.793   4.927 -0.2642  0.1724 -0.1744
11860SOL    HW136414   0.875   7.725   4.995 -0.7818 -1.9636 -2.1954
11860SOL    HW236415   0.788   7.823   4.918 -0.1573  0.6214  0.2195
11861SOL     OW36416   3.748   1.582   3.902  0.6387 -0.5571 -0.5821
11861SOL    HW136417   3.711   1.524   3.969  1.9624  0.1293  0.7926
11861SOL    HW236418   3.807   1.527   3.852  1.4423 -0.5466  0.3409
11862SOL     OW36419   3.608   3.723   0.215 -0.0869 -0.7652 -0.0243
11862SOL    HW136420   3.557   3.667   0.273  0.5241 -1.0565  0.2306
11862SOL    HW236421   3.549   3.796   0.194  0.8657  1.4731  4.0168
11863SOL     OW36422   3.049   5.862   3.494 -0.0025  0.2993 -0.0720
11863SOL    HW136423   3.140   5.890   3.500  0.4319 -1.3321  2.0146
11863SOL    HW236424   3.014   5.877   3.582 -1.0358 -1.3257 -0.1670
11864SOL     OW36425   2.566   2.543   7.514  0.0846  0.4675 -0.2110
11864SOL    HW136426   2.556   2.528   7.420  0.6849  2.0290 -0.5635
11864SOL    HW236427   2.492   2.498   7.554  0.4889 -1.2516 -1.3089
11865SOL     OW36428   5.665   6.311   7.577 -0.3988 -0.0188  0.3259
11865SOL    HW136429   5.708   6.236   7.537 -0.3753  0.2965 -0.2481
11865SOL    HW236430   5.624   6.276   7.656 -0.0822 -0.5590  0.2539
11866SOL     OW36431   1.482   2.770   7.432 -0.0163 -0.2702 -0.2870
11866SOL    HW136432   1.437   2.796   7.512  0.9392  0.3424  0.0620
11866SOL    HW236433   1.546   2.839   7.416 -0.3512 -0.2563 -1.7208
11867SOL     OW36434   2.297   1.216   4.603  0.4503  0.2271  0.0269
11867SOL    HW136435   2.256   1.185   4.684 -2.0597  0.5642 -1.0138
11867SOL    HW236436   2.306   1.310   4.614 -1.3337  0.5091 -0.6052
11868SOL     OW36437   1.129   6.471   7.685 -0.3851  0.0907 -0.0896
11868SOL    HW136438   1.053   6.513   7.644 -0.4140  0.2913  0.1645
11868SOL    HW236439   1.119   6.489   7.778  0.3674  0.7842 -0.1279
11869SOL     OW36440   3.779   5.034   3.958 -0.4387  0.1719  0.0998
11869SOL    HW136441   3.753   4.951   3.998 -1.8515  1.2037  1.4366
11869SOL    HW236442   3.711   5.096   3.984 -0.5688  1.3140 -2.5916
11870SOL     OW36443   5.429   0.671   3.091  0.4794  0.2220 -0.0243
11870SOL    HW136444   5.451   0.624   3.172  1.7133  1.1709  0.2221
11870SOL    HW236445   5.335   0.690   3.099 -0.1527 -2.4441 -0.2970
11871SOL     OW36446   0.484   7.271   2.699 -0.3024  0.0187 -0.0344
11871SOL    HW136447   0.565   7.280   2.648  0.1745 -1.4714  0.3894
11871SOL    HW236448   0.496   7.329   2.774 -0.0470  0.5428 -0.4759
11872SOL     OW36449   1.060   7.352   2.175 -0.2488  0.4418  0.1968
11872SOL    HW136450   1.076   7.261   2.148 -0.2133  0.6910 -0.6321
11872SOL    HW236451   1.057   7.348   2.271  0.8049 -0.2724  0.2217
11873SOL     OW36452   0.340   1.977   0.037 -0.4343 -0.3712  0.4822
11873SOL    HW136453   0.389   1.953   0.116 -0.0747  0.1409  0.4210
11873SOL    HW236454   0.293   2.057   0.061 -3.4950 -2.2783  1.4442
11874SOL     OW36455   4.296   4.172   5.765 -0.0319  0.0433 -0.2779
11874SOL    HW136456   4.293   4.084   5.728 -1.7601  0.6396 -1.7293
11874SOL    HW236457   4.352   4.164   5.843  1.3037 -1.9205 -1.3494
11875SOL     OW36458   2.228   4.093   2.563  0.3576  0.2309  0.0078
11875SOL    HW136459   2.192   4.180   2.544  0.2203  0.4381  1.1661
11875SOL    HW236460   2.229   4.088   2.659 -0.4889 -1.4083 -0.0461
11876SOL     OW36461   5.755   4.328   6.634  0.1122  0.1432 -0.3608
11876SOL    HW136462   5.791   4.252   6.680 -0.4025 -1.2258 -2.1086
11876SOL    HW236463   5.660   4.318   6.641  0.0311  0.2154 -1.2043
11877SOL     OW36464   4.020   7.939   5.019 -0.1489 -0.5656  0.4132
11877SOL    HW136465   3.949   7.988   5.061  0.1443 -0.0559  0.3216
11877SOL    HW236466   3.976   7.886   4.953 -0.3216  0.8177 -0.6351
11878SOL     OW36467   5.976   2.076   6.368  0.4608  0.2423 -0.0284
11878SOL    HW136468   6.008   2.140   6.431  3.1950 -1.2575  0.2513
11878SOL    HW236469   6.055   2.042   6.326 -1.0139 -1.5985 -1.4999
11879SOL     OW36470   6.401   5.484   3.596  0.0356  0.3812  0.3124
11879SOL    HW136471   6.339   5.427   3.550 -1.0355  2.1507 -0.5694
11879SOL    HW236472   6.478   5.485   3.540 -0.8714  1.6915 -1.0037
11880SOL     OW36473   2.457   5.842   3.826  0.1023  0.4397 -0.4713
11880SOL    HW136474   2.437   5.919   3.773 -0.1493  0.7811  0.1099
11880SOL    HW236475   2.526   5.797   3.778 -0.6064  0.3567 -1.4503
11881SOL     OW36476   6.036   2.021   6.838 -0.0305  0.0399 -0.1010
11881SOL    HW136477   6.117   2.005   6.886 -0.8301 -0.8177  1.0240
11881SOL    HW236478   6.057   2.002   6.747  0.4278 -2.6895  0.4776
11882SOL     OW36479   1.636   0.886   6.016 -0.1405 -0.5522 -0.0990
11882SOL    HW136480   1.563   0.945   6.000  1.8151  1.8756 -0.7115
11882SOL    HW236481   1.660   0.901   6.107  1.4553  1.0399 -0.7225
11883SOL     OW36482   5.067   6.025   0.986 -0.7814  0.3395 -0.4858
11883SOL    HW136483   5.100   5.950   0.935 -2.1397 -0.2396 -0.5452
11883SOL    HW236484   5.084   6.101   0.931  2.9257  0.4865  0.5839
11884SOL     OW36485   4.939   1.775   6.445 -0.5297 -0.2665 -0.3751
11884SOL    HW136486   5.000   1.848   6.455 -0.6126 -0.1256 -0.8671
11884SOL    HW236487   4.893   1.793   6.363  0.8483 -1.8763 -1.5840
11885SOL     OW36488   6.918   4.402   5.883 -0.4494 -0.1715  0.1347
11885SOL    HW136489   6.928   4.340   5.811 -1.7372 -0.1136 -0.1302
11885SOL    HW236490   6.908   4.347   5.961  3.0162 -0.2416  0.6841
11886SOL     OW36491   6.384   0.537   2.368  0.6340 -0.0686 -0.6257
11886SOL    HW136492   6.479   0.537   2.357  0.6575  1.9059 -0.8538
11886SOL    HW236493   6.351   0.574   2.286 -0.4350 -1.8110 -1.0185
11887SOL     OW36494   6.425   4.250   7.271  0.4076 -0.5961  0.0225
11887SOL    HW136495   6.434   4.156   7.286  1.0278 -0.5404  0.0201
11887SOL    HW236496   6.486   4.269   7.200  0.9639 -0.0369  0.6372
11888SOL     OW36497   5.896   3.957   7.786  0.1887  0.6437  0.4443
11888SOL    HW136498   5.925   4.042   7.754  0.1048  0.5173  0.0267
11888SOL    HW236499   5.877   3.906   7.707  0.1002  0.2854  0.6911
11889SOL     OW36500   1.544   1.906   2.699 -0.4254  0.6332  0.2695
11889SOL    HW136501   1.631   1.895   2.659  0.6395  0.5853  2.4690
11889SOL    HW236502   1.536   1.832   2.759 -2.7442 -0.3039 -1.0893
11890SOL     OW36503   3.364   3.152   7.739  0.8414 -0.1712 -0.1734
11890SOL    HW136504   3.449   3.182   7.709  1.2176 -0.4404  0.6023
11890SOL    HW236505   3.370   3.056   7.739  0.6877 -0.1848  0.2798
11891SOL     OW36506   7.494   2.769   7.097 -0.1142  0.3816 -0.1357
11891SOL    HW136507   7.447   2.691   7.067  0.0595 -0.4461  1.6592
11891SOL    HW236508   7.468   2.780   7.188  0.5865  1.8845 -0.0907
11892SOL     OW36509   5.514   6.561   4.535 -0.0894 -0.0286  0.3581
11892SOL    HW136510   5.465   6.620   4.592 -0.1565 -1.1206  1.4717
11892SOL    HW236511   5.544   6.617   4.463 -1.5202  1.0064  0.5223
11893SOL     OW36512   1.964   7.362   0.871  0.3110  0.0580 -0.0471
11893SOL    HW136513   2.022   7.286   0.865 -2.8567 -2.5757 -0.1507
11893SOL    HW236514   1.931   7.359   0.961  0.8401  1.9755  0.2524
11894SOL     OW36515   3.166   5.114   0.069 -0.0719  0.1287  0.2011
11894SOL    HW136516   3.177   5.191   0.125  0.4556 -0.2304  0.6037
11894SOL    HW236517   3.143   5.149  -0.017 -2.3687  0.6483  0.9734
11895SOL     OW36518   4.925   7.356   7.535  0.1593 -0.5218 -0.3162
11895SOL    HW136519   5.013   7.339   7.501 -0.2273 -0.7437 -1.2121
11895SOL    HW236520   4.870   7.366   7.458 -0.3329  1.1386  0.2192
11896SOL     OW36521   6.673   6.436   7.580  0.3944  0.6314 -0.8122
11896SOL    HW136522   6.633   6.372   7.638 -2.1433  2.3405 -0.5265
11896SOL    HW236523   6.744   6.475   7.633 -0.6527  0.8349  0.5007
11897SOL     OW36524   5.791   0.278   4.478 -0.2078  0.2114 -0.1466
11897SOL    HW136525   5.762   0.317   4.560 -0.5712  0.7897 -0.5415
11897SOL    HW236526   5.834   0.197   4.504 -2.1221 -0.6501  0.4673
11898SOL     OW36527   3.509   5.088   2.081  0.0957  0.4306 -0.3772
11898SOL    HW136528   3.578   5.025   2.101  0.8140  1.7211  1.4793
11898SOL    HW236529   3.429   5.035   2.077  0.9387 -0.8542 -0.9423
11899SOL     OW36530   7.914   4.490   4.464 -0.0764 -0.2770  0.1347
11899SOL    HW136531   7.973   4.538   4.522 -1.1069  2.0215 -0.5672
11899SOL    HW236532   7.955   4.496   4.377 -0.3980 -0.3291 -0.0241
11900SOL     OW36533   0.298   4.108   0.116 -0.3904  0.5430 -0.1307
11900SOL    HW136534   0.257   4.184   0.157  1.5129  1.9489 -0.6621
11900SOL    HW236535   0.349   4.067   0.186  1.6271  2.0500 -0.6178
11901SOL     OW36536   2.460   5.205   0.429 -0.0775  0.4093 -0.2941
11901SOL    HW136537   2.432   5.119   0.459  0.5012  0.6801  1.1227
11901SOL    HW236538   2.541   5.188   0.380  0.2699  0.1721  0.3472
11902SOL     OW36539   5.354   1.429   4.292  0.3807  0.1080  0.5350
11902SOL    HW136540   5.272   1.443   4.338  0.1475  0.3407  0.0529
11902SOL    HW236541   5.396   1.515   4.289  0.8108 -0.0766  1.0941
11903SOL     OW36542   3.372   0.640   3.929 -0.8312 -0.0720  0.3714
11903SOL    HW136543   3.438   0.653   3.997 -1.4203  3.2811  0.4717
11903SOL    HW236544   3.388   0.552   3.897  3.9243  0.5841  0.1979
11904SOL     OW36545   2.339   3.328   1.044  0.4143  0.3807 -0.4725
11904SOL    HW136546   2.277   3.370   1.105  1.0647 -0.5602  0.8688
11904SOL    HW236547   2.348   3.392   0.973  0.1191  1.8159  0.7111
11905SOL     OW36548   1.926   5.818   6.491 -0.4311  0.2229  0.4038
11905SOL    HW136549   1.859   5.776   6.436  1.5207 -1.5065 -0.7981
11905SOL    HW236550   1.937   5.905   6.453  0.1967 -0.6076 -1.4286
11906SOL     OW36551   5.103   6.841   3.733  0.1256  0.4952  0.1838
11906SOL    HW136552   5.149   6.785   3.796 -0.3458 -0.5765 -0.4060
11906SOL    HW236553   5.079   6.919   3.784  0.7051  0.1280  1.0469
11907SOL     OW36554   7.156   1.767   1.531 -0.0993  0.1266 -0.3550
11907SOL    HW136555   7.246   1.763   1.564 -0.5871 -1.0181  0.9487
11907SOL    HW236556   7.126   1.676   1.533 -1.5957  0.6072  0.1847
11908SOL     OW36557   2.033   1.402   0.352  0.1164  0.0114  0.3710
11908SOL    HW136558   2.112   1.415   0.300  0.1548  1.3341  0.7209
11908SOL    HW236559   1.962   1.434   0.297  0.0365  0.4015  0.6891
11909SOL     OW36560   6.058   2.679   4.672  0.5052 -0.1994  0.2735
11909SOL    HW136561   5.995   2.631   4.726 -1.2484  0.9800 -0.6110
11909SOL    HW236562   6.017   2.764   4.658  1.7092  0.1439 -1.4501
11910SOL     OW36563   4.110   1.683   0.939 -0.5029  0.6667 -0.0557
11910SOL    HW136564   4.132   1.718   1.025  0.8409 -0.1376 -0.0575
11910SOL    HW236565   4.038   1.739   0.908 -0.1278  1.7771  1.0222
11911SOL     OW36566   2.319   6.734   0.708  0.2022 -0.1186 -0.0875
11911SOL    HW136567   2.236   6.686   0.706  0.0930  0.0224  0.7589
11911SOL    HW236568   2.300   6.815   0.659 -0.0278 -0.2815 -0.2752
11912SOL     OW36569   6.513   6.406   5.725 -0.2626  0.5539  0.1444
11912SOL    HW136570   6.561   6.344   5.671  0.0813  1.3576 -0.4902
11912SOL    HW236571   6.433   6.359   5.750  0.2344 -0.3210  0.1158
11913SOL     OW36572   4.924   1.820   0.683 -0.0397 -0.4704 -0.3605
11913SOL    HW136573   4.836   1.788   0.701  0.0284 -1.2721 -1.3879
11913SOL    HW236574   4.982   1.749   0.713  0.4561  1.0204  2.6490
11914SOL     OW36575   2.487   7.512   6.193 -0.4160  0.1529  0.2718
11914SOL    HW136576   2.457   7.528   6.283  0.7235  1.4097  0.4573
11914SOL    HW236577   2.569   7.562   6.186  0.5087 -1.4399 -0.8790
11915SOL     OW36578   0.239   5.877   1.128  0.2007 -0.2509  0.5300
11915SOL    HW136579   0.252   5.806   1.192 -1.0138 -0.7796  0.2139
11915SOL    HW236580   0.224   5.955   1.182  0.5242 -0.4206  0.8772
11916SOL     OW36581   5.072   5.194   1.611  0.1031 -0.0758  0.5700
11916SOL    HW136582   5.114   5.116   1.648  0.0733 -1.0915 -1.4461
11916SOL    HW236583   4.981   5.168   1.597  0.3875 -0.1369 -1.3032
11917SOL     OW36584   4.839   6.618   4.267  0.4459  0.3451  0.4174
11917SOL    HW136585   4.926   6.603   4.303  0.9769 -0.6079 -1.1556
11917SOL    HW236586   4.854   6.632   4.173 -0.8994  2.3599  0.4513
11918SOL     OW36587   4.362   3.528   0.096 -0.9633  0.7225 -0.2121
11918SOL    HW136588   4.377   3.461   0.030  2.8447  2.0304 -0.8895
11918SOL    HW236589   4.418   3.503   0.169 -1.4688  1.8144  0.5722
11919SOL     OW36590   3.652   2.032   3.987 -0.0108 -0.0868  0.7439
11919SOL    HW136591   3.617   1.951   3.949  0.3213  0.7073 -1.4286
11919SOL    HW236592   3.575   2.076   4.023 -0.6090 -0.2397 -0.3006
11920SOL     OW36593   0.224   2.523   2.583  0.3304 -0.0047  0.0673
11920SOL    HW136594   0.215   2.533   2.677 -0.3701 -0.7828  0.0914
11920SOL    HW236595   0.199   2.608   2.547 -0.2574  0.0255  0.5385
11921SOL     OW36596   2.688   2.489   7.036 -0.0971  0.0790  0.3253
11921SOL    HW136597   2.671   2.447   6.952  1.4229  0.9190 -0.4575
11921SOL    HW236598   2.783   2.498   7.040 -0.1942  0.9356  1.7011
11922SOL     OW36599   4.721   3.227   5.150  0.1127 -0.1491 -0.0144
11922SOL    HW136600   4.780   3.229   5.225  0.4932  0.1316 -0.3189
11922SOL    HW236601   4.658   3.297   5.167 -0.3284 -0.6523  0.4628
11923SOL     OW36602   2.779   3.554   3.289  0.0874  0.9629 -0.3882
11923SOL    HW136603   2.749   3.565   3.199  0.9021  1.5696 -0.6069
11923SOL    HW236604   2.739   3.626   3.337  0.3286  1.1434 -0.4537
11924SOL     OW36605   3.639   3.580   4.320 -0.3510  0.2007 -0.1712
11924SOL    HW136606   3.632   3.675   4.336 -0.5680 -0.1876  2.5078
11924SOL    HW236607   3.731   3.560   4.339 -0.3827 -0.1883 -0.4324
11925SOL     OW36608   4.124   2.021   5.717  0.0280  0.3202 -0.3821
11925SOL    HW136609   4.110   2.090   5.781 -0.8334 -0.3786  0.1933
11925SOL    HW236610   4.192   1.965   5.756  1.4777  1.3561 -1.2932
11926SOL     OW36611   2.030   4.944   3.405  0.3233  0.1808 -0.3632
11926SOL    HW136612   2.078   4.991   3.338  2.2583 -1.9609 -0.6093
11926SOL    HW236613   2.091   4.877   3.436 -1.7198 -1.1685  1.0197
11927SOL     OW36614   4.900   6.757   1.107  0.0155  0.3490 -0.0877
11927SOL    HW136615   4.952   6.696   1.159  1.0781  1.3582  0.0832
11927SOL    HW236616   4.859   6.702   1.040 -1.0973 -0.9097  1.5535
11928SOL     OW36617   6.356   7.804   0.090 -0.0780 -0.7061  0.1505
11928SOL    HW136618   6.423   7.831   0.027 -1.1792  0.1521 -0.6786
11928SOL    HW236619   6.280   7.858   0.070 -1.3445 -2.2842  0.4853
11929SOL     OW36620   4.259   3.481   2.051  0.1321  0.8720 -0.6521
11929SOL    HW136621   4.199   3.533   2.106  0.5663 -0.1936  0.8928
11929SOL    HW236622   4.339   3.533   2.048  0.5072  0.4230  0.7507
11930SOL     OW36623   7.939   3.227   0.748  0.1051 -0.3321 -0.1608
11930SOL    HW136624   7.922   3.247   0.656  1.3616 -0.7288 -0.5038
11930SOL    HW236625   7.936   3.132   0.754  0.2064 -0.3193  0.1652
11931SOL     OW36626   2.431   3.813   0.705  0.1475  0.1450  0.4028
11931SOL    HW136627   2.384   3.791   0.786 -1.6808 -0.3097 -0.7039
11931SOL    HW236628   2.397   3.750   0.641 -1.5668  2.9566 -1.6949
11932SOL     OW36629   5.239   1.938   5.212  0.2198 -0.4665 -0.2772
11932SOL    HW136630   5.290   1.930   5.293 -0.0708  0.1566 -0.0256
11932SOL    HW236631   5.148   1.933   5.240  0.1219 -0.5123 -0.5949
11933SOL     OW36632   1.644   4.125   7.307  0.0446  0.3952 -0.6532
11933SOL    HW136633   1.669   4.042   7.349  0.7639  1.0231  0.1953
11933SOL    HW236634   1.727   4.170   7.291 -0.3939  1.5250  0.1266
11934SOL     OW36635   6.343   0.912   3.605 -0.3614  0.0317  0.1094
11934SOL    HW136636   6.373   0.950   3.687  3.9630 -2.1452 -0.1523
11934SOL    HW236637   6.280   0.845   3.631 -0.9215  1.0099  1.3680
11935SOL     OW36638   1.049   7.590   3.363 -0.4364  0.2141  1.0496
11935SOL    HW136639   1.014   7.674   3.334 -0.2787 -0.7332 -2.3228
11935SOL    HW236640   1.144   7.603   3.366 -0.3907  0.1125  0.2485
11936SOL     OW36641   0.396   2.840   1.717  0.2506  0.5248 -0.0761
11936SOL    HW136642   0.469   2.854   1.657 -0.0878  1.6235 -0.2670
11936SOL    HW236643   0.343   2.772   1.676  1.4672 -0.7394  0.3690
11937SOL     OW36644   0.175   3.694   7.249 -0.0108 -0.4417  0.0948
11937SOL    HW136645   0.119   3.728   7.179 -1.2475  3.1306  2.5365
11937SOL    HW236646   0.261   3.686   7.209 -1.0976 -0.8685 -2.3805
11938SOL     OW36647   6.524   3.765   6.055  0.3826  0.1780 -0.4662
11938SOL    HW136648   6.599   3.803   6.101 -0.1259 -0.4073  0.9099
11938SOL    HW236649   6.557   3.745   5.968  2.2525 -1.3368  0.5178
11939SOL     OW36650   7.795   6.871   2.533  0.6369  0.3468 -0.2461
11939SOL    HW136651   7.753   6.954   2.556  2.8360  2.3060 -2.6073
11939SOL    HW236652   7.792   6.869   2.437 -0.1885 -2.8821 -0.2783
11940SOL     OW36653   7.670   3.457   2.490  0.4033 -0.1204 -0.0973
11940SOL    HW136654   7.707   3.446   2.402  0.5677 -2.3289  0.1883
11940SOL    HW236655   7.740   3.498   2.540  1.6716 -2.0245 -0.1838
11941SOL     OW36656   3.581   5.383   0.785 -0.3071  0.2103  0.2548
11941SOL    HW136657   3.609   5.468   0.819  0.0854  0.1399  0.1131
11941SOL    HW236658   3.577   5.327   0.862  1.2591 -0.1315  0.1087
11942SOL     OW36659   0.491   6.811   5.694  0.1156 -0.0516 -0.1269
11942SOL    HW136660   0.585   6.805   5.713 -0.0828  0.9503  1.3200
11942SOL    HW236661   0.485   6.805   5.598  1.7145  0.5958 -0.2927
11943SOL     OW36662   2.147   5.714   6.366 -0.2993 -0.7808 -0.1448
11943SOL    HW136663   2.073   5.751   6.413  0.4784 -0.5646  0.9449
11943SOL    HW236664   2.190   5.789   6.325  0.8245 -0.5202  1.4200
11944SOL     OW36665   5.813   3.013   4.747  0.1651  0.0910 -0.0840
11944SOL    HW136666   5.736   2.999   4.693 -0.2009  2.7564 -0.3737
11944SOL    HW236667   5.838   3.104   4.731  1.5275  0.2345  2.3267
11945SOL     OW36668   1.278   2.020   6.968 -0.5283  0.2336  0.2597
11945SOL    HW136669   1.333   1.963   6.915 -0.4275  0.8893 -0.3574
11945SOL    HW236670   1.243   2.084   6.906 -2.7393 -0.7023  0.4505
11946SOL     OW36671   4.058   2.101   2.697  0.3338  0.3839  0.5085
11946SOL    HW136672   4.144   2.104   2.741 -0.0023  1.4834  1.1513
11946SOL    HW236673   4.077   2.074   2.608  1.1589 -0.9720  1.0617
11947SOL     OW36674   4.879   3.043   7.613 -0.0596 -0.2287  0.1987
11947SOL    HW136675   4.790   3.078   7.609 -0.0472 -0.0210  1.2491
11947SOL    HW236676   4.902   3.023   7.522 -1.0701 -0.0225 -0.1137
11948SOL     OW36677   1.848   7.493   4.719 -0.3075  0.3768 -0.1894
11948SOL    HW136678   1.836   7.573   4.770  1.4111  1.0621 -0.8046
11948SOL    HW236679   1.942   7.477   4.720 -0.6229 -1.8885  0.2511
11949SOL     OW36680   4.881   3.566   5.833  0.1583 -0.4267 -0.4322
11949SOL    HW136681   4.919   3.604   5.912  0.4190  1.8471 -1.5807
11949SOL    HW236682   4.787   3.560   5.852  0.4558 -1.9597  0.7943
11950SOL     OW36683   1.010   3.121   4.469  0.0034  0.6715  0.0031
11950SOL    HW136684   0.963   3.141   4.388 -0.1863  0.9612  0.1837
11950SOL    HW236685   0.980   3.033   4.492 -1.0130  1.1346  0.5002
11951SOL     OW36686   1.549   4.640   7.791 -0.1590 -0.4587 -0.2976
11951SOL    HW136687   1.541   4.667   7.699 -0.8437  1.0510  0.1808
11951SOL    HW236688   1.496   4.703   7.839  0.1187 -1.2879  1.1416
11952SOL     OW36689   5.692   4.254   3.549 -0.6343 -0.2579 -0.2078
11952SOL    HW136690   5.676   4.216   3.636 -1.4409 -0.5701 -0.4851
11952SOL    HW236691   5.613   4.304   3.530 -0.9947 -1.1936 -1.2772
11953SOL     OW36692   7.658   0.871   1.493 -0.2618 -0.1359 -0.2076
11953SOL    HW136693   7.575   0.916   1.507 -0.4132 -0.2355 -0.7563
11953SOL    HW236694   7.679   0.889   1.401 -0.1888 -0.9490 -0.3542
11954SOL     OW36695   0.578   2.273   6.537  0.0717  0.1459 -0.4588
11954SOL    HW136696   0.636   2.248   6.465  1.1962 -0.0720  0.4882
11954SOL    HW236697   0.627   2.339   6.586  0.6238 -1.7928  1.7766
11955SOL     OW36698   0.444   5.303   0.497  0.4311 -0.4304  0.5862
11955SOL    HW136699   0.349   5.310   0.510  0.4964  1.8852  0.1365
11955SOL    HW236700   0.482   5.357   0.565  1.3716 -0.2272 -0.0857
11956SOL     OW36701   3.532   4.826   5.471  0.3714  0.1093 -0.2336
11956SOL    HW136702   3.487   4.742   5.459  0.9153  0.0247 -1.9859
11956SOL    HW236703   3.605   4.807   5.529  2.6787 -1.5603 -3.3968
11957SOL     OW36704   5.754   3.523   0.795 -0.5464 -0.0331 -0.0493
11957SOL    HW136705   5.662   3.534   0.818 -0.7086 -0.9149 -0.2299
11957SOL    HW236706   5.759   3.551   0.703  0.2978  4.4578  1.1505
11958SOL     OW36707   3.312   1.128   7.417 -0.0728  0.0997 -0.4002
11958SOL    HW136708   3.220   1.154   7.408 -0.3366 -1.1761 -1.7138
11958SOL    HW236709   3.359   1.186   7.357  0.0343  0.9178  0.4532
11959SOL     OW36710   6.978   5.519   6.806 -0.0574  0.3675 -0.5760
11959SOL    HW136711   6.968   5.494   6.714  0.4493 -0.1910 -0.4878
11959SOL    HW236712   6.895   5.496   6.847 -0.0033 -0.1225 -0.7344
11960SOL     OW36713   5.480   1.965   7.009  0.8829 -0.4375  0.4342
11960SOL    HW136714   5.438   1.997   6.929  0.2514 -2.6441 -0.1914
11960SOL    HW236715   5.570   1.945   6.982  0.5434 -1.6180  0.1118
11961SOL     OW36716   4.545   0.784   5.616  0.0412 -0.3131  0.4744
11961SOL    HW136717   4.637   0.807   5.605  0.0864  0.2193  1.7642
11961SOL    HW236718   4.507   0.859   5.662 -1.1295 -0.3537 -0.3764
11962SOL     OW36719   6.277   6.476   7.407 -0.2001 -0.1997 -0.1938
11962SOL    HW136720   6.350   6.488   7.467  0.5509 -1.0693 -0.9095
11962SOL    HW236721   6.204   6.521   7.449  1.3600  3.1116 -0.7115
11963SOL     OW36722   3.402   6.091   0.900 -0.2772 -0.0180  0.1266
11963SOL    HW136723   3.374   6.006   0.866 -1.0497  0.4211 -0.3617
11963SOL    HW236724   3.375   6.154   0.833  2.4343  0.4192 -0.6927
11964SOL     OW36725   6.587   0.790   2.641 -0.1318  0.0779 -0.2400
11964SOL    HW136726   6.586   0.848   2.717 -0.6681  1.4682 -1.2782
11964SOL    HW236727   6.506   0.810   2.594  0.8651  0.3288 -1.9505
11965SOL     OW36728   2.084   7.560   5.157 -0.0084  0.2161  0.0488
11965SOL    HW136729   2.137   7.481   5.163 -0.7756 -0.2939  0.2728
11965SOL    HW236730   2.127   7.613   5.090 -0.2663 -0.9935 -1.0876
11966SOL     OW36731   2.525   4.666   1.889 -0.0383 -0.4363  0.3317
11966SOL    HW136732   2.565   4.589   1.928  1.6769 -0.2376 -0.9154
11966SOL    HW236733   2.516   4.728   1.961  0.9992 -0.8569  0.8446
11967SOL     OW36734   1.329   0.194   7.455 -0.0851 -0.5357  0.7126
11967SOL    HW136735   1.278   0.121   7.490  0.2710 -1.4448 -0.5481
11967SOL    HW236736   1.267   0.244   7.402  0.1418 -1.2864 -0.3119
11968SOL     OW36737   7.148   0.941   2.664  0.6169 -0.2285  0.0856
11968SOL    HW136738   7.129   0.870   2.601 -2.0377  0.8385 -0.4662
11968SOL    HW236739   7.123   1.021   2.618  1.5941  0.9053  1.4385
11969SOL     OW36740   0.655   3.922   2.451 -0.4567  0.0331 -0.1308
11969SOL    HW136741   0.597   3.849   2.430 -2.6974  1.7077 -0.1622
11969SOL    HW236742   0.743   3.885   2.447 -1.4547 -2.4568 -0.8844
11970SOL     OW36743   0.762   5.027   0.735 -0.9131  0.3173 -0.3374
11970SOL    HW136744   0.750   5.118   0.762 -2.5585 -0.3441  1.4154
11970SOL    HW236745   0.674   4.997   0.711 -0.8435 -1.4056  1.3071
11971SOL     OW36746   5.954   7.213   4.985 -0.2170  0.6854 -0.0407
11971SOL    HW136747   5.898   7.242   5.057 -0.3615 -0.1367  0.1820
11971SOL    HW236748   5.903   7.232   4.906  0.4423  2.7619 -0.0473
11972SOL     OW36749   0.297   3.972   7.807  0.4638  0.4770 -0.3396
11972SOL    HW136750   0.283   3.998   7.898  1.3290  0.5463 -0.2182
11972SOL    HW236751   0.233   4.022   7.757 -0.5545 -0.1424  0.3035
11973SOL     OW36752   2.857   0.759   3.422  0.1984 -0.1480  0.2239
11973SOL    HW136753   2.928   0.715   3.376 -0.1683  1.0092 -1.5573
11973SOL    HW236754   2.825   0.695   3.485  2.1850 -1.0118  0.4102
11974SOL     OW36755   5.756   1.029   1.723 -0.1778 -0.0717 -0.0133
11974SOL    HW136756   5.720   1.087   1.790 -0.0679  0.1092 -0.1097
11974SOL    HW236757   5.685   1.019   1.659 -0.1967 -0.0421  0.0032
11975SOL     OW36758   7.247   3.749   4.664  0.3369  0.3439 -0.0559
11975SOL    HW136759   7.248   3.686   4.593 -0.7883  1.3266 -0.9840
11975SOL    HW236760   7.253   3.696   4.744 -1.0118 -0.9689 -0.7811
11976SOL     OW36761   6.118   1.041   4.786  0.3125  0.2021 -0.1889
11976SOL    HW136762   6.028   1.071   4.800 -0.2991 -0.0600 -2.9557
11976SOL    HW236763   6.114   0.947   4.804  0.7305  0.5804  2.2457
11977SOL     OW36764   3.422   2.371   3.914  0.1258  0.5286  0.0709
11977SOL    HW136765   3.474   2.450   3.903 -0.0461  0.8529  1.3527
11977SOL    HW236766   3.483   2.299   3.896  0.8962  0.9175  1.0181
11978SOL     OW36767   0.377   0.085   4.887  0.9476  0.2210 -0.2030
11978SOL    HW136768   0.397   0.135   4.808  0.2611  0.1944 -0.4043
11978SOL    HW236769   0.301   0.129   4.925  0.2235 -0.7470 -0.4745
11979SOL     OW36770   1.064   7.652   5.328  0.4978 -0.6418  0.4895
11979SOL    HW136771   1.023   7.587   5.384 -1.5588  1.6536  1.8473
11979SOL    HW236772   1.083   7.605   5.247 -0.3035 -3.0382  1.6044
11980SOL     OW36773   0.565   7.200   2.290 -0.4721 -0.1741  0.1721
11980SOL    HW136774   0.570   7.266   2.220 -0.1828 -0.2597  0.1105
11980SOL    HW236775   0.637   7.224   2.350  0.3028 -1.0526 -0.3895
11981SOL     OW36776   1.771   0.173   2.047 -0.2478 -0.0291  0.0943
11981SOL    HW136777   1.767   0.103   2.113 -0.0409  1.4925  1.8015
11981SOL    HW236778   1.831   0.237   2.084 -1.5061  1.7112 -0.7385
11982SOL     OW36779   6.405   0.375   4.971 -0.2070 -0.3165 -0.5639
11982SOL    HW136780   6.462   0.433   5.023 -0.6761  0.1281 -0.5440
11982SOL    HW236781   6.390   0.300   5.028  0.2192 -0.3600 -0.5022
11983SOL     OW36782   5.166   2.170   5.546 -0.3313  0.2871 -0.2145
11983SOL    HW136783   5.158   2.178   5.451 -1.3579 -0.6912 -0.2383
11983SOL    HW236784   5.134   2.081   5.565 -0.0467  0.4365  1.0313
11984SOL     OW36785   4.629   0.944   4.828  0.2235 -0.4066 -0.0353
11984SOL    HW136786   4.627   0.924   4.734  0.2287 -0.7912  0.0415
11984SOL    HW236787   4.564   1.013   4.839  0.5590 -0.0295 -0.3942
11985SOL     OW36788   6.231   7.852   0.703  0.0696 -0.3002  0.2160
11985SOL    HW136789   6.257   7.772   0.656  0.2899 -0.1666  0.1123
11985SOL    HW236790   6.138   7.838   0.722  0.4792 -1.2972  1.6357
11986SOL     OW36791   4.802   6.658   6.817  0.4377 -0.2125  0.6791
11986SOL    HW136792   4.869   6.594   6.842 -0.6245 -1.1811  1.1483
11986SOL    HW236793   4.792   6.646   6.722  2.1013  1.1305  0.2918
11987SOL     OW36794   3.772   4.472   3.961  0.0403 -0.0004  0.3533
11987SOL    HW136795   3.765   4.436   4.049  0.0361 -1.8796 -0.3640
11987SOL    HW236796   3.829   4.410   3.915 -0.2258  0.7642 -1.0565
11988SOL     OW36797   3.500   7.404   3.058  0.4398 -0.3036 -0.8679
11988SOL    HW136798   3.435   7.420   2.990 -1.3339  0.9011  1.0118
11988SOL    HW236799   3.553   7.484   3.061 -0.7135  0.4384  0.4146
11989SOL     OW36800   5.932   2.648   7.925  0.2638  0.3184 -0.1131
11989SOL    HW136801   5.867   2.683   7.986  0.2821 -0.3839  0.3058
11989SOL    HW236802   5.881   2.621   7.849 -0.1768 -1.8475  0.8996
11990SOL     OW36803   2.892   6.846   3.130 -0.2545  0.6008 -0.1940
11990SOL    HW136804   2.851   6.795   3.200  1.5571  0.6048  0.9235
11990SOL    HW236805   2.898   6.934   3.166  2.3421  0.2319  0.4470
11991SOL     OW36806   5.871   1.432   3.630  0.2935  0.2151  0.5556
11991SOL    HW136807   5.792   1.418   3.682  0.6602  0.3669  1.1680
11991SOL    HW236808   5.926   1.357   3.649  0.1750 -0.0488 -0.1148
11992SOL     OW36809   5.833   2.355   3.802  0.1758  0.3273 -0.3831
11992SOL    HW136810   5.887   2.294   3.750  0.8082  0.5911 -0.0503
11992SOL    HW236811   5.891   2.383   3.872 -1.3325 -1.8062  1.8873
11993SOL     OW36812   2.882   7.146   3.215 -0.2929 -0.1118 -0.7041
11993SOL    HW136813   2.916   7.183   3.297  0.4707 -0.1384 -1.0038
11993SOL    HW236814   2.932   7.191   3.147 -0.6226 -0.4094 -1.1417
11994SOL     OW36815   6.999   7.505   3.283 -0.6883  0.5756 -0.0481
11994SOL    HW136816   6.932   7.440   3.264 -1.5458  1.0233  1.2531
11994SOL    HW236817   6.950   7.581   3.316  0.4053  1.2263  0.1468
11995SOL     OW36818   5.267   4.727   7.120 -0.2184  0.1834  0.0710
11995SOL    HW136819   5.253   4.683   7.203 -1.2172  0.4230  0.0498
11995SOL    HW236820   5.286   4.657   7.058 -0.9130 -0.1372  0.2141
11996SOL     OW36821   7.571   5.831   0.221 -0.0056 -0.3266 -0.2533
11996SOL    HW136822   7.502   5.885   0.260 -0.0774 -0.8680  0.3869
11996SOL    HW236823   7.559   5.841   0.126 -0.6571 -0.0355 -0.1436
11997SOL     OW36824   6.513   4.921   0.383 -0.0341 -0.0815 -0.1595
11997SOL    HW136825   6.504   5.015   0.368 -2.0411 -0.5341 -2.4979
11997SOL    HW236826   6.478   4.907   0.471  0.4859  1.3420  0.2980
11998SOL     OW36827   6.913   1.413   2.861 -0.5885  1.2682 -0.3054
11998SOL    HW136828   6.820   1.406   2.840 -0.7705 -0.9247  0.8874
11998SOL    HW236829   6.958   1.398   2.778 -1.2984  0.6276 -0.5832
11999SOL     OW36830   2.195   7.115   0.782 -0.2529 -0.1302 -0.1954
11999SOL    HW136831   2.201   7.200   0.739 -1.6180 -0.0206 -0.1956
11999SOL    HW236832   2.283   7.079   0.775 -0.0838  0.5136 -1.7886
12000SOL     OW36833   2.712   6.109   4.305 -0.5112 -0.2826  0.1163
12000SOL    HW136834   2.700   6.200   4.333  1.4628  0.3557 -0.9037
12000SOL    HW236835   2.675   6.107   4.216  0.6322 -0.1096 -0.3726
12001SOL     OW36836   5.693   1.981   6.504  0.0003  0.5144  0.2578
12001SOL    HW136837   5.682   1.887   6.517  0.3143  0.4460  0.0206
12001SOL    HW236838   5.786   1.993   6.487 -0.0721  0.8434  0.0731
12002SOL     OW36839   0.208   7.730   2.013 -0.4723  0.0434  0.1123
12002SOL    HW136840   0.240   7.762   2.097 -0.8055  0.5546  0.0489
12002SOL    HW236841   0.276   7.671   1.982 -0.7604 -0.8797  1.1796
12003SOL     OW36842   1.129   0.475   5.750  0.4507 -0.2778 -0.5060
12003SOL    HW136843   1.087   0.554   5.716  2.3387  0.3901 -1.4344
12003SOL    HW236844   1.160   0.428   5.673  2.5507 -0.0255  0.1017
12004SOL     OW36845   5.896   6.692   2.522 -0.4605  0.3734 -0.2623
12004SOL    HW136846   5.962   6.745   2.477 -1.4008 -0.1272 -2.3746
12004SOL    HW236847   5.944   6.648   2.592  0.9816  1.5930 -0.4264
12005SOL     OW36848   1.432   0.510   3.204 -0.1238  0.2643 -1.5552
12005SOL    HW136849   1.460   0.520   3.113 -1.1855 -0.0756 -1.9313
12005SOL    HW236850   1.338   0.530   3.202  0.2518  2.4581 -0.1502
12006SOL     OW36851   4.871   5.673   2.862  0.4559  0.1381  0.5094
12006SOL    HW136852   4.822   5.707   2.937  1.9234  2.5942  0.4697
12006SOL    HW236853   4.814   5.688   2.787  0.5751  1.5351  0.6630
12007SOL     OW36854   2.995   1.058   0.076 -0.0566  0.1894 -0.3897
12007SOL    HW136855   3.068   0.999   0.056  0.6514  1.6506 -2.3723
12007SOL    HW236856   3.026   1.109   0.151  0.6069  0.1904 -0.6543
12008SOL     OW36857   4.445   7.049   6.091 -0.3964 -0.0132  0.3237
12008SOL    HW136858   4.467   7.086   6.005 -2.4375  1.2737  0.2997
12008SOL    HW236859   4.511   7.086   6.150  0.8779 -0.7107 -0.5979
12009SOL     OW36860   6.362   5.369   2.993  0.7031  0.2042 -0.0991
12009SOL    HW136861   6.401   5.432   2.934  1.1703 -0.0267 -0.0450
12009SOL    HW236862   6.270   5.365   2.968  1.3683 -1.8461 -2.5942
12010SOL     OW36863   1.557   7.479   7.194 -0.0181 -0.3091 -0.5530
12010SOL    HW136864   1.476   7.526   7.174 -0.7729 -1.3580 -0.0818
12010SOL    HW236865   1.609   7.541   7.245 -0.2722  0.5763 -1.3409
12011SOL     OW36866   0.614   7.879   4.940 -0.1164  0.5809  0.0082
12011SOL    HW136867   0.558   7.912   4.870 -0.6338  0.2081  0.2427
12011SOL    HW236868   0.615   7.950   5.005 -1.1472  0.1937  0.4671
12012SOL     OW36869   4.757   6.049   0.259 -0.0442 -0.0104  0.5265
12012SOL    HW136870   4.768   5.969   0.208  1.8645  0.5206  0.0241
12012SOL    HW236871   4.663   6.066   0.258 -0.4502 -2.0518  0.3823
12013SOL     OW36872   0.978   5.878   7.336 -0.3554  0.2229  0.0984
12013SOL    HW136873   1.057   5.932   7.338  0.7711 -1.3736  0.1059
12013SOL    HW236874   0.929   5.906   7.414  0.8369  0.3381  0.8474
12014SOL     OW36875   5.548   4.037   1.540 -0.7871 -0.2135  0.3673
12014SOL    HW136876   5.617   3.994   1.590  2.4404  0.9364 -2.7370
12014SOL    HW236877   5.518   3.969   1.479  0.4687  0.3285 -0.9004
12015SOL     OW36878   6.418   0.849   7.431 -0.2262  0.5857 -0.7607
12015SOL    HW136879   6.418   0.782   7.363 -1.1724  1.4997 -1.6894
12015SOL    HW236880   6.487   0.821   7.492 -0.8223 -1.3952 -0.9340
12016SOL     OW36881   1.317   0.380   4.609  0.6434 -0.3381  0.1360
12016SOL    HW136882   1.295   0.473   4.610  0.9029 -0.2762  1.0996
12016SOL    HW236883   1.374   0.370   4.533 -0.1319  0.1046 -0.5190
12017SOL     OW36884   4.674   0.368   3.942 -0.7569 -0.3723  0.1769
12017SOL    HW136885   4.720   0.347   4.023  1.2889 -0.2190 -0.8802
12017SOL    HW236886   4.632   0.286   3.916  1.6980 -1.5247 -0.4930
12018SOL     OW36887   6.414   2.769   0.545 -0.7421  0.5006 -0.1577
12018SOL    HW136888   6.394   2.757   0.452 -2.1332  1.8039 -0.0730
12018SOL    HW236889   6.464   2.851   0.548  0.6719 -0.3512  0.1113
12019SOL     OW36890   4.561   3.490   3.737 -0.3567 -0.2104  0.2152
12019SOL    HW136891   4.530   3.416   3.685 -0.7239 -0.0539  0.2077
12019SOL    HW236892   4.504   3.563   3.711  1.4612  0.6772 -1.4741
12020SOL     OW36893   5.872   6.395   5.796  0.0641  0.0005  0.0536
12020SOL    HW136894   5.868   6.417   5.703 -0.9003 -1.6147 -0.3276
12020SOL    HW236895   5.810   6.456   5.837 -0.6062 -0.2329 -0.5875
12021SOL     OW36896   0.297   5.618   3.500  0.4613  0.0378 -0.1415
12021SOL    HW136897   0.207   5.595   3.521  0.0763  1.8768  0.3696
12021SOL    HW236898   0.342   5.622   3.584  0.8256 -0.0582 -0.3249
12022SOL     OW36899   6.140   7.073   1.308 -0.6705 -0.1911  0.3707
12022SOL    HW136900   6.167   7.163   1.294 -0.2939 -0.4749 -0.8228
12022SOL    HW236901   6.083   7.052   1.234  0.9978 -1.5980 -0.6036
12023SOL     OW36902   5.145   5.284   5.914 -0.0966  0.1938 -0.1731
12023SOL    HW136903   5.194   5.363   5.936  1.5745 -0.1677 -2.2635
12023SOL    HW236904   5.205   5.212   5.936 -0.8201 -0.3874 -0.0905
12024SOL     OW36905   0.206   6.725   5.524 -0.2145  0.3017  0.6026
12024SOL    HW136906   0.118   6.697   5.551 -0.7826  1.3188 -0.1216
12024SOL    HW236907   0.224   6.803   5.576 -0.0612  0.5307  0.2144
12025SOL     OW36908   2.880   1.908   0.955  0.4103 -0.0036  0.4654
12025SOL    HW136909   2.966   1.869   0.937 -0.7959 -3.0308  0.6655
12025SOL    HW236910   2.895   2.002   0.950  3.5883 -0.4267 -0.1442
12026SOL     OW36911   7.891   6.629   5.599  0.2473  0.6190  0.5162
12026SOL    HW136912   7.947   6.590   5.666  0.6905 -1.2699 -0.8497
12026SOL    HW236913   7.890   6.564   5.528 -0.7822  2.2019 -1.0056
12027SOL     OW36914   4.144   3.318   6.467  0.2529  0.5072 -0.1784
12027SOL    HW136915   4.146   3.230   6.503 -0.2881 -0.6409 -2.7144
12027SOL    HW236916   4.222   3.361   6.503  0.4585 -0.9564  1.1988
12028SOL     OW36917   5.560   5.919   5.930 -0.0636 -0.1423  0.6561
12028SOL    HW136918   5.619   5.991   5.907  1.3815 -0.4420  3.1082
12028SOL    HW236919   5.616   5.841   5.927 -0.9653 -0.8036  0.6099
12029SOL     OW36920   4.428   5.156   0.494 -0.1762 -0.2210 -0.0823
12029SOL    HW136921   4.372   5.085   0.462 -1.2128  1.2001 -1.5924
12029SOL    HW236922   4.516   5.118   0.496 -0.9034 -2.0163  0.7721
12030SOL     OW36923   3.271   5.068   6.181  0.5116 -0.0554 -0.7757
12030SOL    HW136924   3.312   5.002   6.237 -0.8227  0.4134  0.8634
12030SOL    HW236925   3.233   5.131   6.242 -2.3860 -0.3243 -2.0860
12031SOL     OW36926   0.276   4.650   4.235 -0.3547  0.3152  0.5229
12031SOL    HW136927   0.240   4.654   4.147  0.7394  1.7740  0.0927
12031SOL    HW236928   0.209   4.691   4.290 -1.4383 -1.4208  0.5542
12032SOL     OW36929   4.694   6.501   4.979  0.2530 -0.1569 -0.3848
12032SOL    HW136930   4.689   6.576   4.920  0.8192  0.9821  0.9513
12032SOL    HW236931   4.603   6.473   4.990 -0.1372  1.2731  0.2246
12033SOL     OW36932   0.565   1.196   7.480  0.2674  0.2972 -0.9052
12033SOL    HW136933   0.576   1.252   7.557 -0.8384  0.4479 -0.8285
12033SOL    HW236934   0.617   1.118   7.498 -0.1347  0.2428  0.0991
12034SOL     OW36935   3.159   5.671   4.848  0.5249  0.2453  0.5242
12034SOL    HW136936   3.192   5.618   4.921  0.8212 -0.9500 -0.4419
12034SOL    HW236937   3.084   5.717   4.885  1.3982  0.6241  1.9103
12035SOL     OW36938   1.344   0.434   6.796  0.0979 -0.0134  0.1127
12035SOL    HW136939   1.434   0.462   6.775 -0.1380  0.6924 -0.0000
12035SOL    HW236940   1.320   0.487   6.872 -0.3038 -0.0378  0.0050
12036SOL     OW36941   7.656   0.177   0.030  0.3958  0.4778 -0.0735
12036SOL    HW136942   7.748   0.201   0.045  0.2766  0.8960 -0.0208
12036SOL    HW236943   7.648   0.090   0.070  0.2348  1.3228  1.8548
12037SOL     OW36944   0.950   4.240   4.662 -0.1565 -0.2824  0.1496
12037SOL    HW136945   0.970   4.241   4.569 -1.2392 -0.0278 -0.0902
12037SOL    HW236946   0.896   4.317   4.676 -0.0454 -0.3462  0.9868
12038SOL     OW36947   4.162   7.282   7.663  0.0904 -0.2320 -0.6348
12038SOL    HW136948   4.202   7.317   7.742 -0.7454 -2.1712  0.7058
12038SOL    HW236949   4.228   7.296   7.594  2.2714 -1.5255  1.0737
12039SOL     OW36950   7.523   5.063   1.752 -0.2395 -0.1780 -0.7543
12039SOL    HW136951   7.497   4.999   1.817 -2.3026  0.0830 -1.2653
12039SOL    HW236952   7.592   5.114   1.794 -0.9588 -0.5389  0.9078
12040SOL     OW36953   0.549   1.320   2.726 -0.4426  0.4004 -0.2130
12040SOL    HW136954   0.551   1.227   2.745  0.9886 -0.1684 -2.6221
12040SOL    HW236955   0.457   1.339   2.706 -0.7696 -0.4591  0.4298
12041SOL     OW36956   7.127   5.272   2.953  0.6261  0.0958  0.3379
12041SOL    HW136957   7.037   5.304   2.964  0.0801 -1.4315  0.6104
12041SOL    HW236958   7.171   5.298   3.034  0.0696 -0.2402  0.7578
12042SOL     OW36959   1.486   5.164   0.166 -0.1590 -0.8705 -0.0982
12042SOL    HW136960   1.545   5.183   0.093 -0.4688  1.5007  0.1876
12042SOL    HW236961   1.528   5.203   0.242 -0.5092 -2.1076  0.7703
12043SOL     OW36962   1.678   1.598   3.422 -0.1246  0.3425  0.4005
12043SOL    HW136963   1.746   1.617   3.486 -1.3428  1.4020  1.4492
12043SOL    HW236964   1.698   1.511   3.390  1.5636  0.5389  0.8660
12044SOL     OW36965   0.892   6.818   4.478  0.0710 -0.0105  0.6379
12044SOL    HW136966   0.835   6.741   4.474  0.3367 -0.2376  1.1401
12044SOL    HW236967   0.831   6.891   4.486 -0.1923 -0.1469 -0.0258
12045SOL     OW36968   1.209   1.199   6.797  0.6575 -0.0697 -0.4785
12045SOL    HW136969   1.132   1.166   6.750  1.1116 -2.9935  0.6223
12045SOL    HW236970   1.200   1.164   6.885  3.8420 -1.6879 -0.6652
12046SOL     OW36971   3.640   4.988   2.473 -0.1869 -0.2408 -0.3073
12046SOL    HW136972   3.547   5.005   2.452 -0.8070 -1.3212  1.3923
12046SOL    HW236973   3.654   4.897   2.446  1.0747  0.5742 -2.6619
12047SOL     OW36974   1.601   1.546   0.407 -0.1884  0.3550 -0.6347
12047SOL    HW136975   1.659   1.540   0.332  0.3310  1.6925 -0.3684
12047SOL    HW236976   1.609   1.637   0.436  1.7373 -0.6872  2.6817
12048SOL     OW36977   3.841   7.898   5.776  0.1295  0.2242  0.3884
12048SOL    HW136978   3.851   7.936   5.689  0.3707  0.1467  0.3814
12048SOL    HW236979   3.920   7.847   5.789  0.0739  0.1989  0.6362
12049SOL     OW36980   2.736   7.589   0.231  0.1729 -0.3740  0.2254
12049SOL    HW136981   2.748   7.679   0.263  1.5861 -0.0238 -1.1791
12049SOL    HW236982   2.641   7.578   0.228 -0.0297  0.6689  1.4506
12050SOL     OW36983   3.509   6.760   1.699 -0.1202 -0.3910  0.5350
12050SOL    HW136984   3.582   6.768   1.638 -0.6688 -2.3564 -0.4576
12050SOL    HW236985   3.431   6.751   1.643 -0.9389  0.0664  1.5538
12051SOL     OW36986   0.494   5.545   0.334 -0.5637  0.3187 -0.6360
12051SOL    HW136987   0.428   5.500   0.389  1.3352  0.4082  1.9166
12051SOL    HW236988   0.577   5.508   0.362  0.6323  1.3434 -2.6376
12052SOL     OW36989   2.574   6.287   2.442 -0.1834 -0.6515  0.2392
12052SOL    HW136990   2.547   6.278   2.350 -2.0618 -2.2712  0.8758
12052SOL    HW236991   2.491   6.288   2.491  0.8023 -0.6806  1.9854
12053SOL     OW36992   1.520   1.947   7.460  0.1836 -0.2661  0.2729
12053SOL    HW136993   1.548   2.036   7.439  3.2049 -1.3446 -0.7594
12053SOL    HW236994   1.508   1.905   7.374  0.5159 -1.3223  0.7273
12054SOL     OW36995   4.373   4.087   4.829 -0.2100  0.3731  0.2055
12054SOL    HW136996   4.318   4.142   4.885  1.7333  1.5926  1.0302
12054SOL    HW236997   4.412   4.024   4.889 -0.5063 -0.3280 -0.3277
12055SOL     OW36998   6.492   7.209   0.243 -0.0007  0.3587 -0.2464
12055SOL    HW136999   6.420   7.264   0.213  0.6250  2.3704  1.7049
12055SOL    HW237000   6.567   7.268   0.246  1.2801 -1.2076 -0.3280
12056SOL     OW37001   3.147   7.830   6.062 -0.3094 -0.0793 -0.2543
12056SOL    HW137002   3.121   7.871   6.144  1.6181 -0.5963  0.6550
12056SOL    HW237003   3.174   7.903   6.006 -0.5267  0.1850 -0.0186
12057SOL     OW37004   4.048   2.675   1.387 -0.1750 -0.0251  0.0030
12057SOL    HW137005   4.050   2.580   1.398 -0.6339  0.1586  2.1141
12057SOL    HW237006   3.955   2.696   1.378 -0.0150  0.1720 -1.4987
12058SOL     OW37007   4.260   1.163   7.159 -0.3169  0.2146 -0.2947
12058SOL    HW137008   4.168   1.181   7.136  0.0045 -0.1101 -1.9509
12058SOL    HW237009   4.280   1.228   7.226 -1.4434  1.0216 -0.6920
12059SOL     OW37010   3.206   2.629   7.610 -0.3302  0.2271 -0.0021
12059SOL    HW137011   3.265   2.563   7.574 -1.5369 -0.1533 -1.3388
12059SOL    HW237012   3.160   2.584   7.681  1.2814  0.6708  1.3938
12060SOL     OW37013   3.559   0.430   0.734  0.7941 -0.4477 -0.4370
12060SOL    HW137014   3.629   0.430   0.668 -0.5365  1.1014 -1.9268
12060SOL    HW237015   3.603   0.402   0.814  2.5267 -2.1662 -1.8842
12061SOL     OW37016   5.492   1.064   0.544  0.2100 -0.1704 -0.2794
12061SOL    HW137017   5.533   1.074   0.458 -0.9422  1.6270 -0.6809
12061SOL    HW237018   5.515   0.975   0.571  0.8438 -0.6910 -2.3102
12062SOL     OW37019   5.648   1.706   6.503 -0.9613 -0.5666 -0.1953
12062SOL    HW137020   5.655   1.674   6.413  1.3217 -1.1218  0.1155
12062SOL    HW237021   5.738   1.709   6.534 -1.6277  0.4848  1.7941
12063SOL     OW37022   4.285   0.303   5.327 -0.4850 -0.1700  0.1224
12063SOL    HW137023   4.300   0.236   5.261  0.4747  0.7900 -0.6743
12063SOL    HW237024   4.308   0.386   5.283 -2.3035  0.7686  0.8376
12064SOL     OW37025   3.752   7.340   2.899 -0.2702  0.0929 -0.1445
12064SOL    HW137026   3.777   7.398   2.827 -0.1539 -0.8836 -0.9032
12064SOL    HW237027   3.666   7.306   2.874 -0.2029 -0.2976  0.1577
12065SOL     OW37028   1.506   1.624   3.716  0.1591  0.2192 -0.0705
12065SOL    HW137029   1.504   1.531   3.695  0.0737 -0.0220  0.9575
12065SOL    HW237030   1.566   1.631   3.791 -0.6527  0.8247  0.5501
12066SOL     OW37031   1.476   5.009   4.653 -0.6494 -0.2763 -0.1921
12066SOL    HW137032   1.430   4.977   4.576  1.5879 -0.7556 -1.4177
12066SOL    HW237033   1.415   5.071   4.694 -2.2096 -0.6350 -1.8564
12067SOL     OW37034   0.230   2.650   1.619 -0.1298 -0.2683 -0.1206
12067SOL    HW137035   0.265   2.569   1.657 -1.6456 -0.0899  1.8831
12067SOL    HW237036   0.170   2.620   1.550 -0.1332 -0.8425  0.1184
12068SOL     OW37037   1.966   5.170   4.943  0.0736 -0.2607  0.0518
12068SOL    HW137038   1.874   5.144   4.944  0.1690 -0.6138  1.3964
12068SOL    HW237039   1.975   5.224   4.864 -1.3891  0.1875  0.1645
12069SOL     OW37040   6.870   1.130   0.397  0.2215  0.3127 -0.3330
12069SOL    HW137041   6.909   1.113   0.311  0.2853  0.1303 -0.2680
12069SOL    HW237042   6.934   1.097   0.460  0.9214  1.8965 -0.1517
12070SOL     OW37043   3.676   2.894   0.002  0.5435  0.2160  0.1729
12070SOL    HW137044   3.598   2.846  -0.026 -0.5266  2.1086 -0.2813
12070SOL    HW237045   3.738   2.826   0.029 -1.6984 -1.3166  1.7755
12071SOL     OW37046   4.768   7.124   6.644  0.4872 -0.3423  0.0812
12071SOL    HW137047   4.803   7.100   6.557  2.9229 -0.2856  0.9597
12071SOL    HW237048   4.814   7.204   6.667 -1.6064  0.7692  0.6366
12072SOL     OW37049   7.111   4.704   1.806  0.6378 -0.4594 -0.1599
12072SOL    HW137050   7.153   4.626   1.843 -0.8308 -2.0930 -1.7473
12072SOL    HW237051   7.162   4.725   1.728 -0.9921 -2.0603 -1.7313
12073SOL     OW37052   0.297   7.461   3.397 -0.6262 -0.0754  0.1164
12073SOL    HW137053   0.338   7.526   3.340 -1.5161  1.8300  1.5357
12073SOL    HW237054   0.240   7.411   3.339 -0.4038  0.8310 -0.9207
12074SOL     OW37055   5.915   4.581   7.283  0.5924 -0.1876  0.4006
12074SOL    HW137056   5.942   4.496   7.248  0.0852  1.1209 -3.7549
12074SOL    HW237057   5.827   4.594   7.246  1.5002  2.9705 -0.9576
12075SOL     OW37058   7.708   4.784   4.134  0.9208 -0.3397 -0.1265
12075SOL    HW137059   7.628   4.771   4.186  0.2523  1.5563 -0.5999
12075SOL    HW237060   7.758   4.849   4.184  1.5286 -0.5020 -0.5191
12076SOL     OW37061   4.506   2.887   4.052 -0.5913  0.4975 -0.4274
12076SOL    HW137062   4.549   2.812   4.094 -0.8886  0.9734  0.7514
12076SOL    HW237063   4.578   2.944   4.026 -0.4645  0.9970  0.9767
12077SOL     OW37064   6.646   7.224   7.422 -0.4836  0.1755  0.1879
12077SOL    HW137065   6.573   7.205   7.363 -1.8557  1.0053  1.5312
12077SOL    HW237066   6.696   7.143   7.425 -2.6522 -1.2515  0.9616
12078SOL     OW37067   6.014   3.300   0.735 -0.0030 -0.2690 -0.1366
12078SOL    HW137068   5.993   3.325   0.826 -0.3911 -2.0356  0.2980
12078SOL    HW237069   6.053   3.379   0.697 -0.7018  0.8142  1.2761
12079SOL     OW37070   7.282   0.872   3.350  0.0897 -0.3480 -0.5643
12079SOL    HW137071   7.296   0.942   3.413  1.1072 -0.8152 -0.2394
12079SOL    HW237072   7.344   0.804   3.377  0.1900 -0.7503 -1.7673
12080SOL     OW37073   4.872   3.085   6.124  0.0209 -0.2524 -0.1834
12080SOL    HW137074   4.927   3.093   6.201 -0.0275  1.0401 -0.2643
12080SOL    HW237075   4.924   3.033   6.062  0.7688  0.1753  0.0790
12081SOL     OW37076   1.378   2.019   4.191 -0.6509 -0.2625  0.0900
12081SOL    HW137077   1.411   2.022   4.101 -2.0674 -0.2424 -0.4547
12081SOL    HW237078   1.453   1.990   4.243 -0.2026 -1.7330 -1.2988
12082SOL     OW37079   6.893   0.693   0.763 -0.2962  0.3358 -0.4225
12082SOL    HW137080   6.927   0.604   0.754 -0.0947  0.1265  1.8596
12082SOL    HW237081   6.970   0.746   0.782 -0.5787  0.8034 -0.5635
12083SOL     OW37082   5.996   1.712   5.221  0.3742 -0.3315 -0.8614
12083SOL    HW137083   6.061   1.667   5.167  0.7267  0.4131 -1.0723
12083SOL    HW237084   6.048   1.769   5.278 -0.1015  0.4838 -1.2253
12084SOL     OW37085   4.231   0.974   0.227  0.0240  0.0291  0.6595
12084SOL    HW137086   4.243   1.068   0.212  1.2546  0.0077  1.3260
12084SOL    HW237087   4.231   0.965   0.322  1.4420 -0.7824  0.6230
12085SOL     OW37088   3.872   4.784   2.837 -0.3048 -0.1495 -0.0776
12085SOL    HW137089   3.877   4.769   2.932  0.0242 -1.7390 -0.3218
12085SOL    HW237090   3.779   4.800   2.820 -0.2012  1.5127  0.6675
12086SOL     OW37091   0.120   1.182   2.610 -0.4029 -0.2422  0.3773
12086SOL    HW137092   0.092   1.143   2.527  2.4788 -0.5567 -0.5361
12086SOL    HW237093   0.163   1.111   2.656  0.1278  0.5374  1.1062
12087SOL     OW37094   5.248   5.188   5.338 -0.6879  0.3872  0.3950
12087SOL    HW137095   5.197   5.240   5.276  0.3951  0.7431 -0.2313
12087SOL    HW237096   5.322   5.244   5.362  0.0515 -0.5372  0.3648
12088SOL     OW37097   2.310   1.026   0.297  0.1389 -0.7153 -0.1176
12088SOL    HW137098   2.222   0.991   0.310 -0.0974 -0.0999 -0.0294
12088SOL    HW237099   2.330   1.006   0.205 -1.9973  3.1948 -1.6966
12089SOL     OW37100   4.414   1.848   7.404  0.1697 -0.3861  0.0233
12089SOL    HW137101   4.494   1.860   7.353  0.0373 -1.2103 -0.4001
12089SOL    HW237102   4.434   1.886   7.490  0.2373  1.4686 -0.7546
12090SOL     OW37103   0.566   2.368   3.799  0.8420  0.1001 -0.0574
12090SOL    HW137104   0.612   2.347   3.881  1.3218 -0.0575 -0.3688
12090SOL    HW237105   0.489   2.310   3.801  1.1500 -0.3155  0.0141
12091SOL     OW37106   3.066   4.995   0.874 -0.5572  0.5869 -0.5101
12091SOL    HW137107   3.064   5.090   0.865 -2.0214  0.7784  1.2230
12091SOL    HW237108   3.135   4.978   0.938 -1.0270  0.6166  0.0232
12092SOL     OW37109   0.254   6.027   1.406 -0.0646 -0.3872  0.0070
12092SOL    HW137110   0.261   6.095   1.473 -0.3893  0.8977 -1.2169
12092SOL    HW237111   0.322   6.049   1.342 -0.4478 -0.9592 -0.6096
12093SOL     OW37112   2.188   4.423   5.082  0.3872  0.3009 -0.2038
12093SOL    HW137113   2.261   4.480   5.059  0.5264  0.1308 -0.1780
12093SOL    HW237114   2.147   4.466   5.157  1.1614 -0.2098  0.5266
12094SOL     OW37115   4.986   0.092   4.754 -0.5616 -0.0280 -0.4971
12094SOL    HW137116   4.903   0.121   4.790 -0.4918 -1.0657  0.5519
12094SOL    HW237117   4.984   0.120   4.662 -1.9500  0.1676 -0.4233
12095SOL     OW37118   2.208   5.465   3.385 -0.3897  0.2821 -0.1821
12095SOL    HW137119   2.173   5.438   3.300 -3.5717 -0.8758  1.3284
12095SOL    HW237120   2.198   5.560   3.386  0.0448  0.3495 -1.2248
12096SOL     OW37121   6.795   5.774   1.059 -0.5213 -0.4721 -0.1567
12096SOL    HW137122   6.873   5.812   1.020 -0.5578 -0.4088 -0.1675
12096SOL    HW237123   6.817   5.763   1.152  0.8718 -3.8174 -0.7150
12097SOL     OW37124   3.150   2.225   0.183  0.2130  0.7435 -0.7842
12097SOL    HW137125   3.072   2.247   0.234  0.0256 -0.0897 -0.6978
12097SOL    HW237126   3.208   2.183   0.246  0.2304  0.2642 -1.1129
12098SOL     OW37127   6.878   1.209   0.953 -0.0556 -0.6886 -0.0149
12098SOL    HW137128   6.789   1.239   0.934  1.2302  2.4922 -1.5937
12098SOL    HW237129   6.910   1.268   1.021  1.7489  0.0419 -1.4330
12099SOL     OW37130   7.363   0.691   5.841 -0.2310 -0.5799  0.2818
12099SOL    HW137131   7.278   0.690   5.798 -0.5338 -1.5415  0.8620
12099SOL    HW237132   7.372   0.780   5.875 -0.6355 -0.2381 -0.4943
12100SOL     OW37133   5.791   1.772   7.132 -0.6791  0.1936  0.2360
12100SOL    HW137134   5.819   1.701   7.074  2.5392  1.0097  0.5499
12100SOL    HW237135   5.837   1.755   7.214 -0.8275  1.9510  0.7252
12101SOL     OW37136   5.552   4.999   4.712  0.0545 -0.3285  0.3229
12101SOL    HW137137   5.532   5.076   4.765 -0.6984 -0.0703 -0.3060
12101SOL    HW237138   5.483   4.937   4.734  0.8691 -0.9813  1.1025
12102SOL     OW37139   6.529   5.265   5.802 -0.0142 -0.9318  0.1327
12102SOL    HW137140   6.508   5.258   5.709  1.5815 -0.8438 -0.2620
12102SOL    HW237141   6.444   5.259   5.846 -0.9497  0.3668 -1.3746
12103SOL     OW37142   7.367   0.723   1.064  0.1575  0.1103 -0.1034
12103SOL    HW137143   7.410   0.783   1.003  0.0411  1.0442  0.7041
12103SOL    HW237144   7.436   0.699   1.126 -0.2855  1.1002  0.8143
12104SOL     OW37145   7.067   2.657   5.467  0.6069 -0.1124  0.0848
12104SOL    HW137146   6.977   2.689   5.452  0.1775  0.4452  3.1885
12104SOL    HW237147   7.091   2.616   5.384 -2.4034 -0.0583 -0.9689
12105SOL     OW37148   5.418   3.245   0.895  0.2384 -0.3847  0.4783
12105SOL    HW137149   5.353   3.192   0.848  1.1114 -1.8187  0.8431
12105SOL    HW237150   5.369   3.282   0.969 -0.0448 -2.0067  1.1426
12106SOL     OW37151   7.178   7.812   0.899  0.2619  0.0734 -0.0119
12106SOL    HW137152   7.129   7.863   0.963  0.3738  0.9135 -0.5795
12106SOL    HW237153   7.242   7.764   0.951 -0.1362  0.1702  0.5772
12107SOL     OW37154   6.959   1.566   3.332 -0.0607 -0.0970  0.7680
12107SOL    HW137155   7.014   1.644   3.341  0.5066 -0.2826 -0.8391
12107SOL    HW237156   6.946   1.557   3.238 -3.3612  0.2673  1.0851
12108SOL     OW37157   2.283   0.050   4.782  0.1755  0.3210 -0.3036
12108SOL    HW137158   2.334   0.027   4.860  0.0307 -1.7484 -0.7622
12108SOL    HW237159   2.192   0.054   4.813  0.2283  0.5322 -0.1728
12109SOL     OW37160   6.083   3.865   7.010  0.2559 -0.2570 -0.5581
12109SOL    HW137161   6.058   3.775   7.028  0.3231 -0.3515 -0.9301
12109SOL    HW237162   6.048   3.883   6.922 -0.5858  0.3860 -0.1153
12110SOL     OW37163   6.704   1.798   4.115  0.0134  0.2089 -0.2106
12110SOL    HW137164   6.747   1.884   4.109  1.2629 -0.2294  1.6672
12110SOL    HW237165   6.744   1.757   4.191 -1.8668 -1.3410  0.0015
12111SOL     OW37166   3.402   1.082   7.918 -0.4923  0.1983 -0.1904
12111SOL    HW137167   3.416   1.177   7.924  0.1878  0.0618  0.6233
12111SOL    HW237168   3.393   1.065   7.825  1.0540  0.8555 -0.4960
12112SOL     OW37169   7.613   2.961   5.152 -0.2993  0.0266 -0.0602
12112SOL    HW137170   7.617   2.978   5.058  1.0324 -1.8996 -0.4132
12112SOL    HW237171   7.565   2.878   5.159  0.8355 -0.5719  0.8403
12113SOL     OW37172   2.891   4.569   2.005 -0.0816 -0.2001 -0.3717
12113SOL    HW137173   2.961   4.591   1.943 -0.1702 -0.5808 -0.6073
12113SOL    HW237174   2.922   4.605   2.088  1.2495 -1.9111 -0.0760
12114SOL     OW37175   2.214   7.355   6.177 -0.2690 -0.0833 -0.0528
12114SOL    HW137176   2.277   7.421   6.206 -0.3102 -0.4026  0.7623
12114SOL    HW237177   2.143   7.406   6.138  0.3655  0.2906 -0.7518
12115SOL     OW37178   0.537   4.723   0.710  0.4879 -0.6084 -0.3484
12115SOL    HW137179   0.531   4.675   0.792  2.4144  0.4137  0.4636
12115SOL    HW237180   0.488   4.803   0.725 -0.5089 -1.1281 -0.7774
12116SOL     OW37181   0.219   6.083   1.853 -0.2245  0.5023 -0.1196
12116SOL    HW137182   0.247   6.067   1.943 -2.0078 -0.0017  0.3937
12116SOL    HW237183   0.267   6.019   1.801  0.5952  0.5889  0.5145
12117SOL     OW37184   4.687   5.056   0.043  0.1307 -0.0092 -0.1154
12117SOL    HW137185   4.736   5.002  -0.019 -0.9012 -3.2923  1.6958
12117SOL    HW237186   4.608   5.081  -0.005  0.2995 -0.7229 -0.7889
12118SOL     OW37187   3.261   7.234   7.737  0.6881 -0.6305  0.1114
12118SOL    HW137188   3.218   7.302   7.685  0.2321  0.1580  1.4726
12118SOL    HW237189   3.338   7.210   7.686  0.6406  0.6226 -0.5841
12119SOL     OW37190   1.191   7.694   2.707 -0.7295 -0.1383  0.3552
12119SOL    HW137191   1.117   7.634   2.699  0.0894 -1.4353  1.9814
12119SOL    HW237192   1.152   7.776   2.737 -1.8489  0.1683 -1.7490
12120SOL     OW37193   4.248   4.452   7.252  0.1241  0.1080  0.3152
12120SOL    HW137194   4.325   4.416   7.209 -0.4401 -1.3586  0.4748
12120SOL    HW237195   4.262   4.432   7.345 -0.1785  0.3344  0.4093
12121SOL     OW37196   6.194   7.174   2.108 -0.3438  0.3312 -0.7918
12121SOL    HW137197   6.267   7.114   2.089 -1.0198 -0.5651 -0.6385
12121SOL    HW237198   6.188   7.230   2.031  0.9520  0.8980 -0.5203
12122SOL     OW37199   5.949   3.499   3.160  0.5837 -0.3600  0.1271
12122SOL    HW137200   6.006   3.525   3.088 -0.4117 -0.4661 -0.7114
12122SOL    HW237201   5.949   3.575   3.218  0.2752  0.2724 -0.6897
12123SOL     OW37202   0.337   0.360   3.290  0.1975 -0.2057 -0.0052
12123SOL    HW137203   0.431   0.375   3.289  0.0565  0.7868  0.1734
12123SOL    HW237204   0.306   0.398   3.207 -0.3234  1.6036  0.9664
12124SOL     OW37205   3.892   3.516   0.391  0.3060  0.1294 -0.1945
12124SOL    HW137206   3.820   3.454   0.400 -0.1110  0.2432 -2.2289
12124SOL    HW237207   3.971   3.462   0.395 -0.0537 -0.5760 -1.8432
12125SOL     OW37208   2.547   0.947   0.029  0.4258 -0.1873  0.4661
12125SOL    HW137209   2.569   0.854   0.026 -1.2456 -0.5847 -1.5921
12125SOL    HW237210   2.453   0.950   0.013  0.6031  1.9086 -0.5090
12126SOL     OW37211   6.867   3.679   6.550  0.4366 -0.6483 -0.5081
12126SOL    HW137212   6.890   3.587   6.559 -0.2316 -0.8317 -0.6685
12126SOL    HW237213   6.772   3.680   6.537  0.0885  0.1688  1.6407
12127SOL     OW37214   1.667   5.157   7.184 -0.2546  0.3225 -0.8526
12127SOL    HW137215   1.598   5.094   7.165 -1.3462  1.2738 -0.2011
12127SOL    HW237216   1.690   5.194   7.098  1.1430 -1.6488 -1.3780
12128SOL     OW37217   2.489   0.411   7.358  0.7140  0.1169  0.2890
12128SOL    HW137218   2.540   0.331   7.370 -0.5770 -0.6739  0.8082
12128SOL    HW237219   2.500   0.459   7.440  0.0151 -0.4413  0.7287
12129SOL     OW37220   6.607   3.984   0.633  0.0940 -0.1089  0.1112
12129SOL    HW137221   6.649   3.898   0.640  0.9378  0.3810  1.5637
12129SOL    HW237222   6.616   4.022   0.721 -1.2320  1.0269 -0.2114
12130SOL     OW37223   5.359   1.521   5.462  0.4493  0.2185  0.0804
12130SOL    HW137224   5.267   1.541   5.447  0.4324  0.7466  0.8074
12130SOL    HW237225   5.406   1.563   5.390  0.1580  0.3120 -0.0543
12131SOL     OW37226   4.130   6.982   1.380 -0.6528  0.2220 -0.3296
12131SOL    HW137227   4.098   7.002   1.468  0.1674  0.3607 -0.0571
12131SOL    HW237228   4.213   6.936   1.394 -1.0332 -0.7061 -1.0139
12132SOL     OW37229   1.853   5.183   5.892 -0.1779 -0.0220 -0.9417
12132SOL    HW137230   1.787   5.250   5.907  0.3681 -0.0336  2.0734
12132SOL    HW237231   1.831   5.113   5.954  1.4494 -0.9443 -1.3436
12133SOL     OW37232   0.626   1.352   5.923 -0.0890 -0.2878 -0.1136
12133SOL    HW137233   0.581   1.431   5.952 -1.6311 -0.5059 -1.7867
12133SOL    HW237234   0.716   1.381   5.904 -1.0099  1.4808 -2.2215
12134SOL     OW37235   7.072   0.995   0.984 -0.0756 -0.7218  0.2288
12134SOL    HW137236   7.052   0.932   1.052 -1.2297 -0.6217  0.0024
12134SOL    HW237237   7.008   1.065   0.996 -0.0124 -0.4919 -0.6774
12135SOL     OW37238   5.768   1.332   0.682 -0.3804  0.1005  0.0498
12135SOL    HW137239   5.796   1.275   0.611 -2.0013 -1.5652  0.6760
12135SOL    HW237240   5.682   1.299   0.707  1.0941 -1.0868  4.4842
12136SOL     OW37241   5.141   0.532   4.802 -0.2384 -0.2509  0.1613
12136SOL    HW137242   5.067   0.549   4.860 -0.3516  0.0528 -0.0691
12136SOL    HW237243   5.173   0.619   4.778 -0.5060 -0.3617 -0.6261
12137SOL     OW37244   1.042   3.589   3.475 -0.6863  0.1269  0.3728
12137SOL    HW137245   1.011   3.499   3.479  0.5848 -0.5337 -2.2214
12137SOL    HW237246   0.996   3.626   3.399  1.6368  0.4095 -0.9720
12138SOL     OW37247   5.761   4.972   1.609 -0.2830 -0.1333  0.0229
12138SOL    HW137248   5.744   4.915   1.534  1.8970 -1.0676  0.1660
12138SOL    HW237249   5.771   4.911   1.683 -2.4127  0.7664  1.1491
12139SOL     OW37250   3.013   3.454   3.197 -0.0517  0.1234  0.1132
12139SOL    HW137251   2.994   3.363   3.173  0.6335  0.2813 -1.1109
12139SOL    HW237252   2.934   3.484   3.242 -0.6345 -0.7981 -0.2635
12140SOL     OW37253   4.918   6.090   3.681  0.0447  0.3460  0.4257
12140SOL    HW137254   4.849   6.084   3.615  0.7178  0.3530 -0.3053
12140SOL    HW237255   4.907   6.176   3.720 -1.4153 -0.3142  1.5412
12141SOL     OW37256   4.678   6.051   3.804  0.5271 -0.2976 -0.1955
12141SOL    HW137257   4.761   6.095   3.825  0.7597 -1.2462  0.9857
12141SOL    HW237258   4.704   5.977   3.749  0.4841 -0.6491  0.2519
12142SOL     OW37259   0.120   6.947   6.598  0.1598  0.3187  0.8218
12142SOL    HW137260   0.168   6.926   6.678 -2.0335 -2.3125  1.6162
12142SOL    HW237261   0.028   6.947   6.624 -0.5156  3.1180 -1.0297
12143SOL     OW37262   0.416   2.988   7.945 -0.2738 -0.6617  0.7514
12143SOL    HW137263   0.345   3.005   7.882 -0.7304 -0.7783  1.2298
12143SOL    HW237264   0.433   2.894   7.937  1.3276 -0.2912 -0.9206
12144SOL     OW37265   1.919   6.170   1.893 -0.1179 -0.7493  0.7333
12144SOL    HW137266   1.858   6.239   1.921 -1.4642 -1.1753 -0.9888
12144SOL    HW237267   1.995   6.218   1.860  0.7469 -0.2135  3.2474
12145SOL     OW37268   1.764   2.473   6.432 -0.3838  0.2808 -0.1348
12145SOL    HW137269   1.853   2.495   6.404  0.4068 -0.3975  1.6689
12145SOL    HW237270   1.772   2.386   6.472 -2.0504 -0.1902 -0.7290
12146SOL     OW37271   3.004   6.047   4.205  0.0990 -1.2508 -0.0121
12146SOL    HW137272   2.939   6.042   4.275  0.9358 -0.0221  0.8967
12146SOL    HW237273   3.084   6.074   4.249  1.1930 -2.5150 -1.1430
12147SOL     OW37274   2.991   0.859   4.409  0.3624 -0.1852 -0.1509
12147SOL    HW137275   3.058   0.821   4.353  0.7846  0.4696 -0.1055
12147SOL    HW237276   2.923   0.792   4.414  0.9807 -0.8341 -0.2504
12148SOL     OW37277   3.405   4.367   6.305 -0.2002 -0.0512  0.0342
12148SOL    HW137278   3.417   4.426   6.230  1.1551  1.1640  1.1591
12148SOL    HW237279   3.489   4.321   6.313 -1.1127 -1.9403 -0.5990
12149SOL     OW37280   1.583   0.886   3.501 -0.2883 -0.2503 -0.2667
12149SOL    HW137281   1.572   0.898   3.595 -0.3080 -0.4629 -0.2433
12149SOL    HW237282   1.509   0.833   3.473 -0.4696  0.0957 -0.4620
12150SOL     OW37283   1.564   4.130   4.838  0.5505  0.5100  0.1189
12150SOL    HW137284   1.623   4.186   4.789  0.2469  0.2389 -0.5699
12150SOL    HW237285   1.557   4.050   4.786 -0.0616  0.3609  0.4113
12151SOL     OW37286   7.752   6.677   6.815  0.3887  0.0065 -0.1364
12151SOL    HW137287   7.750   6.766   6.781 -2.4681  0.4057  0.7654
12151SOL    HW237288   7.664   6.643   6.796  0.3131 -1.4422  2.3777
12152SOL     OW37289   4.388   7.031   7.151  0.3124 -0.6408 -0.0867
12152SOL    HW137290   4.408   7.020   7.243 -0.1450  2.7449  0.5665
12152SOL    HW237291   4.473   7.027   7.107  0.9121  0.4625  0.9066
12153SOL     OW37292   2.226   2.405   2.096 -0.0523  0.7265  0.5507
12153SOL    HW137293   2.184   2.320   2.102  0.9418  0.0917 -0.8188
12153SOL    HW237294   2.197   2.440   2.012  0.1221  1.4208  0.7730
12154SOL     OW37295   1.880   0.183   4.072  0.2502 -0.2436  0.1724
12154SOL    HW137296   1.841   0.270   4.084  0.4795  0.0672 -1.1629
12154SOL    HW237297   1.811   0.122   4.095 -0.9135  0.2947 -1.7012
12155SOL     OW37298   5.032   0.999   2.154 -0.0019  0.1338 -0.7064
12155SOL    HW137299   5.057   1.040   2.237  0.1875 -1.2513 -0.0528
12155SOL    HW237300   4.964   0.936   2.178  1.8976 -2.2371 -1.1257
12156SOL     OW37301   0.970   1.004   6.211 -0.2573 -0.0451  0.0166
12156SOL    HW137302   0.900   0.997   6.146 -0.0311 -0.3924 -0.1958
12156SOL    HW237303   0.927   0.986   6.294 -0.7800  1.5102  0.1182
12157SOL     OW37304   2.515   7.775   7.909 -0.2853 -0.0435 -0.3342
12157SOL    HW137305   2.483   7.766   7.819 -0.8747 -2.8074  0.0833
12157SOL    HW237306   2.437   7.767   7.964  0.5555 -5.0241  0.6118
12158SOL     OW37307   3.926   1.017   0.405  0.0264  0.3564  0.1654
12158SOL    HW137308   3.874   1.022   0.486  1.2326  0.4982  0.9500
12158SOL    HW237309   3.951   0.924   0.398  3.0914  0.8962  2.0702
12159SOL     OW37310   0.649   4.034   0.030  0.0615  0.4027  0.7209
12159SOL    HW137311   0.593   4.111   0.039  0.5535  0.8887 -0.2094
12159SOL    HW237312   0.589   3.960   0.037 -0.5919  0.8960  0.4596
12160SOL     OW37313   5.351   1.723   0.625 -0.2578  0.1885  0.3151
12160SOL    HW137314   5.352   1.722   0.529  2.1282  0.3738  0.2709
12160SOL    HW237315   5.266   1.685   0.649 -1.5355  1.4647 -1.8435
12161SOL     OW37316   6.506   2.513   2.083  0.3464  0.1117 -0.2924
12161SOL    HW137317   6.600   2.502   2.065  0.5173  0.0737  0.5725
12161SOL    HW237318   6.473   2.423   2.089  0.9430 -0.0403  2.7140
12162SOL     OW37319   4.531   4.337   3.410 -0.2802  0.5067  0.0574
12162SOL    HW137320   4.571   4.274   3.470 -0.9119  0.6642  0.6526
12162SOL    HW237321   4.605   4.388   3.377  0.0330  0.8339  1.2003
12163SOL     OW37322   4.913   3.603   5.266 -0.2758  0.0053  0.0883
12163SOL    HW137323   4.935   3.594   5.359  0.6926  0.5258 -0.0781
12163SOL    HW237324   4.981   3.554   5.220 -0.4451  0.1942 -0.3709
12164SOL     OW37325   4.780   6.219   3.106 -0.0040 -0.1989  0.0523
12164SOL    HW137326   4.805   6.154   3.171  1.3971 -0.2200 -0.4722
12164SOL    HW237327   4.862   6.263   3.083 -0.7733  1.0956 -0.3138
12165SOL     OW37328   0.108   0.666   3.739  0.4388 -0.0696 -0.6714
12165SOL    HW137329   0.135   0.633   3.654 -0.7897  0.4197 -1.2801
12165SOL    HW237330   0.118   0.592   3.798  2.3198 -0.1310 -0.9810
12166SOL     OW37331   4.939   7.391   1.978 -0.5566 -0.3144 -0.1934
12166SOL    HW137332   4.921   7.470   1.927 -0.1158 -0.0864 -0.0063
12166SOL    HW237333   4.932   7.420   2.069  3.2390  0.4980  0.0206
12167SOL     OW37334   1.807   2.236   5.356  0.1075 -0.6647 -0.1231
12167SOL    HW137335   1.774   2.194   5.436 -0.6781 -0.6834 -0.4450
12167SOL    HW237336   1.729   2.272   5.314  0.7376  0.9289  0.0184
12168SOL     OW37337   5.099   4.131   7.246 -0.2360  0.0217 -0.9296
12168SOL    HW137338   5.160   4.071   7.204  0.6739  0.6814 -0.5905
12168SOL    HW237339   5.119   4.216   7.207 -0.6665  0.3143 -0.5202
12169SOL     OW37340   2.855   7.446   3.124 -0.2150 -0.2551 -0.5627
12169SOL    HW137341   2.840   7.451   3.218 -0.6873  0.8006 -0.6775
12169SOL    HW237342   2.767   7.451   3.085 -0.1281 -1.8575 -1.0424
12170SOL     OW37343   0.576   2.753   7.144  0.1458  0.3019  0.1011
12170SOL    HW137344   0.621   2.739   7.227  0.3250 -1.5726 -0.2503
12170SOL    HW237345   0.483   2.749   7.166  0.1929 -0.7104  0.1646
12171SOL     OW37346   7.844   5.968   2.314 -0.1793 -0.4257 -0.3093
12171SOL    HW137347   7.856   6.061   2.295 -2.1656  0.1822  1.0250
12171SOL    HW237348   7.918   5.945   2.370 -1.1978  1.2186  1.8778
12172SOL     OW37349   4.739   4.330   5.163 -0.5591  0.4477  0.6829
12172SOL    HW137350   4.716   4.238   5.146 -1.7741  0.8734 -0.0894
12172SOL    HW237351   4.790   4.357   5.087 -0.2104  0.4289  0.9054
12173SOL     OW37352   2.022   6.547   3.527 -0.2407  0.2513 -0.3011
12173SOL    HW137353   1.934   6.579   3.508 -0.7886 -1.1055 -0.1663
12173SOL    HW237354   2.079   6.597   3.469 -1.1432  0.8872 -0.6614
12174SOL     OW37355   3.246   2.462   0.262 -0.3496 -0.6469 -0.4089
12174SOL    HW137356   3.213   2.416   0.185  1.9724 -0.5806 -1.4990
12174SOL    HW237357   3.315   2.406   0.297  1.4629  1.2001 -0.8538
12175SOL     OW37358   4.049   2.896   4.864 -0.4626 -0.0781  0.1780
12175SOL    HW137359   4.070   2.990   4.857 -0.7235 -0.0444 -0.1439
12175SOL    HW237360   4.074   2.860   4.779 -0.5396 -0.2660  0.2361
12176SOL     OW37361   0.731   1.909   0.350  0.2530 -0.1998  1.3261
12176SOL    HW137362   0.777   1.912   0.434  0.2447  0.4686  1.3130
12176SOL    HW237363   0.767   1.983   0.301  0.0526 -0.4173  0.8475
12177SOL     OW37364   0.559   6.453   7.420 -0.1342 -0.4443  0.8149
12177SOL    HW137365   0.619   6.410   7.359  0.3994  0.2774  0.8038
12177SOL    HW237366   0.472   6.439   7.383  0.1886  0.0666 -0.1780
12178SOL     OW37367   5.091   7.063   0.645  0.1532  0.0119 -0.1679
12178SOL    HW137368   5.159   6.997   0.662  1.3368  0.9792 -1.0000
12178SOL    HW237369   5.134   7.147   0.662 -0.9270  0.6276 -0.4134
12179SOL     OW37370   0.373   0.553   2.469 -1.1508 -0.3650  0.7877
12179SOL    HW137371   0.390   0.563   2.375  0.7791  0.5166  1.1847
12179SOL    HW237372   0.440   0.492   2.500 -0.4218  0.9513  1.9293
12180SOL     OW37373   0.709   4.562   3.589 -0.2511  0.4883  0.1778
12180SOL    HW137374   0.744   4.497   3.528 -2.3749 -0.9915  0.4228
12180SOL    HW237375   0.785   4.614   3.614  1.0457 -0.0797 -2.2016
12181SOL     OW37376   6.319   3.226   2.956 -0.4644 -0.1803  0.2385
12181SOL    HW137377   6.392   3.208   3.015 -0.7629  1.0474  1.0133
12181SOL    HW237378   6.352   3.293   2.896 -1.0633  0.7028  0.8657
12182SOL     OW37379   4.185   4.278   1.870 -0.2194 -0.1755 -0.0742
12182SOL    HW137380   4.098   4.253   1.838 -0.7969  0.0636  1.2363
12182SOL    HW237381   4.231   4.311   1.793 -1.0880 -0.8306 -0.9002
12183SOL     OW37382   0.862   1.785   0.836  0.2888 -0.2189  0.4339
12183SOL    HW137383   0.773   1.752   0.840  0.6106 -1.0142  1.3075
12183SOL    HW237384   0.914   1.712   0.803  0.8391 -0.2426  1.3261
12184SOL     OW37385   3.351   6.746   7.801 -0.5163 -0.1980 -0.3257
12184SOL    HW137386   3.276   6.760   7.744 -0.8906 -0.2887  0.1326
12184SOL    HW237387   3.350   6.821   7.860 -0.9200 -0.7620  0.4032
12185SOL     OW37388   2.972   3.644   6.940  0.3618 -0.4082  0.4946
12185SOL    HW137389   2.980   3.740   6.932 -0.4061 -0.4770 -1.4390
12185SOL    HW237390   2.965   3.629   7.035 -0.6075  1.5356  0.7780
12186SOL     OW37391   6.923   3.755   7.319 -0.2496 -0.0992 -0.1894
12186SOL    HW137392   6.987   3.800   7.263 -3.6710  2.5316 -2.4351
12186SOL    HW237393   6.899   3.677   7.269  1.4786 -1.4338  0.9488
12187SOL     OW37394   4.815   2.757   4.771 -0.0997 -1.0565 -0.2855
12187SOL    HW137395   4.839   2.799   4.853 -1.1115  0.5921 -0.7841
12187SOL    HW237396   4.876   2.793   4.707  0.5138 -2.1303 -0.3231
12188SOL     OW37397   7.913   7.558   6.248 -0.1750  0.5381 -0.2592
12188SOL    HW137398   7.915   7.635   6.191 -1.7991  0.0522 -1.0321
12188SOL    HW237399   7.889   7.593   6.334 -1.7042  0.8313 -0.7778
12189SOL     OW37400   7.832   4.907   4.972  0.0933  0.3023  0.8958
12189SOL    HW137401   7.881   4.982   5.004  1.5925 -0.1565 -0.2100
12189SOL    HW237402   7.820   4.925   4.878  0.2277 -0.6933  0.6788
12190SOL     OW37403   2.809   7.417   3.396  0.1609 -0.2652  0.4091
12190SOL    HW137404   2.880   7.359   3.423 -0.9884 -1.2584  1.4159
12190SOL    HW237405   2.829   7.501   3.437  0.6417 -0.5969  0.8609
12191SOL     OW37406   7.538   4.686   6.558 -0.3719  0.1337 -0.7610
12191SOL    HW137407   7.587   4.756   6.516  1.3198 -0.1100  0.6888
12191SOL    HW237408   7.581   4.605   6.530  0.2668 -0.0774  0.7158
12192SOL     OW37409   6.198   6.815   7.544 -0.2738 -0.8473  0.1781
12192SOL    HW137410   6.162   6.726   7.552 -2.0429 -0.2053 -0.1066
12192SOL    HW237411   6.132   6.871   7.584  1.2175  0.2902  1.1457
12193SOL     OW37412   2.349   5.428   0.874  0.2530  0.4033 -0.3236
12193SOL    HW137413   2.347   5.341   0.914 -0.6734  0.8208  0.5934
12193SOL    HW237414   2.334   5.488   0.947 -1.5271  1.1843 -1.2771
12194SOL     OW37415   3.220   7.847   0.175 -0.5571  0.0836  0.8027
12194SOL    HW137416   3.295   7.788   0.180 -0.3923  0.3573  1.6793
12194SOL    HW237417   3.235   7.911   0.244  0.3208  2.4110 -1.3777
12195SOL     OW37418   5.924   0.229   1.841  0.4713  0.4471  0.4571
12195SOL    HW137419   5.994   0.177   1.804 -0.5140 -2.3187  2.1818
12195SOL    HW237420   5.860   0.237   1.770  2.1317  2.4997 -0.9402
12196SOL     OW37421   6.820   4.803   5.744 -0.5717 -0.2309 -0.0882
12196SOL    HW137422   6.900   4.857   5.745  1.1439 -2.5929 -0.8817
12196SOL    HW237423   6.777   4.823   5.827  0.7577  1.2234  0.3080
12197SOL     OW37424   1.909   2.499   6.994 -0.3492  0.6785  0.2704
12197SOL    HW137425   1.917   2.421   7.049  3.3849 -0.2744 -1.2873
12197SOL    HW237426   1.930   2.572   7.052 -1.4012  0.2942  1.1721
12198SOL     OW37427   7.859   5.216   1.734 -0.4677  0.1012 -0.9942
12198SOL    HW137428   7.889   5.233   1.645  1.1251  0.0485 -0.5140
12198SOL    HW237429   7.922   5.263   1.789 -0.6956 -0.8778  0.1348
12199SOL     OW37430   0.708   4.276   4.229 -0.0969  0.4104 -0.1846
12199SOL    HW137431   0.749   4.334   4.165 -1.7292  1.8939  0.0676
12199SOL    HW237432   0.637   4.234   4.182  0.1532 -0.2823  0.0431
12200SOL     OW37433   7.566   0.016   5.924  0.1482 -0.4029  0.2477
12200SOL    HW137434   7.515  -0.062   5.903  1.5696 -1.7428  1.4878
12200SOL    HW237435   7.521   0.087   5.880 -1.8335 -1.7551 -0.0279
12201SOL     OW37436   3.302   2.691   0.008  0.0943 -0.9403  0.2194
12201SOL    HW137437   3.344   2.728   0.085  1.5525 -0.2260 -0.8554
12201SOL    HW237438   3.325   2.598   0.010 -0.4441 -1.0575  0.9915
12202SOL     OW37439   5.870   6.785   1.207  0.0327 -0.0385  0.2035
12202SOL    HW137440   5.894   6.694   1.190 -0.4460  0.0292 -0.9357
12202SOL    HW237441   5.844   6.787   1.299 -1.0275 -1.2910 -0.0469
12203SOL     OW37442   6.957   4.656   5.943 -0.0796 -0.4168 -0.0154
12203SOL    HW137443   6.908   4.684   5.866  1.7409 -2.0587 -1.8994
12203SOL    HW237444   6.945   4.561   5.946  0.4269 -0.4609  1.3700
12204SOL     OW37445   6.019   3.682   4.935 -0.0184  0.6349 -0.3650
12204SOL    HW137446   5.962   3.745   4.979 -0.3714  0.9291 -1.2321
12204SOL    HW237447   6.046   3.726   4.854  0.3449 -0.0356 -0.6166
12205SOL     OW37448   0.633   0.373   3.208 -0.3550 -0.3583 -0.0253
12205SOL    HW137449   0.599   0.455   3.170  0.6599 -0.1439 -0.4983
12205SOL    HW237450   0.720   0.363   3.169 -0.6970 -1.9887 -0.4471
12206SOL     OW37451   3.143   2.829   7.786  0.0378 -0.5844 -0.2268
12206SOL    HW137452   3.203   2.796   7.854 -0.6297 -0.1450  0.5876
12206SOL    HW237453   3.177   2.791   7.705  0.0355 -2.2711  0.5201
12207SOL     OW37454   1.962   1.786   3.012  0.1377  0.4829  0.0702
12207SOL    HW137455   1.975   1.700   3.052 -2.6955  0.6135  1.5410
12207SOL    HW237456   2.037   1.838   3.042  1.0492 -0.9987  0.4827
12208SOL     OW37457   1.308   1.994   2.402 -0.1828  1.0373 -0.1047
12208SOL    HW137458   1.229   2.038   2.370 -1.1463 -0.2882  0.3779
12208SOL    HW237459   1.297   1.988   2.497  0.2548  0.3919 -0.0842
12209SOL     OW37460   5.518   5.822   3.489 -0.3619 -0.5833  0.4188
12209SOL    HW137461   5.437   5.775   3.508 -0.0759 -0.9367  0.7655
12209SOL    HW237462   5.579   5.754   3.459  0.4235 -0.6315  2.0461
12210SOL     OW37463   7.799   7.623   3.693 -0.1290  0.5441 -0.1214
12210SOL    HW137464   7.856   7.582   3.629  0.7686  1.3248  0.1536
12210SOL    HW237465   7.820   7.580   3.776 -0.4215  0.3739 -0.1327
12211SOL     OW37466   1.777   4.209   1.751  0.3342  0.3277 -0.3831
12211SOL    HW137467   1.837   4.135   1.744 -0.7128 -0.6305  0.4054
12211SOL    HW237468   1.793   4.245   1.839 -0.3874 -0.0954 -0.0634
12212SOL     OW37469   6.848   4.081   5.248 -0.2259  0.1882 -0.4762
12212SOL    HW137470   6.760   4.101   5.216 -0.3942 -1.2028 -0.9385
12212SOL    HW237471   6.851   3.986   5.254  0.7128  0.2786  1.1207
12213SOL     OW37472   7.352   7.590   7.903  0.4750  0.2146 -0.0631
12213SOL    HW137473   7.365   7.497   7.887 -1.6904 -0.0893 -0.3528
12213SOL    HW237474   7.355   7.630   7.816  0.1179  0.2224 -0.0730
12214SOL     OW37475   6.325   0.289   2.439  0.2285 -0.4040  1.0611
12214SOL    HW137476   6.239   0.265   2.474 -0.4683 -0.0856 -0.3366
12214SOL    HW237477   6.319   0.384   2.423  0.2076 -0.6563 -0.6295
12215SOL     OW37478   0.478   3.648   2.340  0.0125 -0.0134  0.1290
12215SOL    HW137479   0.537   3.684   2.274 -1.0710 -1.1963 -1.5656
12215SOL    HW237480   0.535   3.600   2.400  0.7833 -1.3813 -1.6252
12216SOL     OW37481   2.098   4.532   5.313 -0.1761  0.4797 -0.0897
12216SOL    HW137482   2.088   4.520   5.407  0.7411 -0.4195 -0.0915
12216SOL    HW237483   2.134   4.621   5.304  2.2978 -0.3656  0.6200
12217SOL     OW37484   3.390   3.194   2.564  0.4238 -0.8728 -0.8649
12217SOL    HW137485   3.380   3.256   2.492 -1.2250 -1.5384 -1.2445
12217SOL    HW237486   3.369   3.245   2.643  1.5629 -0.3275 -0.8805
12218SOL     OW37487   6.638   3.338   4.123 -0.1475  0.3142 -0.1450
12218SOL    HW137488   6.607   3.251   4.100 -0.0816  0.6670 -1.6861
12218SOL    HW237489   6.641   3.385   4.040  0.5862  1.5426  0.5444
12219SOL     OW37490   7.741   2.193   4.534  0.2715  0.2933  0.4797
12219SOL    HW137491   7.819   2.165   4.487 -0.0107 -0.0462  0.2177
12219SOL    HW237492   7.772   2.205   4.624  1.1375  2.2828 -0.0229
12220SOL     OW37493   6.586   5.992   4.461 -0.6038 -0.2337  0.4375
12220SOL    HW137494   6.535   6.052   4.405 -1.6755 -1.1597  0.3733
12220SOL    HW237495   6.599   5.914   4.406 -0.0152 -0.4125  0.8277
12221SOL     OW37496   7.021   1.539   2.438 -0.1307  0.0155  0.2380
12221SOL    HW137497   7.038   1.459   2.488  0.1751 -0.0264  0.0663
12221SOL    HW237498   7.108   1.571   2.413 -0.3096 -0.7341 -1.4871
12222SOL     OW37499   6.575   2.645   5.632 -0.1572  0.1567  0.6528
12222SOL    HW137500   6.635   2.581   5.593 -0.8008 -0.5486  0.7911
12222SOL    HW237501   6.591   2.725   5.583 -0.1221 -0.3960 -0.2741
12223SOL     OW37502   3.512   2.085   0.903  0.1188 -1.0031  0.0801
12223SOL    HW137503   3.466   2.168   0.917  1.9113 -0.1077  1.1168
12223SOL    HW237504   3.490   2.059   0.814 -1.5359 -0.1139  0.1974
12224SOL     OW37505   6.877   0.791   7.691 -0.6107 -0.4051  0.6518
12224SOL    HW137506   6.858   0.856   7.758  0.8072 -0.5503  1.2281
12224SOL    HW237507   6.891   0.842   7.611  1.1786  0.0881  1.2487
12225SOL     OW37508   7.768   7.250   5.265 -0.2660 -0.3133 -0.2315
12225SOL    HW137509   7.713   7.259   5.187 -0.2663 -2.1217 -0.4742
12225SOL    HW237510   7.805   7.338   5.278 -3.6243  1.1797  0.3034
12226SOL     OW37511   0.331   4.710   0.346  0.0670  0.0081 -0.0746
12226SOL    HW137512   0.420   4.744   0.335 -0.6900  2.3692  0.4771
12226SOL    HW237513   0.309   4.731   0.437 -1.2228 -0.0990 -0.3463
12227SOL     OW37514   5.664   0.162   4.018  0.0562  0.5964 -0.1746
12227SOL    HW137515   5.596   0.096   4.009  0.7188 -0.0482 -0.5747
12227SOL    HW237516   5.651   0.221   3.944  0.1629  0.2527 -0.4714
12228SOL     OW37517   3.741   0.891   2.127 -0.1153  0.0035 -0.0172
12228SOL    HW137518   3.714   0.975   2.164  1.6584  0.1258  1.0805
12228SOL    HW237519   3.661   0.856   2.088 -1.2740  1.4234  0.9746
12229SOL     OW37520   5.190   6.635   5.264 -0.2002 -0.4398 -0.4065
12229SOL    HW137521   5.277   6.629   5.223 -0.3069  0.2382 -0.7481
12229SOL    HW237522   5.193   6.571   5.336  1.1325  0.6367  0.5608
12230SOL     OW37523   1.235   0.627   4.643 -0.2650  0.5092 -0.8602
12230SOL    HW137524   1.151   0.669   4.624 -0.5176  0.3621 -0.1287
12230SOL    HW237525   1.279   0.688   4.703 -0.9837 -0.5879  0.8755
12231SOL     OW37526   0.073   4.449   5.231  0.0807  0.2175  0.8160
12231SOL    HW137527   0.075   4.532   5.279 -1.3130 -0.2047  1.6541
12231SOL    HW237528  -0.011   4.410   5.253 -0.1123 -0.5611 -1.0611
12232SOL     OW37529   1.647   6.733   4.169  0.0254  0.0867  0.1720
12232SOL    HW137530   1.592   6.690   4.103  1.0233 -0.4231 -0.3444
12232SOL    HW237531   1.693   6.802   4.121 -1.1954  1.4478  0.8990
12233SOL     OW37532   0.684   2.789   6.646 -0.4660  0.6429  0.0675
12233SOL    HW137533   0.635   2.748   6.717 -3.5627 -0.3002 -2.3647
12233SOL    HW237534   0.673   2.883   6.661 -0.2157  0.4793  1.3385
12234SOL     OW37535   1.181   0.500   3.391 -0.0949 -0.1875  0.2682
12234SOL    HW137536   1.229   0.472   3.469  0.5917  0.3909  0.0627
12234SOL    HW237537   1.192   0.427   3.330  0.8519  0.0850  0.0923
12235SOL     OW37538   0.455   6.092   7.737 -0.0284 -0.1197  0.2782
12235SOL    HW137539   0.360   6.081   7.742  0.0917 -0.9562  1.0484
12235SOL    HW237540   0.483   6.029   7.671  0.0720 -0.4587  0.6411
12236SOL     OW37541   5.744   0.680   2.291  0.1159 -0.3002 -0.1323
12236SOL    HW137542   5.726   0.724   2.374 -3.2778 -0.1360 -0.8234
12236SOL    HW237543   5.750   0.587   2.313  1.3818 -0.0966  0.5080
12237SOL     OW37544   6.652   3.142   4.712  0.4971  0.6039  0.1038
12237SOL    HW137545   6.683   3.222   4.755 -0.2119  0.9053  0.0667
12237SOL    HW237546   6.593   3.103   4.777  1.2715 -0.1870  0.3473
12238SOL     OW37547   2.527   6.549   2.894  0.5009 -0.3011 -0.5835
12238SOL    HW137548   2.507   6.460   2.866 -0.9205 -0.5882  1.1753
12238SOL    HW237549   2.441   6.590   2.907  1.1249  0.8289  0.1153
12239SOL     OW37550   2.147   2.700   4.621 -0.0326  0.1077  1.0132
12239SOL    HW137551   2.204   2.775   4.604  0.0386  0.0637  1.0553
12239SOL    HW237552   2.065   2.721   4.577 -1.1232  1.6281  3.5983
12240SOL     OW37553   4.623   5.266   3.007 -0.2933  0.3962 -0.6285
12240SOL    HW137554   4.570   5.313   3.071  0.3610 -0.3480  0.5022
12240SOL    HW237555   4.613   5.315   2.925 -1.4783  1.1298 -0.0585
12241SOL     OW37556   5.474   0.062   7.661 -0.3017 -0.0508 -0.4595
12241SOL    HW137557   5.444   0.149   7.635 -0.9008  0.3286  1.3497
12241SOL    HW237558   5.431   0.003   7.599  1.0241  0.9511 -2.4635
12242SOL     OW37559   6.245   3.767   7.217  0.0777  0.5992  0.1115
12242SOL    HW137560   6.306   3.693   7.226  0.5673  0.7469 -1.6259
12242SOL    HW237561   6.265   3.804   7.131 -3.5644 -0.3132 -1.3030
12243SOL     OW37562   7.935   3.733   6.285 -0.4300  0.1118  0.2794
12243SOL    HW137563   7.891   3.654   6.316  0.7650 -0.3948  0.7416
12243SOL    HW237564   7.865   3.797   6.273 -1.3907 -0.9499  0.0978
12244SOL     OW37565   2.013   5.292   6.281 -0.2802  0.2157 -0.1590
12244SOL    HW137566   1.934   5.263   6.326 -0.2055 -1.4445 -1.0486
12244SOL    HW237567   2.065   5.334   6.350 -0.8840 -0.8190  0.9689
12245SOL     OW37568   7.291   4.200   4.305 -0.0048  0.2053 -0.2072
12245SOL    HW137569   7.215   4.235   4.258 -1.3130 -2.5099 -0.2919
12245SOL    HW237570   7.326   4.132   4.248  0.3589 -0.9416  1.3247
12246SOL     OW37571   7.187   0.190   1.449  0.3808  0.8067 -0.2103
12246SOL    HW137572   7.209   0.124   1.514 -2.0311 -0.4497 -0.5745
12246SOL    HW237573   7.094   0.177   1.431  0.1129  3.4681 -1.2733
12247SOL     OW37574   7.258   0.597   3.773  0.2703 -0.6855  0.1125
12247SOL    HW137575   7.271   0.527   3.837 -1.8396 -0.5341  0.7831
12247SOL    HW237576   7.345   0.613   3.737  0.9551 -3.0825  0.5096
12248SOL     OW37577   0.473   0.789   5.533 -0.1656 -0.0994 -0.1959
12248SOL    HW137578   0.474   0.875   5.492  0.5999  0.9291  1.8676
12248SOL    HW237579   0.554   0.786   5.584  0.1373 -2.3051 -0.7019
12249SOL     OW37580   2.958   3.851   3.013 -0.0544  0.0283 -0.3189
12249SOL    HW137581   2.957   3.912   2.939  1.1867 -0.5879 -0.8706
12249SOL    HW237582   3.043   3.807   3.007 -0.5423 -1.0937  0.6159
12250SOL     OW37583   5.710   5.792   5.390  0.3040  0.5603 -0.0087
12250SOL    HW137584   5.649   5.766   5.459 -0.3178 -0.8374 -1.0284
12250SOL    HW237585   5.753   5.870   5.424  1.0878 -0.8857  2.6078
12251SOL     OW37586   1.314   0.557   5.282  0.1190  0.0797 -0.7557
12251SOL    HW137587   1.303   0.651   5.272  1.0384  0.8084  3.2420
12251SOL    HW237588   1.408   0.543   5.276 -0.0025 -0.6040 -1.2189
12252SOL     OW37589   5.707   2.889   1.920  0.6490 -0.1787 -0.0493
12252SOL    HW137590   5.767   2.964   1.921  0.4391  0.0012 -0.5046
12252SOL    HW237591   5.758   2.818   1.881  0.1724  0.3316 -1.6875
12253SOL     OW37592   6.810   6.844   1.317 -0.1308 -0.6049  0.5825
12253SOL    HW137593   6.787   6.755   1.343  0.2928 -0.5584  1.1278
12253SOL    HW237594   6.728   6.893   1.325  0.2624 -0.2323  3.3924
12254SOL     OW37595   0.529   0.053   6.473  0.2394 -0.3914  0.6759
12254SOL    HW137596   0.500   0.138   6.507  1.3854  0.4019 -0.2042
12254SOL    HW237597   0.625   0.060   6.471  0.2971 -1.1408 -0.7520
12255SOL     OW37598   2.841   0.095   5.339 -0.0891 -0.9701 -0.1366
12255SOL    HW137599   2.843   0.106   5.434  0.7135 -1.6090 -0.0687
12255SOL    HW237600   2.925   0.130   5.309 -1.1086  0.9890 -0.8344
12256SOL     OW37601   1.543   3.586   4.023 -0.9598  0.6121  0.5745
12256SOL    HW137602   1.474   3.643   3.989 -2.1318  1.1152  3.4819
12256SOL    HW237603   1.613   3.646   4.049 -0.4359  0.3126 -0.1070
12257SOL     OW37604   7.036   0.090   1.920 -0.3010  0.1731 -0.0273
12257SOL    HW137605   7.065   0.034   1.992 -1.2855 -0.2485  0.0513
12257SOL    HW237606   7.037   0.178   1.957  1.3497  0.2579 -0.1798
12258SOL     OW37607   5.561   0.266   3.458 -0.0042  0.4629  0.1968
12258SOL    HW137608   5.625   0.275   3.387 -0.7230 -0.0685 -0.5382
12258SOL    HW237609   5.592   0.191   3.509 -1.0895 -1.0749 -1.3261
12259SOL     OW37610   3.672   7.734   2.964  0.5258 -0.7983 -0.1573
12259SOL    HW137611   3.670   7.822   2.924 -0.8974 -0.9862 -0.5576
12259SOL    HW237612   3.584   7.721   2.997  0.8598 -1.8974  0.3345
12260SOL     OW37613   7.704   3.430   6.943 -0.0515  0.3356 -0.2887
12260SOL    HW137614   7.756   3.510   6.951  0.7996 -0.1444 -0.8490
12260SOL    HW237615   7.631   3.442   7.004  1.9223  0.0604  2.2769
12261SOL     OW37616   2.943   2.944   5.170  0.4030  0.1035  0.4099
12261SOL    HW137617   3.007   2.946   5.242  0.9322  1.2103 -0.0662
12261SOL    HW237618   2.872   3.002   5.200 -0.2769 -0.9148  0.8247
12262SOL     OW37619   3.647   7.779   7.248 -0.8083  0.2877  0.7979
12262SOL    HW137620   3.610   7.866   7.235 -1.2330 -0.1983 -1.9496
12262SOL    HW237621   3.710   7.769   7.177 -0.9374 -1.7260  0.9052
12263SOL     OW37622   3.691   1.070   5.885  0.0740 -0.8371  0.5124
12263SOL    HW137623   3.725   1.114   5.962  1.6418 -0.8463 -0.1381
12263SOL    HW237624   3.670   1.141   5.824 -1.6646 -0.7979  1.1010
12264SOL     OW37625   5.426   5.996   1.759  0.3066  0.0411  0.0154
12264SOL    HW137626   5.469   5.925   1.712 -0.1778 -0.2482  0.0034
12264SOL    HW237627   5.395   5.956   1.840  0.3235  0.3199  0.1620
12265SOL     OW37628   2.630   4.480   2.050  0.0869 -0.8215  0.2268
12265SOL    HW137629   2.657   4.444   2.134  0.0477  0.1736  0.6757
12265SOL    HW237630   2.705   4.530   2.020 -0.0577 -0.8121 -0.1254
12266SOL     OW37631   3.009   5.285   0.899 -0.4224  0.2447  0.1329
12266SOL    HW137632   3.037   5.372   0.928 -0.5737 -0.5972  3.1841
12266SOL    HW237633   3.064   5.266   0.823  0.5846  2.4262  0.2321
12267SOL     OW37634   6.171   0.367   0.076  0.0081  0.3330  0.5163
12267SOL    HW137635   6.080   0.338   0.074  0.0572  0.1841  0.4141
12267SOL    HW237636   6.217   0.299   0.125  0.0741  0.3823  0.5238
12268SOL     OW37637   4.889   7.637   3.634 -0.0644  0.3718  0.0565
12268SOL    HW137638   4.865   7.689   3.557  0.2803  0.5239  0.0487
12268SOL    HW237639   4.873   7.696   3.708  0.6392  0.6098  0.0262
12269SOL     OW37640   2.643   5.491   7.328 -0.3385  0.3172  0.3147
12269SOL    HW137641   2.673   5.512   7.417  0.5458  0.8611 -0.0996
12269SOL    HW237642   2.594   5.568   7.301 -0.7948  0.0614  0.4053
12270SOL     OW37643   4.240   5.708   0.165 -0.6956  0.1004 -0.3052
12270SOL    HW137644   4.233   5.643   0.234  0.0698 -0.3977 -0.6778
12270SOL    HW237645   4.166   5.690   0.107 -1.0635  0.2144  0.1260
12271SOL     OW37646   2.856   7.669   6.675  0.1025 -0.1220 -0.2792
12271SOL    HW137647   2.801   7.740   6.705  0.9900  0.6625 -0.4531
12271SOL    HW237648   2.944   7.692   6.705  0.6587 -0.3857 -1.5950
12272SOL     OW37649   7.836   6.344   4.747  0.3508  0.0980 -0.0745
12272SOL    HW137650   7.922   6.357   4.786 -0.3079 -1.9365  2.3370
12272SOL    HW237651   7.842   6.259   4.703 -0.8585 -1.0533  1.8127
12273SOL     OW37652   0.935   4.232   6.361  0.1053  0.5415  0.2209
12273SOL    HW137653   0.849   4.216   6.399  0.3008 -0.3671  0.3069
12273SOL    HW237654   0.985   4.152   6.378  0.2392  0.1184 -1.8318
12274SOL     OW37655   6.079   0.363   1.004 -0.2285 -1.1096 -0.0980
12274SOL    HW137656   6.138   0.295   1.037  1.0364  0.3557  0.7710
12274SOL    HW237657   6.014   0.374   1.073 -0.8716 -1.9430 -0.5641
12275SOL     OW37658   4.977   4.605   3.465  0.1948  0.1296  0.0195
12275SOL    HW137659   4.975   4.681   3.407  1.0676  1.7246  1.9805
12275SOL    HW237660   4.888   4.597   3.497  0.0022  0.0421 -0.5276
12276SOL     OW37661   0.354   1.661   1.960 -0.2447 -0.1316  0.2738
12276SOL    HW137662   0.346   1.585   1.902 -0.9851 -1.0457  1.5118
12276SOL    HW237663   0.295   1.641   2.033  0.9247  0.7865  1.5197
12277SOL     OW37664   0.691   3.427   3.766 -1.1432  0.3504 -0.0603
12277SOL    HW137665   0.699   3.512   3.722  0.9705 -0.4520 -1.3762
12277SOL    HW237666   0.707   3.363   3.697  1.5275 -0.9762  1.6321
12278SOL     OW37667   7.296   6.188   0.735 -0.4745  0.5683 -0.1918
12278SOL    HW137668   7.217   6.193   0.788 -0.8416 -0.2428 -0.6402
12278SOL    HW237669   7.298   6.271   0.687 -0.8305  0.7625  0.1210
12279SOL     OW37670   0.384   6.477   0.631 -0.2703  0.5370 -0.1371
12279SOL    HW137671   0.454   6.470   0.567 -0.0617 -1.1072  0.2284
12279SOL    HW237672   0.305   6.454   0.583 -0.0390 -1.2650  0.2821
12280SOL     OW37673   2.725   0.139   2.576 -0.5444 -0.2542  0.2563
12280SOL    HW137674   2.739   0.161   2.485  0.1385 -0.8022  0.2264
12280SOL    HW237675   2.810   0.112   2.609 -0.4538  1.3189  1.4572
12281SOL     OW37676   6.722   3.598   0.063 -0.3849 -0.7796  0.0185
12281SOL    HW137677   6.649   3.574   0.120 -1.0282 -0.4325 -0.6370
12281SOL    HW237678   6.682   3.651  -0.006  0.2242 -1.8720 -1.2161
12282SOL     OW37679   3.430   5.225   0.151  0.2839 -0.0967 -0.0992
12282SOL    HW137680   3.431   5.289   0.079  0.7828 -0.4229 -0.3929
12282SOL    HW237681   3.437   5.278   0.230  0.9549  0.2070 -0.3513
12283SOL     OW37682   1.899   7.770   7.941  0.1358  0.5270 -0.5929
12283SOL    HW137683   1.844   7.844   7.966  0.2661  0.4433 -0.0426
12283SOL    HW237684   1.953   7.803   7.870 -0.6902  0.5805 -1.2106
12284SOL     OW37685   2.434   5.400   4.037 -0.3499 -0.1517  0.1925
12284SOL    HW137686   2.432   5.411   3.942 -0.1766  1.4413  0.3422
12284SOL    HW237687   2.352   5.438   4.067 -1.2557 -2.2588  0.5902
12285SOL     OW37688   5.941   3.711   3.352  0.4082 -0.1398 -0.4486
12285SOL    HW137689   5.910   3.787   3.303  1.0440 -0.3748 -1.2263
12285SOL    HW237690   6.027   3.736   3.385  1.2391 -0.9756 -1.8588
12286SOL     OW37691   6.896   4.068   6.595  0.2890 -0.8377  0.6524
12286SOL    HW137692   6.950   4.049   6.518  0.2067 -2.0050  0.8694
12286SOL    HW237693   6.949   4.127   6.648  1.3452 -1.9045  0.8208
12287SOL     OW37694   4.641   7.192   5.949 -0.2691 -0.1223  0.6035
12287SOL    HW137695   4.660   7.277   5.908 -1.2317  0.6952  1.7495
12287SOL    HW237696   4.673   7.201   6.038  0.8577 -1.4916  0.3692
12288SOL     OW37697   3.574   4.924   1.214  0.0543  0.0669 -0.5434
12288SOL    HW137698   3.650   4.960   1.168 -0.4596  1.3660 -0.4038
12288SOL    HW237699   3.610   4.889   1.295  0.5823  0.1760 -0.7286
12289SOL     OW37700   1.058   5.673   5.671  0.0972 -0.4746 -0.1193
12289SOL    HW137701   1.068   5.650   5.763 -0.7609 -1.7975 -0.3267
12289SOL    HW237702   0.964   5.667   5.654 -0.0125  1.8412 -0.5894
12290SOL     OW37703   4.052   0.978   6.547  0.1981 -0.4443 -0.5590
12290SOL    HW137704   4.022   1.051   6.493  2.1316 -0.6353 -2.0069
12290SOL    HW237705   4.073   0.908   6.485 -0.0458 -1.6717  0.6657
12291SOL     OW37706   7.236   6.815   3.861  0.0868 -0.2196 -0.3812
12291SOL    HW137707   7.295   6.765   3.805  0.5724  0.0518 -0.1151
12291SOL    HW237708   7.215   6.757   3.934  0.2288 -0.2257 -0.3455
12292SOL     OW37709   5.892   3.466   5.535 -0.0202 -0.5548 -0.3035
12292SOL    HW137710   5.914   3.431   5.621 -0.8748  0.0372  0.1692
12292SOL    HW237711   5.890   3.390   5.478  1.6532 -0.8262 -0.0509
12293SOL     OW37712   0.204   1.418   4.496 -0.1614 -0.0346 -0.3772
12293SOL    HW137713   0.163   1.437   4.581  0.9540  1.0025 -0.0309
12293SOL    HW237714   0.251   1.336   4.510  1.9156  1.2464  0.7899
12294SOL     OW37715   5.961   7.430   7.601  0.3882 -0.1180  0.6821
12294SOL    HW137716   6.014   7.398   7.528 -0.3692  1.0742 -0.4350
12294SOL    HW237717   5.884   7.372   7.601  0.2394  0.0744  0.3221
12295SOL     OW37718   1.212   2.193   0.213  0.1039  0.2931 -0.3352
12295SOL    HW137719   1.243   2.267   0.160  0.9123 -1.0150 -1.7790
12295SOL    HW237720   1.292   2.149   0.242 -0.3191 -1.6675 -1.9465
12296SOL     OW37721   6.982   4.191   5.021  0.2955 -0.0648  0.2771
12296SOL    HW137722   6.914   4.130   4.993  0.2982 -0.4692  1.1588
12296SOL    HW237723   6.983   4.186   5.116 -1.0342  2.6942  0.5613
12297SOL     OW37724   3.939   5.279   1.609 -0.5884 -0.1130 -0.5456
12297SOL    HW137725   4.007   5.296   1.674 -0.5670  2.8459 -1.1823
12297SOL    HW237726   3.970   5.323   1.530 -2.8221  0.5967 -1.1026
12298SOL     OW37727   2.594   3.303   3.078  0.3411  0.0186  0.0736
12298SOL    HW137728   2.641   3.339   3.003  1.1743 -1.0993  0.0399
12298SOL    HW237729   2.559   3.219   3.048  2.4920 -1.5012  1.4707
12299SOL     OW37730   3.613   0.019   5.370  0.7311 -0.6987  0.7038
12299SOL    HW137731   3.543  -0.045   5.355  0.4552 -0.3291  0.3962
12299SOL    HW237732   3.580   0.075   5.440  0.8695 -0.7426  0.8046
12300SOL     OW37733   5.137   4.708   2.961  0.2886  0.7080 -0.3864
12300SOL    HW137734   5.232   4.695   2.964  0.4031  1.2651 -1.2792
12300SOL    HW237735   5.124   4.795   2.998 -0.1527 -0.3734  2.2531
12301SOL     OW37736   0.958   2.086   5.370 -0.0195  0.1483  0.3793
12301SOL    HW137737   1.040   2.135   5.372 -0.2569  0.5511  0.2423
12301SOL    HW237738   0.895   2.144   5.327 -0.1131 -0.5660 -0.4929
12302SOL     OW37739   3.169   0.468   4.948  0.4633  0.0331  0.4948
12302SOL    HW137740   3.117   0.401   4.904  0.8966  0.7015 -1.0784
12302SOL    HW237741   3.226   0.503   4.880 -0.6504  2.9086  0.9335
12303SOL     OW37742   7.920   6.624   3.848  0.2278  0.4083 -0.1254
12303SOL    HW137743   7.840   6.602   3.895  0.7306  0.4510  0.7673
12303SOL    HW237744   7.923   6.719   3.850  0.1496  0.4165 -0.4137
12304SOL     OW37745   2.298   1.420   7.659 -0.0634  0.0521 -0.0253
12304SOL    HW137746   2.246   1.354   7.706  1.9112 -0.0822  2.1060
12304SOL    HW237747   2.281   1.502   7.705  0.7948  0.1932  0.0597
12305SOL     OW37748   2.722   0.310   1.218 -0.1619  0.4496 -0.1622
12305SOL    HW137749   2.741   0.381   1.281  0.5609  0.4185 -0.3318
12305SOL    HW237750   2.758   0.342   1.135 -0.2327  0.0714 -0.3387
12306SOL     OW37751   2.974   3.415   2.271  0.1253 -0.5297  0.0165
12306SOL    HW137752   3.029   3.370   2.207 -1.4114 -2.2383 -0.1818
12306SOL    HW237753   2.917   3.347   2.307 -2.1427  1.1747 -0.0792
12307SOL     OW37754   4.384   6.753   0.132 -0.4330 -0.3585  0.6238
12307SOL    HW137755   4.417   6.833   0.091  0.3532 -1.2244 -0.4902
12307SOL    HW237756   4.297   6.777   0.163 -1.1836  0.3188 -1.7784
12308SOL     OW37757   3.804   4.194   7.617 -0.0948 -0.6724 -0.3806
12308SOL    HW137758   3.812   4.289   7.607 -0.8617 -0.7427 -2.2759
12308SOL    HW237759   3.794   4.180   7.711 -2.4775  1.3820 -0.2087
12309SOL     OW37760   6.320   1.184   5.996 -0.3044  0.3113 -0.2683
12309SOL    HW137761   6.342   1.160   5.906  0.9482  0.8271 -0.1306
12309SOL    HW237762   6.359   1.271   6.008  0.4842 -0.1821  1.0695
12310SOL     OW37763   1.465   0.717   5.824  0.0272 -0.3602 -0.3033
12310SOL    HW137764   1.537   0.774   5.851 -0.1618 -0.2734  0.0115
12310SOL    HW237765   1.489   0.630   5.857 -0.0493 -0.3169 -0.1352
12311SOL     OW37766   0.153   7.926   6.675  0.3467 -0.3401 -0.3443
12311SOL    HW137767   0.177   7.978   6.751  1.0997 -1.4690  0.2251
12311SOL    HW237768   0.064   7.896   6.693  0.2323  0.0397 -0.2788
12312SOL     OW37769   3.148   0.698   0.441  0.6297  0.0613 -0.2163
12312SOL    HW137770   3.169   0.786   0.473  2.3652 -0.4372  0.0822
12312SOL    HW237771   3.185   0.639   0.505 -0.5866 -0.9251 -0.3827
12313SOL     OW37772   6.904   5.294   0.344  0.1638  0.3924  0.0552
12313SOL    HW137773   6.831   5.355   0.334  0.1861  0.7148  1.5823
12313SOL    HW237774   6.958   5.307   0.266 -0.3225  1.6533 -0.0940
12314SOL     OW37775   1.956   5.972   7.138 -0.8609 -0.1900  0.0193
12314SOL    HW137776   2.033   5.942   7.090 -0.5633  1.1362 -0.3883
12314SOL    HW237777   1.884   5.920   7.104 -0.2083 -1.1903  0.1348
12315SOL     OW37778   6.459   2.277   7.436  0.0319  0.5127  0.0542
12315SOL    HW137779   6.428   2.198   7.480  1.5448 -1.7315 -2.5925
12315SOL    HW237780   6.379   2.322   7.408 -0.8658 -0.5308  0.8554
12316SOL     OW37781   5.044   2.997   0.742 -0.5475  0.1603  0.1751
12316SOL    HW137782   4.961   3.021   0.782  0.5963  4.0951  0.6826
12316SOL    HW237783   5.026   2.991   0.649 -1.8319 -1.8360  0.4902
12317SOL     OW37784   2.203   3.523   1.599 -0.1273 -0.4141 -0.1884
12317SOL    HW137785   2.111   3.502   1.614 -0.8273  2.1709 -0.2389
12317SOL    HW237786   2.238   3.537   1.686  0.5667 -2.4302 -0.0950
12318SOL     OW37787   0.166   5.525   7.049 -1.0459 -0.0426 -0.3450
12318SOL    HW137788   0.098   5.461   7.070 -2.4580  1.6956  0.6881
12318SOL    HW237789   0.163   5.532   6.954  0.8853 -3.2565 -0.7535
12319SOL     OW37790   1.087   0.804   7.305  0.1366  0.6444  0.3044
12319SOL    HW137791   0.994   0.822   7.319 -0.0211 -0.8998  1.5806
12319SOL    HW237792   1.089   0.756   7.222  0.1035  2.6824 -0.9342
12320SOL     OW37793   0.389   3.769   3.976  0.0086 -0.6970  0.0715
12320SOL    HW137794   0.387   3.706   3.904 -1.4853 -1.2602  0.5716
12320SOL    HW237795   0.362   3.851   3.936 -0.0329 -0.8253 -0.1663
12321SOL     OW37796   1.436   2.826   4.860  0.0735 -0.3389 -0.3685
12321SOL    HW137797   1.415   2.736   4.834 -1.3094  0.2257 -1.3418
12321SOL    HW237798   1.466   2.818   4.951  1.2507 -1.9153 -0.8564
12322SOL     OW37799   1.027   7.744   1.968 -0.1646  0.5432  0.1659
12322SOL    HW137800   1.092   7.744   1.898  0.6248 -0.4399  0.8826
12322SOL    HW237801   1.076   7.766   2.047 -0.6900 -0.2114  0.7196
12323SOL     OW37802   7.209   1.334   3.591 -0.2601 -0.1497 -0.4523
12323SOL    HW137803   7.210   1.243   3.562 -0.5763 -1.0634  2.1288
12323SOL    HW237804   7.131   1.371   3.550  0.5224 -0.6364 -2.5037
12324SOL     OW37805   6.652   2.712   7.552  0.2134 -0.0686 -0.3208
12324SOL    HW137806   6.687   2.679   7.470  0.3895 -0.2931 -0.1554
12324SOL    HW237807   6.596   2.641   7.584  1.8717 -0.8952  0.8562
12325SOL     OW37808   5.399   4.353   6.762 -0.0278  0.7396 -0.0754
12325SOL    HW137809   5.308   4.360   6.735 -0.0296 -0.0084 -0.2931
12325SOL    HW237810   5.429   4.270   6.725  0.3981  0.4021  0.9720
12326SOL     OW37811   5.767   1.113   4.317  0.5584  0.0118 -0.6053
12326SOL    HW137812   5.719   1.041   4.359  1.0267 -0.0691 -0.2082
12326SOL    HW237813   5.718   1.191   4.343  1.5158  0.1001  1.1378
12327SOL     OW37814   2.858   0.055   5.596 -0.0323 -0.1982  0.5114
12327SOL    HW137815   2.894  -0.020   5.642 -0.3633  0.4452  1.8757
12327SOL    HW237816   2.769   0.064   5.631 -0.7494 -0.4298 -1.1673
12328SOL     OW37817   5.109   6.737   4.360 -0.0260 -0.1204 -0.2476
12328SOL    HW137818   5.130   6.742   4.454  0.2531  0.0242 -0.3141
12328SOL    HW237819   5.106   6.643   4.341  0.9564 -0.1505 -0.3111
12329SOL     OW37820   5.209   5.445   0.022  0.4442 -0.1173  0.2562
12329SOL    HW137821   5.179   5.502  -0.049 -0.5171 -0.8072  0.0982
12329SOL    HW237822   5.302   5.467   0.031  0.3118  0.8108 -0.4230
12330SOL     OW37823   4.738   0.880   3.780 -0.1134 -0.2784 -0.2935
12330SOL    HW137824   4.675   0.807   3.777  2.0190 -2.4078  1.7663
12330SOL    HW237825   4.805   0.856   3.716  0.7803 -0.3849  0.6457
12331SOL     OW37826   5.333   1.092   7.565 -0.1356 -0.0355  0.0319
12331SOL    HW137827   5.407   1.083   7.506 -0.5954 -1.3541 -0.3731
12331SOL    HW237828   5.280   1.162   7.527  1.5293  1.9284  1.0657
12332SOL     OW37829   1.785   0.654   2.666  0.1658 -0.1868 -0.1641
12332SOL    HW137830   1.787   0.563   2.696  0.6915 -0.5093 -1.1185
12332SOL    HW237831   1.759   0.705   2.743 -1.1717 -1.2417  0.1171
12333SOL     OW37832   6.518   3.669   6.665  0.2695  0.3497  0.0623
12333SOL    HW137833   6.539   3.726   6.590 -2.0094  0.4270 -0.6073
12333SOL    HW237834   6.442   3.711   6.706  2.4348  1.2744  3.5792
12334SOL     OW37835   7.406   6.022   5.116  0.2108  0.1713 -0.6546
12334SOL    HW137836   7.479   5.989   5.167  0.2453  0.4974 -0.4908
12334SOL    HW237837   7.446   6.062   5.039  0.3629  2.0900  0.3629
12335SOL     OW37838   5.560   1.647   1.332 -0.5260  0.0174 -0.1849
12335SOL    HW137839   5.553   1.596   1.251  0.7379 -1.2169  0.4322
12335SOL    HW237840   5.478   1.630   1.378 -1.1745  0.5787 -1.0974
12336SOL     OW37841   5.888   7.931   6.379  0.5606  0.0566 -0.4746
12336SOL    HW137842   5.903   7.900   6.468  1.6767 -0.2068 -0.7453
12336SOL    HW237843   5.817   7.994   6.387 -1.1517 -1.8584  0.2275
12337SOL     OW37844   7.625   7.848   6.780  0.0631  0.0899  0.1532
12337SOL    HW137845   7.666   7.764   6.760 -1.4496 -0.8402  0.7307
12337SOL    HW237846   7.595   7.839   6.870 -0.7278  0.9879  0.0015
12338SOL     OW37847   4.400   7.766   2.442 -0.0507  0.2537  0.0148
12338SOL    HW137848   4.305   7.758   2.448 -0.1544  0.4717 -1.1703
12338SOL    HW237849   4.418   7.772   2.348  1.0934  0.6564  0.2455
12339SOL     OW37850   0.270   2.132   0.407 -0.4702  0.9762 -0.2948
12339SOL    HW137851   0.317   2.198   0.458  1.2543 -0.4381  0.0590
12339SOL    HW237852   0.268   2.166   0.318  2.4173  0.5711 -0.5941
12340SOL     OW37853   3.021   1.224   2.821  0.6400  0.0414 -0.6650
12340SOL    HW137854   2.950   1.276   2.785 -0.9373 -0.0454  2.0588
12340SOL    HW237855   3.002   1.134   2.794 -2.0663 -0.4541  2.3030
12341SOL     OW37856   6.395   7.508   6.131  0.4868 -0.0498 -0.2792
12341SOL    HW137857   6.386   7.546   6.043  1.7325  1.4116  0.1801
12341SOL    HW237858   6.463   7.561   6.173  2.0158 -2.5252  0.5958
12342SOL     OW37859   2.848   0.556   3.072 -0.3150 -0.4667  0.0235
12342SOL    HW137860   2.913   0.555   3.142  0.0670 -1.2120 -0.3311
12342SOL    HW237861   2.797   0.636   3.088 -0.8383 -1.0908  1.6928
12343SOL     OW37862   4.385   6.819   4.861 -0.2215 -0.0428 -0.1184
12343SOL    HW137863   4.305   6.810   4.912 -0.6854 -0.3737 -0.8954
12343SOL    HW237864   4.362   6.879   4.790  0.0134 -0.6998 -0.7600
12344SOL     OW37865   5.201   7.293   0.717  0.2077 -0.3879 -0.3224
12344SOL    HW137866   5.258   7.319   0.645  0.5824 -0.1503  0.0542
12344SOL    HW237867   5.179   7.375   0.761 -0.0958 -0.5216 -0.2215
12345SOL     OW37868   0.253   7.482   6.337  0.1842  0.1641 -0.1534
12345SOL    HW137869   0.230   7.453   6.426  1.4300  0.8429  0.4215
12345SOL    HW237870   0.170   7.508   6.298 -0.5982 -1.6635  0.2354
12346SOL     OW37871   6.664   1.479   0.667 -0.0945  0.1673  0.4309
12346SOL    HW137872   6.620   1.564   0.675 -1.1943 -0.4394  0.8971
12346SOL    HW237873   6.725   1.492   0.594 -2.5813  0.4029 -1.7482
12347SOL     OW37874   1.127   3.201   7.621 -1.0702  0.3738 -0.3723
12347SOL    HW137875   1.082   3.223   7.540 -1.5110  0.9093  0.0122
12347SOL    HW237876   1.140   3.285   7.666  1.4331  0.4081 -1.0244
12348SOL     OW37877   7.101   3.895   7.168 -0.2535  0.4852 -0.7040
12348SOL    HW137878   7.178   3.953   7.166  0.6686 -0.7078 -1.3820
12348SOL    HW237879   7.109   3.842   7.088 -2.7332  1.4968 -1.7367
12349SOL     OW37880   3.760   4.970   0.969 -0.9578 -0.6670  0.0097
12349SOL    HW137881   3.676   4.956   0.927 -0.6205 -0.1651 -0.8636
12349SOL    HW237882   3.753   5.055   1.011 -0.0539  0.6543 -2.3124
12350SOL     OW37883   5.361   5.284   7.363  0.0413 -0.2120  0.3937
12350SOL    HW137884   5.410   5.358   7.328 -0.6153 -0.2265 -0.5817
12350SOL    HW237885   5.269   5.308   7.352 -0.2754 -2.1870 -2.3975
12351SOL     OW37886   5.139   1.614   1.899 -0.0272 -0.3813  0.2874
12351SOL    HW137887   5.173   1.524   1.894 -0.4795 -0.5350 -0.1701
12351SOL    HW237888   5.065   1.609   1.958 -0.2331 -0.3707  0.0328
12352SOL     OW37889   3.010   5.088   6.518  0.2619  0.2147  0.4911
12352SOL    HW137890   3.038   5.179   6.507  1.1906 -0.1328 -0.1367
12352SOL    HW237891   3.011   5.074   6.612  1.1659  0.5401  0.5388
12353SOL     OW37892   0.942   6.916   0.816 -0.3399 -0.1915 -0.4014
12353SOL    HW137893   1.009   6.974   0.853 -2.0423  0.6856  1.5085
12353SOL    HW237894   0.906   6.966   0.743  1.3628 -0.9052 -1.8270
12354SOL     OW37895   0.660   7.324   0.677  0.2080 -0.5388  0.3360
12354SOL    HW137896   0.627   7.367   0.598  2.7655  0.1666 -0.4522
12354SOL    HW237897   0.694   7.395   0.730  1.9909 -1.2844  0.2762
12355SOL     OW37898   5.971   5.875   3.932 -0.3452 -0.2483  0.0484
12355SOL    HW137899   6.004   5.800   3.884  0.2581 -0.2720  0.4881
12355SOL    HW237900   6.044   5.902   3.988  0.2210  1.9975 -1.6320
12356SOL     OW37901   4.271   3.152   4.180 -0.2967 -0.2423  0.2029
12356SOL    HW137902   4.286   3.149   4.085  1.1519 -2.0598  0.4508
12356SOL    HW237903   4.353   3.122   4.219 -0.5309  1.3755  2.0983
12357SOL     OW37904   6.141   5.800   3.464  0.0471 -0.0852  0.6115
12357SOL    HW137905   6.071   5.865   3.467  0.2683  0.1161  1.5318
12357SOL    HW237906   6.221   5.851   3.477  0.1261 -0.6825  2.6970
12358SOL     OW37907   5.403   5.202   6.122  0.0585  0.3441 -0.4102
12358SOL    HW137908   5.441   5.141   6.186  0.7983  1.0120 -0.2098
12358SOL    HW237909   5.380   5.146   6.047 -1.7855 -0.6268  0.8127
12359SOL     OW37910   3.532   5.620   2.445 -0.2349  0.5125  0.1200
12359SOL    HW137911   3.499   5.569   2.371 -0.4592  2.7270 -1.4001
12359SOL    HW237912   3.627   5.616   2.436 -0.1901 -0.8345  0.9157
12360SOL     OW37913   2.729   5.715   6.305 -0.5831  0.3047  0.0684
12360SOL    HW137914   2.811   5.731   6.352 -0.2461 -0.3620 -0.2836
12360SOL    HW237915   2.747   5.638   6.251 -1.7995 -0.5812  0.8653
12361SOL     OW37916   3.261   5.371   7.592  0.0621 -0.2067  0.5978
12361SOL    HW137917   3.276   5.288   7.547 -1.6609 -0.9325  1.2605
12361SOL    HW237918   3.348   5.407   7.606  0.8130 -1.5930 -0.2682
12362SOL     OW37919   0.860   1.957   5.967  0.2114 -0.5798 -0.6348
12362SOL    HW137920   0.837   1.907   6.045 -2.1556 -0.6574 -1.3186
12362SOL    HW237921   0.815   2.040   5.977  1.9263  0.4233 -0.7906
12363SOL     OW37922   7.012   6.966   2.249 -0.1046 -0.4927 -0.3041
12363SOL    HW137923   7.051   6.992   2.332 -0.6652  0.2693 -0.2607
12363SOL    HW237924   7.053   6.883   2.227 -0.4761 -1.0559  1.0855
12364SOL     OW37925   5.622   2.432   1.809  0.0205 -0.0775  0.6006
12364SOL    HW137926   5.569   2.478   1.744 -0.0627 -0.1253  0.6345
12364SOL    HW237927   5.560   2.405   1.877  0.2882  1.1055  1.3546
12365SOL     OW37928   1.321   3.607   7.004 -0.6410  0.1132  0.0410
12365SOL    HW137929   1.271   3.671   6.954  2.0302  1.5852 -0.9512
12365SOL    HW237930   1.384   3.572   6.942  0.3623 -0.7703  1.4964
12366SOL     OW37931   5.863   5.552   7.626 -0.0326 -0.0745  0.0700
12366SOL    HW137932   5.878   5.641   7.658  1.7663  0.0251 -0.9419
12366SOL    HW237933   5.914   5.546   7.545  0.2641 -2.1758  0.3560
12367SOL     OW37934   3.088   1.201   4.037  0.5708  0.3767  0.3393
12367SOL    HW137935   3.080   1.270   3.972  1.3836  0.3609  0.2222
12367SOL    HW237936   3.103   1.121   3.985 -0.0641  0.1515  0.4876
12368SOL     OW37937   4.044   3.152   4.667 -0.3614 -0.0988  0.2753
12368SOL    HW137938   4.092   3.166   4.749 -0.7818 -0.9303  0.6794
12368SOL    HW237939   4.111   3.133   4.602 -0.1466 -1.8732  0.9648
12369SOL     OW37940   2.746   2.976   2.593 -0.0166 -0.5961 -0.5654
12369SOL    HW137941   2.792   3.034   2.653 -0.4637 -0.4411 -0.3689
12369SOL    HW237942   2.653   2.995   2.606 -0.0978  0.6560 -2.4986
12370SOL     OW37943   1.672   7.208   6.584  0.0340  0.1763  0.4331
12370SOL    HW137944   1.670   7.130   6.529 -1.3616  0.3033  0.2681
12370SOL    HW237945   1.668   7.174   6.674  2.8286 -0.0572  0.5705
12371SOL     OW37946   3.662   6.035   6.580 -0.3762 -0.0411  0.3904
12371SOL    HW137947   3.724   5.967   6.606  0.4331  0.9916  1.2575
12371SOL    HW237948   3.676   6.047   6.486  0.3849 -0.1674  0.4884
12372SOL     OW37949   1.736   6.810   4.869  0.0236  0.6666 -0.2439
12372SOL    HW137950   1.688   6.886   4.836 -1.9599 -0.2996  0.2604
12372SOL    HW237951   1.682   6.777   4.941  1.5052 -0.4606  0.4126
12373SOL     OW37952   4.661   5.474   1.653 -0.1567 -0.1334  0.2033
12373SOL    HW137953   4.743   5.463   1.606  0.9693  0.2192  1.9806
12373SOL    HW237954   4.673   5.425   1.734 -1.7366 -0.1091  0.4910
12374SOL     OW37955   1.667   4.071   2.190 -0.4020 -0.4535  0.0543
12374SOL    HW137956   1.747   4.115   2.218 -1.1922  0.3873  1.0770
12374SOL    HW237957   1.687   3.978   2.194  0.2464 -0.2736  1.1893
12375SOL     OW37958   4.442   4.925   1.974  0.0617 -0.2069  0.2943
12375SOL    HW137959   4.411   5.015   1.987  0.6294 -0.0477  0.5835
12375SOL    HW237960   4.442   4.913   1.880  2.5256  1.0264  0.0598
12376SOL     OW37961   0.349   3.011   4.415 -0.1655 -0.1711 -0.9453
12376SOL    HW137962   0.357   3.066   4.493  2.2169  1.1444 -2.0049
12376SOL    HW237963   0.356   2.922   4.449 -2.5348  0.1499  0.6448
12377SOL     OW37964   4.242   7.616   0.584  0.1194  0.0826 -0.3179
12377SOL    HW137965   4.223   7.640   0.674 -0.8636 -2.8861  0.3875
12377SOL    HW237966   4.336   7.596   0.584  0.1441  0.2003  0.0061
12378SOL     OW37967   2.819   7.754   7.593 -0.1777  0.2816  0.0531
12378SOL    HW137968   2.858   7.711   7.669  2.4880  3.2067  0.5778
12378SOL    HW237969   2.783   7.835   7.628 -1.6434  0.2907 -1.4030
12379SOL     OW37970   4.856   7.644   0.903  0.3421  0.3992 -0.0308
12379SOL    HW137971   4.765   7.627   0.930  0.0964  0.4975 -0.7845
12379SOL    HW237972   4.877   7.573   0.844 -0.1935  1.8194 -2.0387
12380SOL     OW37973   7.325   7.832   5.846  0.0034 -0.2888  0.2283
12380SOL    HW137974   7.297   7.740   5.842  1.6830 -0.8197  0.0243
12380SOL    HW237975   7.249   7.878   5.883 -1.4620 -1.4822 -1.1179
12381SOL     OW37976   1.129   2.582   5.799  0.0372 -0.3369 -0.1103
12381SOL    HW137977   1.119   2.617   5.710  1.7114 -0.5586 -0.4352
12381SOL    HW237978   1.083   2.499   5.798 -0.0916 -0.2629 -0.7380
12382SOL     OW37979   0.425   2.049   6.562  0.5112  0.3552 -0.3275
12382SOL    HW137980   0.472   2.004   6.492  1.1570 -1.4370  1.1822
12382SOL    HW237981   0.459   2.138   6.560  0.9472  0.1768 -1.8887
12383SOL     OW37982   3.510   0.040   2.180  0.2223 -0.0523 -0.6044
12383SOL    HW137983   3.508   0.008   2.089 -1.1323 -2.3619  0.1453
12383SOL    HW237984   3.602   0.036   2.205  0.6908  1.1431 -2.0095
12384SOL     OW37985   5.849   3.693   4.655 -0.8547 -0.2425 -0.0558
12384SOL    HW137986   5.842   3.786   4.672  0.6413  0.0841 -1.0081
12384SOL    HW237987   5.794   3.678   4.578 -1.4710 -0.2577  0.3765
12385SOL     OW37988   4.249   4.499   1.661 -0.2999  0.7029 -0.3909
12385SOL    HW137989   4.345   4.500   1.663 -0.2810  2.1545 -1.0370
12385SOL    HW237990   4.223   4.577   1.710 -1.1717  0.0641  0.1849
12386SOL     OW37991   5.772   2.667   7.727 -0.5698  0.0799 -0.2636
12386SOL    HW137992   5.676   2.672   7.727 -0.6166 -0.6113  0.6775
12386SOL    HW237993   5.793   2.628   7.642 -1.1779 -0.5202 -0.1485
12387SOL     OW37994   3.321   4.499   3.839  0.1170 -0.2394 -0.6520
12387SOL    HW137995   3.402   4.518   3.886 -0.0309 -3.5743  1.2870
12387SOL    HW237996   3.262   4.571   3.862  1.6877  0.8722  0.0665
12388SOL     OW37997   4.065   6.200   2.027  0.0614  0.5899  0.0652
12388SOL    HW137998   4.072   6.188   1.932 -2.8220  2.6471 -0.5440
12388SOL    HW237999   4.020   6.122   2.058  0.0506  0.3938 -0.4340
12389SOL     OW38000   2.961   1.670   6.558 -0.1520  0.3520  0.6353
12389SOL    HW138001   3.028   1.655   6.625  0.1163  0.9368  0.5102
12389SOL    HW238002   2.990   1.750   6.513 -0.6058  0.2587  0.1673
12390SOL     OW38003   2.691   3.234   1.414 -0.7302  0.0526  0.4126
12390SOL    HW138004   2.675   3.257   1.322 -0.0314 -1.1171 -0.0271
12390SOL    HW238005   2.607   3.198   1.444 -0.3564 -1.7352 -0.4979
12391SOL     OW38006   4.878   3.109   1.867 -0.0366  0.9223  0.6737
12391SOL    HW138007   4.920   3.024   1.877 -0.5060  0.7243  0.9440
12391SOL    HW238008   4.927   3.167   1.926  1.4779  1.2823 -0.8508
12392SOL     OW38009   5.731   5.556   1.439  0.2314  0.3591 -0.1718
12392SOL    HW138010   5.733   5.631   1.380  0.8241 -0.0017 -0.6206
12392SOL    HW238011   5.793   5.578   1.508  0.0652  0.4771 -0.0593
12393SOL     OW38012   0.434   7.049   7.929  0.0778  0.0767  0.3836
12393SOL    HW138013   0.402   7.107   7.859  0.7018 -0.5768 -0.4614
12393SOL    HW238014   0.367   6.980   7.935 -0.5468  0.7415  1.2277
12394SOL     OW38015   6.700   3.848   0.361  0.3654 -0.5801  0.1018
12394SOL    HW138016   6.643   3.785   0.317 -0.4068  1.4029 -1.9347
12394SOL    HW238017   6.649   3.929   0.363  1.8582  0.3979  1.2946
12395SOL     OW38018   5.645   7.578   1.454 -0.3234 -0.7550  0.7597
12395SOL    HW138019   5.588   7.624   1.515  0.4117 -0.2940  1.1057
12395SOL    HW238020   5.717   7.544   1.507  0.1665 -0.6132  0.2072
12396SOL     OW38021   5.035   6.944   3.473  0.6036 -0.1428  0.3642
12396SOL    HW138022   5.017   7.038   3.465 -0.5539 -0.3947 -0.2796
12396SOL    HW238023   5.023   6.926   3.566 -1.1477  0.0058  0.2038
12397SOL     OW38024   6.294   6.092   1.980 -0.2714  0.4486  0.2044
12397SOL    HW138025   6.323   6.131   1.898  0.6811 -0.6230  0.0128
12397SOL    HW238026   6.306   6.161   2.045  0.0297  0.9362 -0.3579
12398SOL     OW38027   1.830   6.378   2.956  0.2387 -0.4315  0.5738
12398SOL    HW138028   1.854   6.308   2.896  0.8094  0.3035 -0.0808
12398SOL    HW238029   1.843   6.341   3.043  0.5350 -1.1294  0.2401
12399SOL     OW38030   3.534   6.236   6.370  0.0205  0.0204 -0.1863
12399SOL    HW138031   3.490   6.320   6.381 -0.3035 -0.0737 -0.7535
12399SOL    HW238032   3.622   6.250   6.406  0.0132  0.6403 -0.4098
12400SOL     OW38033   7.284   2.297   0.348 -0.0279  0.4851  0.0891
12400SOL    HW138034   7.356   2.235   0.362  0.3449  0.6589 -0.9745
12400SOL    HW238035   7.220   2.247   0.297 -0.3932  0.5236  0.5066
12401SOL     OW38036   5.729   6.950   6.237  0.6678 -0.0248  0.0207
12401SOL    HW138037   5.647   6.924   6.195  0.4346 -1.1929  1.1424
12401SOL    HW238038   5.792   6.958   6.165 -0.0100 -0.7726 -0.6724
12402SOL     OW38039   1.154   2.717   4.131  0.7824  0.1375 -0.3734
12402SOL    HW138040   1.099   2.689   4.057  0.3662 -0.5641  0.1895
12402SOL    HW238041   1.109   2.684   4.208  1.5258  0.3547  0.1626
12403SOL     OW38042   6.845   3.002   6.222  0.3591 -0.1067 -0.2547
12403SOL    HW138043   6.751   3.011   6.237  0.4273 -0.9048  0.7646
12403SOL    HW238044   6.868   2.918   6.262  1.7510  0.7037  0.7198
12404SOL     OW38045   3.697   6.203   5.915 -0.7376 -0.7743 -0.3444
12404SOL    HW138046   3.617   6.247   5.889 -1.2674  0.3864  2.8218
12404SOL    HW238047   3.739   6.263   5.976  2.0579 -1.8027 -1.0839
12405SOL     OW38048   7.098   0.275   6.665 -0.4192  0.1120  0.2550
12405SOL    HW138049   7.163   0.234   6.723 -0.7213 -2.0614 -0.8619
12405SOL    HW238050   7.138   0.358   6.639  2.1147 -1.2957 -0.6530
12406SOL     OW38051   4.959   6.071   7.920 -0.4731 -0.0370  0.0855
12406SOL    HW138052   4.928   6.154   7.957 -2.3704 -1.2811  1.4468
12406SOL    HW238053   5.030   6.044   7.979  0.6744  0.9362 -0.7989
12407SOL     OW38054   1.483   5.970   5.776  0.0059  0.0293  0.5543
12407SOL    HW138055   1.522   5.893   5.817  1.6043  0.1282 -0.6698
12407SOL    HW238056   1.420   5.935   5.714  1.4436 -0.3922 -0.7246
12408SOL     OW38057   4.143   4.522   6.426  0.5244 -0.2269 -0.3346
12408SOL    HW138058   4.062   4.549   6.384 -0.5136 -1.5510  0.7360
12408SOL    HW238059   4.137   4.427   6.432  1.6279 -0.2614  0.7964
12409SOL     OW38060   7.303   4.385   6.236 -0.3813 -0.2667  0.0207
12409SOL    HW138061   7.237   4.348   6.179 -0.1840 -0.4533 -0.0896
12409SOL    HW238062   7.339   4.310   6.284 -1.6730  0.0670  1.5933
12410SOL     OW38063   7.139   5.606   0.103  0.2870  0.9751 -0.1109
12410SOL    HW138064   7.081   5.648   0.166 -3.0253  0.7202 -2.7187
12410SOL    HW238065   7.102   5.628   0.018  3.6501  0.0773 -1.9847
12411SOL     OW38066   1.133   7.288   3.076  0.0632 -0.0768  0.4596
12411SOL    HW138067   1.136   7.262   3.168  2.7235  0.4434  0.5715
12411SOL    HW238068   1.130   7.205   3.028  1.6977 -0.4509  0.9665
12412SOL     OW38069   3.636   6.026   0.054 -0.0824 -0.1228 -0.1381
12412SOL    HW138070   3.657   5.941   0.015  1.0059  0.1761 -0.2464
12412SOL    HW238071   3.649   6.012   0.148 -1.5458 -0.5186  0.0269
12413SOL     OW38072   2.716   7.044   6.046  0.2226  0.6656  0.2028
12413SOL    HW138073   2.736   7.028   6.138  0.6104 -1.2341 -0.1689
12413SOL    HW238074   2.659   7.121   6.047  0.5607  0.9318  1.9818
12414SOL     OW38075   3.073   7.918   1.469  0.3165  0.1822  0.0218
12414SOL    HW138076   3.018   7.891   1.396  0.6277  0.7878 -0.4472
12414SOL    HW238077   3.160   7.930   1.431  0.3426  1.1380  0.3510
12415SOL     OW38078   1.168   3.355   7.901 -0.4285  0.1095  0.2228
12415SOL    HW138079   1.089   3.369   7.850 -0.9477 -0.4299  0.8623
12415SOL    HW238080   1.146   3.385   7.989 -0.3603 -1.2086  0.7216
12416SOL     OW38081   3.916   0.561   3.069  0.2203  0.0195  0.4237
12416SOL    HW138082   3.916   0.640   3.015  2.4425  0.7551  1.3693
12416SOL    HW238083   3.974   0.501   3.023 -0.3843 -0.5447  0.3981
12417SOL     OW38084   4.105   2.814   5.738  0.0036 -0.2662 -0.6449
12417SOL    HW138085   4.111   2.903   5.705 -0.4424 -0.8835 -2.5629
12417SOL    HW238086   4.024   2.780   5.698  1.7844 -2.5080 -2.6512
12418SOL     OW38087   2.812   2.181   5.136 -0.2601  0.1051  0.7152
12418SOL    HW138088   2.751   2.254   5.146  0.1980  0.4775  0.8366
12418SOL    HW238089   2.832   2.179   5.042  0.7328  0.9768  0.8898
12419SOL     OW38090   4.223   5.282   1.711  0.4844 -0.1437  0.2613
12419SOL    HW138091   4.210   5.344   1.783 -0.7850  1.0685 -0.9400
12419SOL    HW238092   4.263   5.334   1.642  0.5436 -0.9796 -0.3450
12420SOL     OW38093   6.913   1.593   0.248  0.0143 -0.1245 -0.7223
12420SOL    HW138094   6.858   1.526   0.288  0.1745  0.6790  0.9146
12420SOL    HW238095   6.931   1.559   0.160 -3.0653 -0.4338 -1.3756
12421SOL     OW38096   2.455   6.186   7.126  0.2925  0.7150  0.0730
12421SOL    HW138097   2.502   6.266   7.103  1.2727  0.1544  0.1035
12421SOL    HW238098   2.506   6.115   7.086  0.5710 -0.0588  1.7233
12422SOL     OW38099   4.569   5.437   0.581 -0.8620  0.0974  0.2195
12422SOL    HW138100   4.525   5.352   0.577  0.1430 -0.5387  1.6974
12422SOL    HW238101   4.525   5.483   0.653  0.8584 -0.5731  1.7551
12423SOL     OW38102   4.477   1.481   3.689  0.0540 -0.0254  0.1767
12423SOL    HW138103   4.412   1.548   3.711 -1.1354 -0.6091 -1.3924
12423SOL    HW238104   4.533   1.522   3.624 -0.6892 -0.5371 -0.8019
12424SOL     OW38105   2.889   4.900   6.250 -0.3054 -0.3174 -0.5231
12424SOL    HW138106   2.887   4.955   6.172  1.8841  0.7752  0.1194
12424SOL    HW238107   2.905   4.960   6.323 -1.0475 -1.4576  0.6394
12425SOL     OW38108   2.129   2.558   5.017 -0.1289  0.1831 -0.4173
12425SOL    HW138109   2.128   2.487   5.081  0.4415  0.6797  0.1514
12425SOL    HW238110   2.091   2.519   4.938  0.1366 -0.7466 -0.1043
12426SOL     OW38111   0.736   1.564   2.710 -0.2071 -0.0906 -0.3835
12426SOL    HW138112   0.756   1.577   2.618  1.7318  0.9171  0.1230
12426SOL    HW238113   0.712   1.472   2.717  0.4356 -0.3758 -1.7526
12427SOL     OW38114   1.671   0.260   7.788 -0.3619  0.2732  0.1904
12427SOL    HW138115   1.674   0.356   7.786  0.0769  0.2608 -1.6725
12427SOL    HW238116   1.577   0.240   7.785 -0.4230  0.6478 -0.5945
12428SOL     OW38117   4.903   3.684   3.942 -0.1526 -0.9322 -0.5699
12428SOL    HW138118   4.921   3.610   4.001  0.1093 -0.0920  0.4463
12428SOL    HW238119   4.808   3.683   3.932 -0.5019  0.2345  1.7622
12429SOL     OW38120   2.713   6.844   3.467 -0.7700  0.6965 -0.2629
12429SOL    HW138121   2.747   6.762   3.430 -1.6911  0.7094 -1.1815
12429SOL    HW238122   2.783   6.875   3.523  0.9664  0.9739 -2.4414
12430SOL     OW38123   4.290   0.434   7.318  0.0441 -0.4078  0.1344
12430SOL    HW138124   4.222   0.402   7.259 -0.6524  1.5040 -0.1595
12430SOL    HW238125   4.349   0.485   7.263  0.2165  0.1721  0.8387
12431SOL     OW38126   4.238   2.462   2.568  0.0794 -0.4819  0.0213
12431SOL    HW138127   4.226   2.439   2.476 -0.0868  1.5137 -0.5058
12431SOL    HW238128   4.235   2.557   2.569  3.6944 -0.2395  1.5758
12432SOL     OW38129   1.987   0.708   4.100  0.1297  0.4960 -0.3458
12432SOL    HW138130   2.009   0.681   4.189 -0.6205  1.3098  0.1025
12432SOL    HW238131   1.899   0.673   4.085 -0.3407  1.5888 -0.2157
12433SOL     OW38132   4.773   0.731   0.546  0.1626 -0.1024 -0.3014
12433SOL    HW138133   4.840   0.774   0.600  0.6202 -0.1359 -0.8353
12433SOL    HW238134   4.718   0.802   0.514 -1.8509 -0.2663  2.4460
12434SOL     OW38135   4.972   0.094   3.611 -0.3895 -0.3770  0.6195
12434SOL    HW138136   5.041   0.154   3.583 -0.8765 -0.3319 -0.5701
12434SOL    HW238137   4.897   0.150   3.627 -0.7359 -0.6123 -0.1197
12435SOL     OW38138   6.417   2.213   2.736  0.1016  0.1946  0.0751
12435SOL    HW138139   6.492   2.265   2.766  0.5285 -0.4081  0.0748
12435SOL    HW238140   6.342   2.251   2.781  0.4973  0.4130  0.5638
12436SOL     OW38141   0.722   5.555   3.109 -0.3425  0.0181  0.0281
12436SOL    HW138142   0.664   5.610   3.162 -0.4269 -1.4325  1.5095
12436SOL    HW238143   0.800   5.608   3.095 -0.7231  0.7959  0.7818
12437SOL     OW38144   2.141   5.531   3.903  0.1906 -0.3711 -0.0607
12437SOL    HW138145   2.084   5.601   3.869  0.2468  0.7884  2.0621
12437SOL    HW238146   2.166   5.481   3.825 -2.4302  0.0305 -1.2799
12438SOL     OW38147   2.736   1.807   3.601 -0.0761  0.5154  0.6502
12438SOL    HW138148   2.659   1.750   3.603  1.3302 -1.4675  1.4033
12438SOL    HW238149   2.792   1.769   3.533  1.0834  0.7153  1.4539
12439SOL     OW38150   0.780   2.932   0.733  0.6147  0.4478 -0.0093
12439SOL    HW138151   0.786   2.931   0.638  0.2156  1.2010 -0.0506
12439SOL    HW238152   0.863   2.970   0.762  0.0756  1.7806 -0.1426
12440SOL     OW38153   3.966   4.071   6.076  0.9641  0.2343  0.3056
12440SOL    HW138154   4.002   4.147   6.122  1.4457 -0.9556  2.0314
12440SOL    HW238155   3.875   4.095   6.058  0.3647  0.3633  3.0331
12441SOL     OW38156   5.370   2.902   1.475 -0.1116 -0.0049 -0.4095
12441SOL    HW138157   5.434   2.884   1.544 -1.2648 -4.2233 -0.1863
12441SOL    HW238158   5.289   2.918   1.522 -0.1328  1.0262 -0.7755
12442SOL     OW38159   0.395   0.761   3.006  0.0310  0.1044  0.1180
12442SOL    HW138160   0.406   0.839   2.952  0.5800  0.7293  1.0883
12442SOL    HW238161   0.442   0.782   3.088  1.9767 -1.9983 -0.3345
12443SOL     OW38162   3.254   3.202   5.987  0.1050 -0.0561 -0.3398
12443SOL    HW138163   3.257   3.129   6.049 -0.5104  0.2101  0.0154
12443SOL    HW238164   3.198   3.267   6.029 -0.8362 -0.1258 -1.4292
12444SOL     OW38165   6.931   7.227   6.153 -0.4243  0.0233 -0.8375
12444SOL    HW138166   6.899   7.148   6.111 -1.5618  0.4748 -0.8581
12444SOL    HW238167   6.935   7.205   6.246 -2.0207  0.3194 -0.6666
12445SOL     OW38168   6.546   0.596   5.609  0.0135  0.2843 -0.0987
12445SOL    HW138169   6.550   0.522   5.670  1.0504  1.1688  0.9693
12445SOL    HW238170   6.551   0.556   5.523  1.0557 -0.8854  0.4613
12446SOL     OW38171   7.098   3.217   2.895  0.3536 -0.1800  0.3060
12446SOL    HW138172   7.108   3.279   2.967 -1.4575 -1.6096  1.8839
12446SOL    HW238173   7.014   3.239   2.855  0.2798 -0.8117  0.0913
12447SOL     OW38174   2.512   7.534   6.708  0.6835  0.1376 -0.2663
12447SOL    HW138175   2.503   7.630   6.715  3.4580  0.4076  0.8337
12447SOL    HW238176   2.513   7.505   6.799  1.6535 -0.7215 -0.5450
12448SOL     OW38177   4.328   7.500   6.178 -0.3727 -0.4168  0.0238
12448SOL    HW138178   4.378   7.508   6.259 -1.0132  2.0129  0.2488
12448SOL    HW238179   4.350   7.579   6.128 -1.3715 -0.9807 -1.3869
12449SOL     OW38180   2.388   7.037   3.155 -0.4323  0.2661  0.2224
12449SOL    HW138181   2.378   7.024   3.061 -2.2092 -1.2432  0.5693
12449SOL    HW238182   2.465   6.985   3.179  0.1769  0.8565 -0.4025
12450SOL     OW38183   5.521   2.941   3.862 -0.6297  0.3590  0.4058
12450SOL    HW138184   5.521   2.845   3.864 -0.8257  0.3420 -0.1513
12450SOL    HW238185   5.451   2.963   3.801 -0.1172  0.8429 -0.0213
12451SOL     OW38186   0.305   6.572   6.714  0.4321 -0.1938  0.4021
12451SOL    HW138187   0.367   6.511   6.755  0.3089 -1.6385 -1.4609
12451SOL    HW238188   0.220   6.549   6.752  0.1959 -2.0368 -1.0942
12452SOL     OW38189   3.189   4.036   0.988 -0.3401  0.1942 -0.0635
12452SOL    HW138190   3.234   4.042   1.073  1.5719 -0.4662 -0.9569
12452SOL    HW238191   3.201   3.945   0.962 -1.2618  0.2919 -0.8679
12453SOL     OW38192   5.475   6.788   2.509  0.4774 -0.2502  0.0885
12453SOL    HW138193   5.434   6.725   2.450  0.7547 -0.4839  0.1410
12453SOL    HW238194   5.488   6.866   2.456 -2.0711  0.6455  0.6559
12454SOL     OW38195   6.442   0.023   6.267  0.5105 -0.0675  0.2709
12454SOL    HW138196   6.356   0.065   6.267 -0.2566 -1.5743  0.0473
12454SOL    HW238197   6.503   0.094   6.286 -0.5436  1.4781 -1.7176
12455SOL     OW38198   4.430   5.665   4.349 -0.3692 -0.5707 -0.1917
12455SOL    HW138199   4.362   5.729   4.367  0.5220  0.0732  1.0097
12455SOL    HW238200   4.403   5.587   4.397  0.9268  0.4728  2.4144
12456SOL     OW38201   4.285   0.888   7.111  0.2211 -0.9770  0.4596
12456SOL    HW138202   4.198   0.868   7.147 -1.1261 -0.0884 -2.0665
12456SOL    HW238203   4.298   0.981   7.130  0.3180 -0.9470  0.2438
12457SOL     OW38204   2.887   1.422   1.640 -0.0167  0.3213 -0.2499
12457SOL    HW138205   2.834   1.393   1.714 -1.1660 -1.7239 -1.7584
12457SOL    HW238206   2.862   1.513   1.627 -0.6054  0.3898  1.1999
12458SOL     OW38207   6.470   6.567   2.955 -0.1124  0.3517 -0.4973
12458SOL    HW138208   6.475   6.497   3.020 -0.6190  0.1947 -0.6231
12458SOL    HW238209   6.555   6.610   2.959  0.3207 -0.4767 -0.6476
12459SOL     OW38210   0.317   5.553   0.636 -0.2269 -0.3295  0.5921
12459SOL    HW138211   0.238   5.533   0.686  0.5177  0.5011  2.1551
12459SOL    HW238212   0.290   5.625   0.578 -0.8486 -0.6698  0.4495
12460SOL     OW38213   1.222   3.806   6.451  0.2290  0.0925  0.4128
12460SOL    HW138214   1.151   3.743   6.437 -0.1512  0.8132 -1.1393
12460SOL    HW238215   1.293   3.755   6.490  0.3020 -1.5521 -1.7054
12461SOL     OW38216   7.228   0.888   4.468 -0.3062  0.1601 -0.5847
12461SOL    HW138217   7.250   0.856   4.556  2.4200  1.0033 -0.8705
12461SOL    HW238218   7.159   0.952   4.483  1.5421  1.8898  1.3161
12462SOL     OW38219   1.609   2.390   5.229  0.1936  0.3330 -0.0018
12462SOL    HW138220   1.564   2.455   5.281  1.2732  1.5109 -0.4823
12462SOL    HW238221   1.643   2.438   5.153  1.7199 -0.5953  0.0365
12463SOL     OW38222   6.894   1.654   6.095 -0.4108 -0.0978  0.0286
12463SOL    HW138223   6.892   1.602   6.176 -1.9238 -0.1714 -0.0115
12463SOL    HW238224   6.974   1.705   6.100 -0.6928  0.2267  1.8029
12464SOL     OW38225   7.646   7.340   3.883  0.2090 -0.0895  0.1459
12464SOL    HW138226   7.730   7.321   3.840 -0.7495  1.0291 -2.4738
12464SOL    HW238227   7.659   7.426   3.924  0.2891  0.2187 -0.5073
12465SOL     OW38228   3.755   3.340   0.771  0.5336 -0.1258  0.0066
12465SOL    HW138229   3.749   3.436   0.778 -2.6284 -0.2565  0.9428
12465SOL    HW238230   3.792   3.313   0.855 -1.3181  0.2206  0.9995
12466SOL     OW38231   2.782   1.593   7.849 -0.0408  0.0701  0.4706
12466SOL    HW138232   2.830   1.610   7.767  3.0825 -0.6660  1.9978
12466SOL    HW238233   2.735   1.511   7.832  0.3042  0.0815 -0.6732
12467SOL     OW38234   7.017   3.249   7.336  0.0397  0.2433 -0.2136
12467SOL    HW138235   6.976   3.320   7.386 -0.7284 -0.4870  0.2025
12467SOL    HW238236   7.000   3.272   7.245 -2.4220 -0.6549 -0.0581
12468SOL     OW38237   2.992   5.226   6.011  0.0614  0.4378 -1.2287
12468SOL    HW138238   3.009   5.254   5.921  1.8442  1.2102 -0.6862
12468SOL    HW238239   3.055   5.275   6.064 -0.8953 -0.0749  0.4402
12469SOL     OW38240   0.360   7.150   3.569  1.0218  0.6728  0.3302
12469SOL    HW138241   0.452   7.177   3.564  0.7004  1.9723  0.9694
12469SOL    HW238242   0.317   7.221   3.616 -0.5720  0.7385 -1.1350
12470SOL     OW38243   0.536   7.581   7.438  0.3027  0.1240  0.6565
12470SOL    HW138244   0.501   7.538   7.516  1.3355 -0.0935  1.0177
12470SOL    HW238245   0.527   7.674   7.456  0.6735  0.0762  1.1153
12471SOL     OW38246   5.239   1.214   4.894  0.4679 -0.3807 -0.8321
12471SOL    HW138247   5.283   1.163   4.826  0.6579 -0.4305 -0.6712
12471SOL    HW238248   5.239   1.158   4.971 -1.7435 -1.2514 -1.3731
12472SOL     OW38249   3.544   3.475   6.836  0.1957 -0.2418  0.4823
12472SOL    HW138250   3.536   3.465   6.931 -0.4953  1.5874  0.6491
12472SOL    HW238251   3.631   3.512   6.823  0.1088 -0.0558  0.4350
12473SOL     OW38252   1.529   2.416   7.840  0.0781 -0.1310 -0.3955
12473SOL    HW138253   1.528   2.383   7.750 -0.9733 -0.6160 -0.2174
12473SOL    HW238254   1.510   2.509   7.833 -0.0377 -0.1768 -0.6738
12474SOL     OW38255   7.608   0.253   3.888 -0.6323 -0.5025  0.3738
12474SOL    HW138256   7.638   0.285   3.973 -2.6932  0.4679  0.8158
12474SOL    HW238257   7.655   0.171   3.875  0.3661 -0.2516  2.0414
12475SOL     OW38258   0.543   4.076   6.204  0.5377 -0.6386 -0.3344
12475SOL    HW138259   0.498   4.146   6.156  1.5545 -0.1947 -0.6712
12475SOL    HW238260   0.523   3.997   6.154 -0.4926 -0.5762 -0.0434
12476SOL     OW38261   7.179   2.518   2.228  0.1016  0.0933  0.1511
12476SOL    HW138262   7.272   2.536   2.220  0.1601 -0.2392  0.0488
12476SOL    HW238263   7.168   2.490   2.319 -0.0465  0.9489  0.4043
12477SOL     OW38264   0.676   0.888   2.066  0.5346  0.0144  0.0906
12477SOL    HW138265   0.670   0.966   2.011  1.2174 -1.1263 -1.7408
12477SOL    HW238266   0.680   0.920   2.155  0.2527  2.0280 -0.5816
12478SOL     OW38267   0.359   4.852   7.126 -0.1891 -0.2930 -0.0783
12478SOL    HW138268   0.447   4.890   7.122 -0.5382  0.4840 -0.6683
12478SOL    HW238269   0.371   4.762   7.096  0.5183 -0.4255  0.5618
12479SOL     OW38270   1.923   4.863   0.479 -0.0696 -0.3133 -0.1738
12479SOL    HW138271   1.898   4.845   0.570  2.6095  1.0271  0.9661
12479SOL    HW238272   1.958   4.779   0.447 -0.4849 -0.6452  0.2260
12480SOL     OW38273   3.019   1.960   5.443  0.1791  0.1077  0.2633
12480SOL    HW138274   3.070   2.038   5.466  1.0686 -0.4612  0.2593
12480SOL    HW238275   3.008   1.965   5.348  1.3224 -0.4088  0.0929
12481SOL     OW38276   4.581   2.425   5.513 -0.3141  0.1332 -0.1573
12481SOL    HW138277   4.548   2.484   5.581  1.9699  0.8199  0.4468
12481SOL    HW238278   4.517   2.354   5.510 -0.1050 -0.3629  3.3320
12482SOL     OW38279   1.489   5.082   1.476  0.3067  0.0445 -0.0319
12482SOL    HW138280   1.476   5.005   1.420  0.4825 -0.3524  0.4561
12482SOL    HW238281   1.581   5.077   1.501  0.7608  1.3628 -1.3455
12483SOL     OW38282   0.994   3.775   3.760 -0.0046 -0.3005 -0.4837
12483SOL    HW138283   0.978   3.793   3.853 -0.0238  2.1455 -0.9100
12483SOL    HW238284   0.948   3.692   3.744 -1.8516  0.3180  1.2046
12484SOL     OW38285   7.510   6.458   1.466  0.5692 -0.3226  0.6301
12484SOL    HW138286   7.417   6.459   1.445  0.4717  1.3813  1.0048
12484SOL    HW238287   7.551   6.508   1.396  1.2252 -1.0422  0.4808
12485SOL     OW38288   2.744   1.294   7.837 -0.1756  0.2995 -0.2393
12485SOL    HW138289   2.649   1.284   7.844 -0.1601  0.4428  0.2312
12485SOL    HW238290   2.777   1.266   7.922  0.2156  0.1276 -0.4467
12486SOL     OW38291   2.300   1.307   2.384 -0.0491  0.7508 -0.8582
12486SOL    HW138292   2.205   1.294   2.384  0.0558 -0.5381  1.3309
12486SOL    HW238293   2.333   1.240   2.324 -0.3652 -1.4869  1.2677
12487SOL     OW38294   5.629   0.119   5.109 -0.4544 -0.4786 -0.0989
12487SOL    HW138295   5.593   0.192   5.159 -0.9269 -0.9005  0.1885
12487SOL    HW238296   5.695   0.159   5.053  0.0640  0.0010  0.8325
12488SOL     OW38297   6.334   3.453   4.569 -0.1905 -0.2198  0.4442
12488SOL    HW138298   6.314   3.405   4.649  1.9202 -0.2779  0.9931
12488SOL    HW238299   6.392   3.524   4.597 -2.8613  2.5051 -0.4074
12489SOL     OW38300   6.545   1.571   1.587  0.2662 -0.0906  0.4009
12489SOL    HW138301   6.612   1.517   1.630  0.0901 -0.4001  0.2863
12489SOL    HW238302   6.490   1.602   1.659  1.3960  1.3862  0.6687
12490SOL     OW38303   3.572   4.154   1.654  0.2439  0.5942 -0.6746
12490SOL    HW138304   3.650   4.129   1.605  1.8017  1.8275  1.0156
12490SOL    HW238305   3.507   4.086   1.634  2.1228 -1.1192 -1.2460
12491SOL     OW38306   2.111   1.324   3.597 -0.0288 -0.4081  0.4976
12491SOL    HW138307   2.102   1.388   3.667  1.0258  0.3285 -0.0115
12491SOL    HW238308   2.073   1.243   3.633  0.5817 -0.0789  1.9398
12492SOL     OW38309   6.141   7.580   7.735  0.3677  0.6450 -0.0739
12492SOL    HW138310   6.103   7.641   7.673 -0.9648 -1.3808 -1.3677
12492SOL    HW238311   6.095   7.498   7.720  2.5953 -0.9323  1.0348
12493SOL     OW38312   0.475   7.370   7.265  0.0332 -0.6943 -0.2364
12493SOL    HW138313   0.461   7.432   7.337  1.9092 -1.8390  1.2042
12493SOL    HW238314   0.452   7.419   7.186 -0.8060  1.0450  1.0204
12494SOL     OW38315   5.129   1.557   6.237  0.2023  0.3862 -0.1045
12494SOL    HW138316   5.094   1.527   6.153  0.0401  1.6257 -0.4878
12494SOL    HW238317   5.054   1.594   6.283 -0.3259 -2.5829  1.7493
12495SOL     OW38318   6.091   4.996   2.291  0.0169 -0.4934  0.5882
12495SOL    HW138319   6.023   5.020   2.228 -0.9034 -1.5577  1.1434
12495SOL    HW238320   6.146   4.933   2.243 -0.1899 -0.6728  0.5888
12496SOL     OW38321   6.513   2.912   2.275  0.3753  0.0842 -0.0697
12496SOL    HW138322   6.478   3.000   2.262  0.3495 -0.0473 -0.9791
12496SOL    HW238323   6.477   2.861   2.202  1.2202 -0.4266 -0.1449
12497SOL     OW38324   3.425   0.749   5.525  0.2150  0.1794 -0.3495
12497SOL    HW138325   3.350   0.694   5.499  0.3016 -1.6130  2.7153
12497SOL    HW238326   3.484   0.689   5.571  2.2325  2.1205 -0.2427
12498SOL     OW38327   0.433   5.376   2.281 -0.1390 -0.6745  0.1148
12498SOL    HW138328   0.463   5.298   2.326 -0.6320 -0.7910  0.2515
12498SOL    HW238329   0.433   5.352   2.188  1.3360 -0.2762  0.0001
12499SOL     OW38330   4.380   0.502   3.907  0.0489  0.3646  0.1578
12499SOL    HW138331   4.468   0.466   3.899 -0.2491 -0.4182  0.3125
12499SOL    HW238332   4.384   0.557   3.986  0.5642  0.8629 -0.2029
12500SOL     OW38333   6.580   0.262   6.289 -0.0573  0.5064 -0.4614
12500SOL    HW138334   6.573   0.279   6.195  2.1790 -2.9366 -1.4173
12500SOL    HW238335   6.631   0.336   6.323  1.0895  0.6794 -2.4020
12501SOL     OW38336   1.468   5.968   4.244  0.1955 -0.2964 -0.2548
12501SOL    HW138337   1.497   6.039   4.186  2.1659  0.3606  1.4108
12501SOL    HW238338   1.549   5.925   4.270 -0.6307 -0.6985  1.8090
12502SOL     OW38339   2.398   1.023   4.786 -0.2142 -0.0373 -0.7956
12502SOL    HW138340   2.314   1.024   4.832 -0.2703 -0.9669 -0.8514
12502SOL    HW238341   2.378   1.055   4.698 -0.5794 -0.5629 -0.9086
12503SOL     OW38342   3.702   1.139   2.860  0.4928  0.0539 -0.3232
12503SOL    HW138343   3.755   1.203   2.907  0.8943 -1.1599  0.9480
12503SOL    HW238344   3.639   1.107   2.925 -0.6120  0.1376 -1.3118
12504SOL     OW38345   5.057   3.203   1.511  0.4403 -0.1165 -0.0427
12504SOL    HW138346   5.102   3.284   1.534  0.0491  0.3525 -0.9139
12504SOL    HW238347   5.112   3.134   1.549  0.2327  0.5846  1.6059
12505SOL     OW38348   3.650   0.014   2.847 -0.1523  0.1446  0.6887
12505SOL    HW138349   3.634  -0.012   2.757 -1.7433  0.3931  0.8539
12505SOL    HW238350   3.685   0.103   2.841  1.3568 -0.4618  0.2763
12506SOL     OW38351   5.532   0.549   5.123 -0.1239  0.7119  0.2646
12506SOL    HW138352   5.536   0.490   5.047  0.4975  0.1417  0.7304
12506SOL    HW238353   5.536   0.491   5.199 -0.9256  1.2653  0.7524
12507SOL     OW38354   4.474   3.250   2.188 -0.2820  0.4390 -0.0831
12507SOL    HW138355   4.505   3.285   2.105  0.5697  0.9739  0.4425
12507SOL    HW238356   4.442   3.163   2.167  2.8180 -0.7238 -0.4689
12508SOL     OW38357   1.579   4.944   5.461 -0.1218 -0.0203  0.0469
12508SOL    HW138358   1.604   4.889   5.387  1.9273  2.3429 -1.1599
12508SOL    HW238359   1.662   4.962   5.506 -1.1373 -0.2190  2.0938
12509SOL     OW38360   5.715   2.204   3.504  1.1768  0.0789 -0.3954
12509SOL    HW138361   5.706   2.139   3.574  2.5473  2.2113  1.9740
12509SOL    HW238362   5.671   2.282   3.539  0.0786  0.6551 -2.8718
12510SOL     OW38363   7.609   6.746   1.546  0.0941  0.3235  0.2346
12510SOL    HW138364   7.701   6.736   1.521  0.0832 -0.0627  0.3368
12510SOL    HW238365   7.585   6.661   1.583 -0.8931 -0.3006 -1.6886
12511SOL     OW38366   6.235   7.000   2.836  0.1900 -0.3313  0.4834
12511SOL    HW138367   6.314   7.045   2.868  0.8364 -1.8288  1.1225
12511SOL    HW238368   6.166   7.065   2.844  1.5863  1.5538 -1.5146
12512SOL     OW38369   6.745   6.236   3.028  0.4041 -0.5505 -0.0350
12512SOL    HW138370   6.780   6.268   3.111 -0.4458  0.3790 -0.0164
12512SOL    HW238371   6.816   6.250   2.965  0.5349  0.1488  0.2518
12513SOL     OW38372   5.837   6.799   2.933 -0.4824 -0.1701  0.3548
12513SOL    HW138373   5.793   6.768   2.854 -1.2161 -0.4492  0.8597
12513SOL    HW238374   5.793   6.882   2.954  0.1060  0.1999  0.1481
12514SOL     OW38375   5.226   3.320   2.806  0.8387 -0.0486  0.4828
12514SOL    HW138376   5.262   3.232   2.817 -0.1321 -0.2651  2.4572
12514SOL    HW238377   5.267   3.372   2.875  0.8291  0.8726 -0.1788
12515SOL     OW38378   6.304   7.855   3.187  0.1417  0.4605 -0.8788
12515SOL    HW138379   6.392   7.891   3.175  0.0291  0.6042 -1.2668
12515SOL    HW238380   6.245   7.921   3.151 -0.3894  2.0387  2.5169
12516SOL     OW38381   0.449   5.736   4.456 -0.3569  0.1273 -0.4331
12516SOL    HW138382   0.470   5.645   4.473  0.2556  0.3571  0.0561
12516SOL    HW238383   0.453   5.779   4.542  0.8034  0.9029 -0.8471
12517SOL     OW38384   6.745   6.000   3.307  0.2722 -0.2598  0.4622
12517SOL    HW138385   6.731   6.093   3.294 -0.8780 -0.3430  0.9556
12517SOL    HW238386   6.696   5.979   3.386 -0.4025 -1.4843 -0.2412
12518SOL     OW38387   7.089   6.369   4.623 -0.5532 -0.0154  0.3364
12518SOL    HW138388   7.157   6.305   4.644 -0.3278 -0.1927 -0.9062
12518SOL    HW238389   7.135   6.452   4.616 -0.7675  0.2195  1.3910
12519SOL     OW38390   7.389   4.592   2.873  0.3554 -0.2283  0.2571
12519SOL    HW138391   7.331   4.666   2.855 -0.7033 -1.4356 -1.5485
12519SOL    HW238392   7.378   4.576   2.967 -2.3521 -0.4371 -0.0150
12520SOL     OW38393   1.261   0.294   6.529  0.8344  0.1290  0.2990
12520SOL    HW138394   1.282   0.312   6.621 -0.2155 -1.4144  0.8843
12520SOL    HW238395   1.278   0.201   6.518 -1.5491 -0.2988 -0.3089
12521SOL     OW38396   7.761   6.945   7.908  0.0223  0.3892 -0.0546
12521SOL    HW138397   7.850   6.955   7.874 -0.0276 -1.9321 -1.1061
12521SOL    HW238398   7.757   6.853   7.934 -2.1551  0.3675 -0.3290
12522SOL     OW38399   1.180   7.910   0.283  0.0624 -0.2019 -0.2631
12522SOL    HW138400   1.201   7.967   0.209 -0.1605  0.3724  0.1041
12522SOL    HW238401   1.168   7.824   0.245  1.8525 -0.3263 -0.6663
12523SOL     OW38402   5.684   5.042   4.245 -1.1145 -0.0841 -0.3042
12523SOL    HW138403   5.615   5.011   4.187  0.1458 -2.4177 -0.6763
12523SOL    HW238404   5.676   4.986   4.323 -0.6941  0.7635  0.3652
12524SOL     OW38405   2.291   7.408   3.324 -0.2321 -0.1557  0.1971
12524SOL    HW138406   2.253   7.321   3.316 -1.5898  0.3462  0.6867
12524SOL    HW238407   2.380   7.400   3.290 -0.4759 -1.6189 -0.1527
12525SOL     OW38408   2.204   0.158   1.131  0.5782  0.3741  0.6419
12525SOL    HW138409   2.125   0.171   1.078 -0.0865 -1.9138  0.9858
12525SOL    HW238410   2.272   0.209   1.085 -0.8092  1.4674 -0.2879
12526SOL     OW38411   2.783   6.428   4.883  0.1263  0.2532  0.0017
12526SOL    HW138412   2.873   6.415   4.854  1.4843  2.9330  2.5341
12526SOL    HW238413   2.779   6.386   4.969 -0.4515  1.6985  0.7100
12527SOL     OW38414   0.266   2.227   5.027  0.5860  0.0095 -0.0623
12527SOL    HW138415   0.319   2.306   5.035 -0.9802  1.1420 -0.6335
12527SOL    HW238416   0.264   2.191   5.116  1.1798  0.6725  0.2328
12528SOL     OW38417   1.856   7.872   5.914 -0.0314 -0.3023  0.0306
12528SOL    HW138418   1.911   7.930   5.967 -0.1072 -0.3809  0.1965
12528SOL    HW238419   1.827   7.804   5.975  1.2286 -1.3353 -0.4625
12529SOL     OW38420   2.225   1.125   1.166  0.2297 -0.2774  0.1424
12529SOL    HW138421   2.277   1.142   1.087  3.0000 -2.2919  1.3509
12529SOL    HW238422   2.193   1.210   1.193 -0.2526  0.5612 -2.7586
12530SOL     OW38423   4.758   3.866   6.983  0.3262 -0.0251  0.3984
12530SOL    HW138424   4.761   3.868   6.888 -0.6020  1.9305  0.3679
12530SOL    HW238425   4.667   3.884   7.005  0.5720 -0.2328  1.6717
12531SOL     OW38426   6.590   6.011   0.114  0.2623  0.2626 -0.3307
12531SOL    HW138427   6.669   6.041   0.159  1.0192 -0.9559 -0.7919
12531SOL    HW238428   6.571   6.079   0.050  1.7483 -0.0303 -1.1483
12532SOL     OW38429   1.692   5.021   0.393  0.6187  0.2366 -0.2600
12532SOL    HW138430   1.684   4.959   0.466 -1.7764 -0.8819 -1.3558
12532SOL    HW238431   1.657   5.103   0.428  0.7181  0.0730  0.2385
12533SOL     OW38432   0.185   0.558   1.766  0.6129  0.2223  0.1433
12533SOL    HW138433   0.168   0.571   1.673  0.2821 -1.4501 -0.0673
12533SOL    HW238434   0.280   0.552   1.773  0.6018 -0.5742 -0.2520
12534SOL     OW38435   7.316   5.890   0.374  0.3218  0.8069 -0.1096
12534SOL    HW138436   7.348   5.951   0.441  1.6249  1.0591 -0.9217
12534SOL    HW238437   7.257   5.943   0.320  0.7636  1.1236 -0.2874
12535SOL     OW38438   1.683   6.493   7.798  0.4341  0.0652  0.7725
12535SOL    HW138439   1.698   6.566   7.858  1.2580  0.1863  0.4335
12535SOL    HW238440   1.622   6.435   7.845 -0.4305  1.0809  0.9377
12536SOL     OW38441   0.038   5.831   3.885  0.5458 -0.5392  0.2777
12536SOL    HW138442   0.060   5.796   3.799 -0.8938 -0.3427 -0.2056
12536SOL    HW238443   0.105   5.897   3.902 -0.0501  0.5701 -1.4380
12537SOL     OW38444   4.171   1.645   3.525  0.2941 -0.0531 -0.2953
12537SOL    HW138445   4.180   1.639   3.620 -0.9194  1.0466 -0.0918
12537SOL    HW238446   4.099   1.705   3.511  0.6434  0.0344 -1.9330
12538SOL     OW38447   1.005   1.201   5.052 -0.4426  0.4392 -0.3558
12538SOL    HW138448   0.910   1.217   5.052 -0.4071  0.6772  0.0616
12538SOL    HW238449   1.038   1.259   5.121 -0.2731 -1.2843  1.0912
12539SOL     OW38450   3.337   4.873   2.736 -0.3657 -0.0771  0.1058
12539SOL    HW138451   3.336   4.964   2.764 -0.1525  0.2723 -0.9701
12539SOL    HW238452   3.274   4.829   2.794  1.7164  0.0965  2.6584
12540SOL     OW38453   6.651   0.478   5.070 -0.7350  0.1207  0.1179
12540SOL    HW138454   6.706   0.529   5.129  0.7655 -1.0699 -0.1956
12540SOL    HW238455   6.659   0.522   4.985  1.0496 -0.8707 -0.2992
12541SOL     OW38456   7.536   4.430   3.345 -0.2322  0.1829  0.2704
12541SOL    HW138457   7.584   4.435   3.427  0.2556 -0.8206  0.0624
12541SOL    HW238458   7.520   4.336   3.332 -0.2079  0.3158 -0.8307
12542SOL     OW38459   3.059   0.517   4.549  0.6775 -0.0640 -0.0993
12542SOL    HW138460   2.998   0.574   4.596  2.0450 -0.0763  1.8426
12542SOL    HW238461   3.016   0.499   4.466 -2.1812 -0.4358  1.3205
12543SOL     OW38462   5.005   3.850   1.061 -0.2324  0.7313 -0.2580
12543SOL    HW138463   4.985   3.903   1.138 -2.8839 -1.8802  1.0476
12543SOL    HW238464   5.089   3.808   1.081 -0.3635  0.9250  0.7452
12544SOL     OW38465   4.659   6.851   4.565 -0.8033 -0.0618 -0.1024
12544SOL    HW138466   4.652   6.771   4.513  0.5171  0.0054 -0.4177
12544SOL    HW238467   4.570   6.868   4.595 -1.1980 -1.3357 -0.4977
12545SOL     OW38468   2.314   1.464   4.674 -0.4505  0.1359 -0.2564
12545SOL    HW138469   2.364   1.546   4.674  1.5795 -0.9770  1.9649
12545SOL    HW238470   2.238   1.482   4.729  0.0930  0.4850  0.3965
12546SOL     OW38471   3.830   6.834   3.138  0.4104  0.5724 -0.1900
12546SOL    HW138472   3.837   6.741   3.160  1.5378 -0.1360 -3.1259
12546SOL    HW238473   3.777   6.871   3.209  1.2166 -1.9577  1.8938
12547SOL     OW38474   0.303   3.911   0.948 -0.2695  0.7084  0.1735
12547SOL    HW138475   0.344   3.941   0.868  2.0475  2.9825  2.0236
12547SOL    HW238476   0.333   3.820   0.959  2.4380  1.5159  0.1982
12548SOL     OW38477   1.667   3.280   4.344  0.0072  0.0781 -0.6409
12548SOL    HW138478   1.759   3.258   4.355  0.3568  0.8684 -1.8716
12548SOL    HW238479   1.621   3.197   4.359  0.8855 -0.2838  0.1406
12549SOL     OW38480   2.567   7.361   3.221  0.3040 -0.1858 -0.6876
12549SOL    HW138481   2.582   7.278   3.177 -1.0917 -1.3877  0.9491
12549SOL    HW238482   2.609   7.352   3.307  1.0851  1.2382 -0.8836
12550SOL     OW38483   2.668   4.045   1.585 -0.5077  0.8683 -0.6086
12550SOL    HW138484   2.694   4.010   1.500  2.2172  0.3984  0.3149
12550SOL    HW238485   2.715   4.129   1.591 -1.0943  1.1496  0.2236
12551SOL     OW38486   7.552   6.022   4.430 -0.5423 -0.4132  0.1414
12551SOL    HW138487   7.459   6.039   4.442 -0.4461  0.8889 -0.7561
12551SOL    HW238488   7.583   5.998   4.517 -1.5046  0.2161  0.6832
12552SOL     OW38489   1.910   2.717   1.888  0.3589  0.0431  0.0670
12552SOL    HW138490   1.931   2.682   1.801 -0.9748 -0.5265 -0.0521
12552SOL    HW238491   1.945   2.652   1.949  0.8268  0.1775 -0.0583
12553SOL     OW38492   5.943   4.672   1.129 -0.0288  0.4521 -0.1238
12553SOL    HW138493   5.914   4.709   1.045  1.8447 -1.0169 -1.5141
12553SOL    HW238494   5.887   4.596   1.142  1.4797 -0.9701 -1.5594
12554SOL     OW38495   3.242   3.483   3.322  0.4807  0.1452 -0.1057
12554SOL    HW138496   3.168   3.456   3.268 -0.5921  0.8072  1.0018
12554SOL    HW238497   3.307   3.413   3.310 -0.0355 -0.1143 -1.6003
12555SOL     OW38498   4.669   6.193   0.716 -0.1076  0.1678  0.5511
12555SOL    HW138499   4.637   6.151   0.796 -0.5996 -0.4608  0.0352
12555SOL    HW238500   4.734   6.131   0.682  0.3703  0.6067  0.6501
12556SOL     OW38501   1.794   0.818   1.647 -0.4009 -0.5691 -0.0367
12556SOL    HW138502   1.877   0.847   1.686  0.1990 -0.0637 -1.6039
12556SOL    HW238503   1.807   0.725   1.630 -0.0232 -0.4317 -0.5403
12557SOL     OW38504   0.747   5.190   1.109 -0.0991  0.0709  0.0782
12557SOL    HW138505   0.756   5.105   1.066 -1.3404 -0.9534  1.7101
12557SOL    HW238506   0.657   5.217   1.091 -0.6133 -0.3244  1.7967
12558SOL     OW38507   2.342   7.236   3.976 -0.2254 -0.3736 -0.1397
12558SOL    HW138508   2.272   7.183   4.016 -0.7505 -0.7488 -1.5033
12558SOL    HW238509   2.417   7.177   3.972 -0.7426 -0.9809 -1.4453
12559SOL     OW38510   7.281   5.622   5.453  0.7572 -0.4851  0.0644
12559SOL    HW138511   7.190   5.651   5.452  0.6819 -0.5100  2.3470
12559SOL    HW238512   7.278   5.534   5.490  1.8908  0.4646  2.6054
12560SOL     OW38513   5.427   1.321   1.769 -0.8386 -0.5889 -0.3407
12560SOL    HW138514   5.334   1.335   1.790 -0.5884 -0.3287  0.6171
12560SOL    HW238515   5.438   1.360   1.682 -2.0207 -2.1495 -1.2451
12561SOL     OW38516   4.212   0.920   5.518  0.4063  0.0262 -0.5160
12561SOL    HW138517   4.157   0.996   5.537  0.1834 -0.4653  0.9817
12561SOL    HW238518   4.294   0.956   5.484 -0.2271  0.8504 -1.1823
12562SOL     OW38519   2.189   5.613   1.354 -0.0877  0.5930  0.5715
12562SOL    HW138520   2.103   5.598   1.313  1.1242  0.0381 -2.0131
12562SOL    HW238521   2.225   5.688   1.307  0.6784  1.1187  1.9413
12563SOL     OW38522   6.960   2.867   4.437 -0.5484 -0.0073  0.5162
12563SOL    HW138523   6.914   2.887   4.356  0.7024  1.3476  0.0817
12563SOL    HW238524   6.903   2.900   4.506 -0.1298  1.9713 -0.0213
12564SOL     OW38525   4.926   4.304   0.763  0.2057  0.3851 -0.2133
12564SOL    HW138526   4.982   4.304   0.685  0.0764  0.8016 -0.3121
12564SOL    HW238527   4.848   4.256   0.737 -0.2178  1.2745 -0.6328
12565SOL     OW38528   6.902   0.099   2.849  0.1729 -0.1978 -0.3251
12565SOL    HW138529   6.954   0.179   2.844  0.6516 -0.1834  2.7474
12565SOL    HW238530   6.813   0.129   2.868  0.4309 -0.3452  1.2408
12566SOL     OW38531   6.386   3.941   2.672 -0.0623 -0.3679 -0.1098
12566SOL    HW138532   6.369   3.979   2.758  0.4368  0.3723 -0.3316
12566SOL    HW238533   6.301   3.937   2.630 -0.2521 -0.3797  0.2699
12567SOL     OW38534   7.727   6.030   5.283 -0.4819  0.1395  0.5217
12567SOL    HW138535   7.713   5.935   5.276 -0.0786  0.1425 -0.4852
12567SOL    HW238536   7.822   6.041   5.279 -0.5873  0.7443 -2.2378
12568SOL     OW38537   6.524   7.257   3.953  0.2262  0.1812  0.0092
12568SOL    HW138538   6.597   7.201   3.980  0.0417  0.3015  0.7677
12568SOL    HW238539   6.567   7.331   3.909  0.5237 -0.0648 -0.1181
12569SOL     OW38540   7.780   1.555   2.329  0.4704 -0.3684  0.1272
12569SOL    HW138541   7.846   1.611   2.370  1.5892  1.2395 -3.4254
12569SOL    HW238542   7.707   1.615   2.310  0.1315 -0.9457 -0.4438
12570SOL     OW38543   3.848   4.469   3.401 -0.0081 -0.3510 -0.0536
12570SOL    HW138544   3.829   4.517   3.481 -1.2896 -0.5389 -0.2259
12570SOL    HW238545   3.912   4.523   3.355 -2.6371  2.1624 -1.0657
12571SOL     OW38546   0.284   1.882   0.534 -0.1628  0.9875 -0.5813
12571SOL    HW138547   0.262   1.962   0.487 -3.4640  0.2375 -0.5877
12571SOL    HW238548   0.221   1.879   0.606  0.1732 -1.3667 -0.3018
12572SOL     OW38549   1.991   5.161   1.016 -0.1837 -0.1607  0.4164
12572SOL    HW138550   1.992   5.142   0.922  0.3543 -0.6348  0.5169
12572SOL    HW238551   2.074   5.128   1.049 -0.4517 -0.1754  1.1003
12573SOL     OW38552   3.830   7.299   0.885  0.7189  0.2582  0.1987
12573SOL    HW138553   3.888   7.270   0.815  1.0464 -0.0335  0.5856
12573SOL    HW238554   3.779   7.370   0.846  0.2112 -0.5374 -0.6256
12574SOL     OW38555   4.270   3.265   1.849  0.6053 -0.2005  1.1432
12574SOL    HW138556   4.254   3.321   1.925  1.1965  0.5740  0.7192
12574SOL    HW238557   4.340   3.310   1.801 -0.5491 -0.0369 -0.4875
12575SOL     OW38558   3.429   3.924   0.065  0.4835 -0.0367  0.5005
12575SOL    HW138559   3.503   3.940   0.006 -0.8265  0.1782 -1.1553
12575SOL    HW238560   3.397   4.011   0.088 -0.5622 -0.1135 -0.5525
12576SOL     OW38561   2.074   6.728   0.411 -0.8007  0.1492 -0.4454
12576SOL    HW138562   2.089   6.677   0.490 -0.4050  0.1584 -0.5124
12576SOL    HW238563   2.094   6.818   0.437 -1.8423  0.3284 -0.2284
12577SOL     OW38564   2.700   2.202   6.191 -0.3074 -0.1182  0.4546
12577SOL    HW138565   2.724   2.109   6.190  0.3610  0.0149 -1.5410
12577SOL    HW238566   2.630   2.209   6.126 -0.4805  0.7573  0.7229
12578SOL     OW38567   6.348   7.011   0.752 -0.4012 -0.2798 -0.3860
12578SOL    HW138568   6.311   7.099   0.742  0.4223  0.1669  0.3158
12578SOL    HW238569   6.346   6.973   0.664 -2.2142 -0.1690 -0.4351
12579SOL     OW38570   4.570   4.772   5.176  0.4321  0.5048  0.4307
12579SOL    HW138571   4.598   4.771   5.085  1.1820  0.7985  0.6446
12579SOL    HW238572   4.557   4.680   5.199  1.2000  0.3549  0.3006
12580SOL     OW38573   1.028   5.735   1.357 -0.5341  0.0467 -0.1566
12580SOL    HW138574   1.045   5.666   1.421  1.3071 -0.5780 -1.2385
12580SOL    HW238575   0.936   5.758   1.371 -0.6205 -1.1494  1.6332
12581SOL     OW38576   0.196   7.227   5.046 -0.3417  0.3626  0.1633
12581SOL    HW138577   0.236   7.295   4.992 -0.0198  0.8180  0.9749
12581SOL    HW238578   0.177   7.269   5.129 -0.8855 -0.3247  0.4013
12582SOL     OW38579   6.633   6.223   0.345 -0.7865 -0.5551 -0.2063
12582SOL    HW138580   6.570   6.196   0.413 -1.0211  0.6327  0.0889
12582SOL    HW238581   6.708   6.165   0.357  0.0949  0.9078  2.5396
12583SOL     OW38582   5.487   6.382   5.039 -0.1525  0.2807  0.2118
12583SOL    HW138583   5.537   6.307   5.006  2.7332  1.5268  1.4357
12583SOL    HW238584   5.444   6.349   5.118 -1.5921 -0.8623 -0.9649
12584SOL     OW38585   3.114   3.799   0.612 -0.3910  0.0982 -0.1428
12584SOL    HW138586   3.160   3.716   0.612 -1.1971 -0.4907  3.4087
12584SOL    HW238587   3.147   3.845   0.689 -3.2721  1.0294  0.6646
12585SOL     OW38588   5.183   5.395   6.775  0.4210  0.1304 -0.1771
12585SOL    HW138589   5.258   5.454   6.787 -1.0551  1.9915  0.5139
12585SOL    HW238590   5.153   5.377   6.865 -0.2829 -0.1192 -0.4559
12586SOL     OW38591   2.013   5.572   4.638 -0.0075  0.3537  0.3146
12586SOL    HW138592   2.079   5.510   4.667  0.1879  0.7022  0.6147
12586SOL    HW238593   1.976   5.608   4.718  0.0259  0.7796  0.1427
12587SOL     OW38594   1.666   2.832   7.900  0.2155 -0.0772  0.2163
12587SOL    HW138595   1.715   2.855   7.978  0.8066 -1.8957  0.4450
12587SOL    HW238596   1.595   2.896   7.895  0.7459  0.6518  1.6785
12588SOL     OW38597   7.391   3.428   1.699  0.8180 -0.1279  0.2149
12588SOL    HW138598   7.408   3.334   1.694 -2.6575 -0.9161  0.5216
12588SOL    HW238599   7.383   3.446   1.792 -1.0573 -0.1696  0.1080
12589SOL     OW38600   4.310   1.464   6.534 -0.2601 -0.4995 -0.2722
12589SOL    HW138601   4.376   1.411   6.489 -1.7631 -1.9715 -0.8160
12589SOL    HW238602   4.240   1.475   6.469 -0.7232  0.7698  0.3985
12590SOL     OW38603   7.175   3.594   2.452 -0.1537 -0.0962 -0.1541
12590SOL    HW138604   7.233   3.524   2.421  0.0416 -0.4376  0.9516
12590SOL    HW238605   7.186   3.594   2.547 -0.2810  1.3268 -0.1152
12591SOL     OW38606   2.859   7.589   7.836 -0.0201 -0.1955  0.5207
12591SOL    HW138607   2.920   7.628   7.899 -0.8507  1.0217  0.6094
12591SOL    HW238608   2.777   7.577   7.885 -0.8280  1.2241 -0.4139
12592SOL     OW38609   1.111   3.394   3.171 -0.5599 -0.6444  0.1431
12592SOL    HW138610   1.189   3.413   3.222  0.2400 -2.1798 -0.4432
12592SOL    HW238611   1.054   3.469   3.185  0.5750  0.0133  1.4394
12593SOL     OW38612   4.806   0.885   5.614 -0.6921  0.1832 -0.0182
12593SOL    HW138613   4.812   0.955   5.679 -0.2847 -0.2082  0.3658
12593SOL    HW238614   4.872   0.907   5.548 -1.3504  0.7727 -0.4929
12594SOL     OW38615   6.931   4.588   4.457  0.1005 -0.0411  0.1486
12594SOL    HW138616   7.009   4.625   4.415  0.6284 -1.4072 -0.1441
12594SOL    HW238617   6.902   4.656   4.518  1.7340  0.3577  0.5238
12595SOL     OW38618   5.048   4.794   5.467 -0.0855 -0.1668 -0.4513
12595SOL    HW138619   5.051   4.889   5.461 -0.6229 -0.0278  1.1217
12595SOL    HW238620   4.956   4.772   5.458 -0.1069 -0.4342  0.3678
12596SOL     OW38621   6.188   7.018   1.830  0.2670 -0.4187 -0.5696
12596SOL    HW138622   6.203   7.110   1.808  0.2794 -0.1612  0.4687
12596SOL    HW238623   6.140   6.983   1.755  0.8354  0.2624 -1.2709
12597SOL     OW38624   7.866   3.274   3.199  0.3341  0.3580 -0.2295
12597SOL    HW138625   7.828   3.187   3.210 -0.6743  0.6863 -0.9519
12597SOL    HW238626   7.960   3.260   3.204  0.1482 -0.5167  1.3384
12598SOL     OW38627   5.152   3.819   3.915 -0.1413 -0.0027  0.4503
12598SOL    HW138628   5.070   3.771   3.929 -1.6853  1.4827 -2.4696
12598SOL    HW238629   5.125   3.897   3.866  2.9866  0.8516 -0.0920
12599SOL     OW38630   6.672   0.280   5.263  0.2915 -0.1572 -0.1985
12599SOL    HW138631   6.704   0.336   5.193  0.1360  0.0158 -0.1336
12599SOL    HW238632   6.681   0.191   5.230 -0.7578 -0.0391 -0.8629
12600SOL     OW38633   5.788   4.189   2.292 -0.1487  0.2158 -0.8779
12600SOL    HW138634   5.708   4.181   2.343 -0.1794  0.4956 -0.8821
12600SOL    HW238635   5.759   4.190   2.201 -0.1531  0.4632 -0.8745
12601SOL     OW38636   6.182   3.677   2.674 -0.9998  0.4971  0.0247
12601SOL    HW138637   6.090   3.702   2.667 -0.7773  1.6262  0.8806
12601SOL    HW238638   6.224   3.715   2.596 -1.0219  1.1640  0.3291
12602SOL     OW38639   1.071   5.993   3.923  0.0852 -0.7046 -0.0204
12602SOL    HW138640   1.120   5.911   3.928 -0.5262 -1.0779  0.0301
12602SOL    HW238641   1.136   6.062   3.936  0.5187 -1.2068  0.4794
12603SOL     OW38642   5.359   6.393   0.552  0.4858  0.1804 -0.5381
12603SOL    HW138643   5.401   6.384   0.637  1.9668 -1.2592 -1.3440
12603SOL    HW238644   5.335   6.485   0.545  2.3551  0.7863  0.5337
12604SOL     OW38645   6.835   5.498   1.012  0.0965  0.1801 -0.1722
12604SOL    HW138646   6.883   5.468   1.089  2.1920  0.8649 -1.1419
12604SOL    HW238647   6.810   5.588   1.034  1.0565  0.5198 -0.4282
12605SOL     OW38648   3.001   1.892   7.742 -0.0111 -0.3363 -0.3391
12605SOL    HW138649   3.045   1.807   7.736 -0.7545 -0.7453 -0.0998
12605SOL    HW238650   3.003   1.915   7.835 -2.8508 -1.7716  0.1861
12606SOL     OW38651   7.262   3.412   5.126  0.1733  0.2945 -0.0675
12606SOL    HW138652   7.181   3.461   5.137  0.6628  1.0056  0.4912
12606SOL    HW238653   7.246   3.329   5.170 -0.8685 -0.3122 -1.5239
12607SOL     OW38654   6.913   4.565   1.996  0.1435  0.0283  0.9208
12607SOL    HW138655   6.969   4.572   1.919 -1.2552 -2.6012 -0.4486
12607SOL    HW238656   6.850   4.636   1.986  2.3144  2.2540  1.8562
12608SOL     OW38657   0.297   1.265   4.862 -0.3070  0.3789 -0.4179
12608SOL    HW138658   0.237   1.327   4.820 -1.3219  0.2723  0.8220
12608SOL    HW238659   0.371   1.319   4.889 -1.3063  1.1516  0.9060
12609SOL     OW38660   1.456   3.252   6.123 -0.2104  0.0661  0.3452
12609SOL    HW138661   1.426   3.301   6.199 -1.4418 -1.5860  0.9832
12609SOL    HW238662   1.510   3.182   6.159 -2.8606 -2.3021  0.0700
12610SOL     OW38663   1.939   0.993   0.525  0.0004  0.0885  0.7077
12610SOL    HW138664   1.982   1.030   0.448  0.6148 -2.0616 -0.0562
12610SOL    HW238665   1.852   1.033   0.526 -0.3472 -0.4551 -1.6222
12611SOL     OW38666   2.138   1.908   4.065  0.1026  0.1760  0.0311
12611SOL    HW138667   2.227   1.904   4.030  0.4847  2.7529  0.4760
12611SOL    HW238668   2.113   1.817   4.077  1.9946 -0.6714 -1.7718
12612SOL     OW38669   5.626   0.989   0.319  0.6577  0.0965 -0.2413
12612SOL    HW138670   5.582   0.910   0.289  1.7390 -0.2275 -1.0385
12612SOL    HW238671   5.702   0.956   0.367  0.6399  0.6511  0.1713
12613SOL     OW38672   7.402   7.453   2.865 -0.2894 -0.2685 -0.4959
12613SOL    HW138673   7.384   7.474   2.773 -0.9838  1.5363  0.0009
12613SOL    HW238674   7.470   7.516   2.890 -0.7049 -0.1972  0.4543
12614SOL     OW38675   6.706   7.790   2.436 -1.0269  0.1207 -0.1279
12614SOL    HW138676   6.704   7.882   2.460  1.0516  0.6193 -1.6252
12614SOL    HW238677   6.630   7.779   2.378  0.4985  1.8070 -2.6713
12615SOL     OW38678   4.227   7.622   3.043  0.0963 -0.4381 -0.1017
12615SOL    HW138679   4.241   7.571   2.963  1.7774 -0.2227  0.0205
12615SOL    HW238680   4.264   7.567   3.112  0.9329  0.4536  0.1765
12616SOL     OW38681   3.714   1.824   5.403  0.1678 -0.0396 -0.0917
12616SOL    HW138682   3.753   1.858   5.483 -2.2815  0.0285  1.1707
12616SOL    HW238683   3.669   1.744   5.429 -1.2123  0.3060 -1.2263
12617SOL     OW38684   2.804   2.650   7.618  0.4271  0.0674 -0.0023
12617SOL    HW138685   2.725   2.611   7.581  0.6530  0.3328 -0.7882
12617SOL    HW238686   2.874   2.625   7.557  0.8085  0.5253  0.2420
12618SOL     OW38687   7.703   3.909   0.481 -0.1422 -0.3264 -0.3130
12618SOL    HW138688   7.750   3.884   0.561 -0.2135 -0.5855 -0.3484
12618SOL    HW238689   7.701   3.828   0.430  1.9237  0.3558 -1.6005
12619SOL     OW38690   4.809   7.731   5.121  0.3221  0.1210 -0.3175
12619SOL    HW138691   4.782   7.717   5.031 -1.1859 -0.7464  0.2413
12619SOL    HW238692   4.737   7.780   5.161  0.3531 -0.6507  0.7410
12620SOL     OW38693   6.946   5.673   0.269 -0.0912 -0.3443  0.1722
12620SOL    HW138694   6.896   5.738   0.219  0.5879 -0.5625 -0.8221
12620SOL    HW238695   6.883   5.603   0.287 -1.1039  0.9891  2.1194
12621SOL     OW38696   2.834   7.054   1.509 -0.0295  0.0757  0.0524
12621SOL    HW138697   2.847   6.965   1.542 -0.3350 -0.3708 -1.0036
12621SOL    HW238698   2.745   7.076   1.534  0.2143  0.3047  0.7721
12622SOL     OW38699   6.729   2.887   3.032 -0.6026  0.0632  0.3344
12622SOL    HW138700   6.709   2.914   2.942 -1.9618  0.4907  0.7413
12622SOL    HW238701   6.643   2.870   3.072 -0.1962  1.8721  2.1564
12623SOL     OW38702   1.387   0.713   5.555  0.7087 -0.2076 -0.0596
12623SOL    HW138703   1.412   0.753   5.638  2.2913 -0.0233 -0.5860
12623SOL    HW238704   1.301   0.675   5.571  0.0290  1.6721  1.0185
12624SOL     OW38705   3.201   7.551   6.086  0.0070 -0.4356  0.3710
12624SOL    HW138706   3.198   7.643   6.059  1.2197 -0.4598  0.0725
12624SOL    HW238707   3.148   7.505   6.021 -2.2710  0.2655  1.6383
12625SOL     OW38708   7.332   4.295   4.576  0.4577 -0.0984 -0.1806
12625SOL    HW138709   7.288   4.246   4.645  1.4667 -1.6055 -0.5434
12625SOL    HW238710   7.304   4.252   4.495 -0.1022  1.1475 -0.6716
12626SOL     OW38711   3.948   7.562   4.899 -0.0118 -0.5679 -0.4860
12626SOL    HW138712   4.007   7.540   4.972 -2.0820  0.7941  1.7545
12626SOL    HW238713   4.007   7.588   4.828  2.1384  0.6511  1.5844
12627SOL     OW38714   7.564   3.136   3.090  0.9127  0.2758 -0.3783
12627SOL    HW138715   7.552   3.192   3.167 -2.1897 -0.1424 -0.4116
12627SOL    HW238716   7.483   3.148   3.039  1.3925 -2.0501 -1.8438
12628SOL     OW38717   3.329   3.961   1.965  0.2730  0.4234 -0.2257
12628SOL    HW138718   3.315   3.867   1.956 -0.9908  0.2055  2.8237
12628SOL    HW238719   3.295   3.998   1.884 -0.9428 -1.6337 -0.7402
12629SOL     OW38720   3.488   0.715   1.748  0.5116 -0.4683  0.5960
12629SOL    HW138721   3.490   0.805   1.780 -1.5595  0.3907 -1.4374
12629SOL    HW238722   3.425   0.671   1.806  0.9608 -0.4393  1.1195
12630SOL     OW38723   6.823   0.690   6.413 -0.3357 -0.0768 -0.0077
12630SOL    HW138724   6.751   0.655   6.465 -0.0211  0.2683  0.6634
12630SOL    HW238725   6.792   0.775   6.383  0.9064  1.5290  2.8684
12631SOL     OW38726   5.595   6.040   2.409  0.6660  0.4914 -0.3943
12631SOL    HW138727   5.687   6.019   2.421  0.7017 -0.0326 -1.4293
12631SOL    HW238728   5.592   6.135   2.407  0.9852  0.5527  0.9601
12632SOL     OW38729   7.471   0.018   5.560 -0.7787 -0.2601 -0.2280
12632SOL    HW138730   7.397  -0.011   5.507 -1.4198 -0.3165  0.6545
12632SOL    HW238731   7.430   0.061   5.636  0.1077  0.3115 -0.0580
12633SOL     OW38732   0.482   6.009   5.451  0.7429  0.5057 -0.1321
12633SOL    HW138733   0.568   6.050   5.466  0.5703  0.8678 -0.1294
12633SOL    HW238734   0.483   5.931   5.507  0.9535  0.6752  0.1045
12634SOL     OW38735   7.646   6.282   6.309 -0.2094  0.5657  0.4121
12634SOL    HW138736   7.558   6.263   6.277  0.1361  0.7044 -0.6530
12634SOL    HW238737   7.633   6.343   6.382 -1.0356 -0.1194  0.8566
12635SOL     OW38738   1.379   2.627   1.116 -0.3365  1.0007 -0.0710
12635SOL    HW138739   1.401   2.695   1.179 -0.9345  2.3529 -1.2740
12635SOL    HW238740   1.299   2.658   1.074  0.4894  0.5498 -2.0771
12636SOL     OW38741   6.787   0.679   7.385  0.5725  0.0009  0.8451
12636SOL    HW138742   6.768   0.771   7.369  0.0986 -0.1781  0.3266
12636SOL    HW238743   6.877   0.666   7.353  0.0641 -0.0758 -0.6345
12637SOL     OW38744   2.987   7.497   3.982 -0.1805 -0.0613 -0.0848
12637SOL    HW138745   3.074   7.501   3.941 -0.1778  0.2023 -0.0542
12637SOL    HW238746   3.004   7.484   4.075 -0.1390  1.2293  0.1052
12638SOL     OW38747   7.322   0.516   3.321 -0.3476 -0.1781  0.1838
12638SOL    HW138748   7.306   0.433   3.365  0.5539 -0.6346 -0.3277
12638SOL    HW238749   7.236   0.559   3.319 -0.4219 -0.1162  2.3842
12639SOL     OW38750   2.068   6.921   3.899 -0.0985  0.3610 -0.1618
12639SOL    HW138751   2.155   6.903   3.863 -0.2965  1.4240 -1.2601
12639SOL    HW238752   2.084   6.951   3.988  0.6481  0.3563 -0.2904
12640SOL     OW38753   2.395   5.609   4.433  0.1360 -0.3316  0.3834
12640SOL    HW138754   2.305   5.593   4.404 -0.0980  0.5395  0.6163
12640SOL    HW238755   2.437   5.651   4.358  0.2327 -0.3447  0.4298
12641SOL     OW38756   2.644   7.199   4.088  0.0179 -0.7837  0.4220
12641SOL    HW138757   2.605   7.126   4.040 -1.5489  1.1172 -1.4221
12641SOL    HW238758   2.722   7.221   4.038 -1.3476  0.8782 -1.1291
12642SOL     OW38759   1.017   5.218   1.082  0.1805 -0.6637  0.0178
12642SOL    HW138760   1.019   5.170   0.999  0.6059  1.1625 -1.0780
12642SOL    HW238761   0.925   5.215   1.109 -0.1756 -0.3746 -1.0933
12643SOL     OW38762   5.414   0.852   1.968  0.5305  0.1665  0.8588
12643SOL    HW138763   5.488   0.799   1.996  1.9586  1.1827 -0.8055
12643SOL    HW238764   5.382   0.807   1.889  2.0879  1.9370 -0.8822
12644SOL     OW38765   2.595   1.851   0.931 -0.1462  0.0261  0.2682
12644SOL    HW138766   2.556   1.923   0.981 -0.4474 -0.5262  0.8476
12644SOL    HW238767   2.688   1.871   0.929 -0.2644  0.5848  0.1682
12645SOL     OW38768   0.392   2.012   4.814 -0.6541  0.2579 -0.1599
12645SOL    HW138769   0.343   1.944   4.768  0.5787 -1.4981  1.0109
12645SOL    HW238770   0.324   2.073   4.844 -1.8159 -0.4887 -1.1465
12646SOL     OW38771   5.537   0.203   1.030  0.3724  0.2324  0.1817
12646SOL    HW138772   5.470   0.199   1.098  0.2370  0.1308  0.0417
12646SOL    HW238773   5.489   0.194   0.948  0.4354  1.1899  0.0266
12647SOL     OW38774   6.691   6.139   4.868  0.2541 -0.0369  0.7244
12647SOL    HW138775   6.767   6.155   4.811  0.8036  0.4708  1.5867
12647SOL    HW238776   6.633   6.214   4.853 -0.2214 -0.5529 -0.1306
12648SOL     OW38777   4.432   2.600   0.799  0.2004 -0.2762 -0.0273
12648SOL    HW138778   4.491   2.531   0.769  0.8467 -0.1880  1.0096
12648SOL    HW238779   4.392   2.566   0.879 -0.0184  0.2667  0.1041
12649SOL     OW38780   3.999   3.271   7.664 -0.3471 -0.4421 -0.3513
12649SOL    HW138781   4.065   3.339   7.676 -1.3652  0.8020 -1.5171
12649SOL    HW238782   4.015   3.210   7.737  0.3423  1.2225  0.9772
12650SOL     OW38783   3.473   0.900   0.624 -0.3156 -0.2938 -0.1758
12650SOL    HW138784   3.541   0.923   0.687  0.3695 -1.0381 -0.6219
12650SOL    HW238785   3.392   0.901   0.674  0.3773 -2.3486  1.1023
12651SOL     OW38786   2.691   5.722   6.633 -0.7524 -0.0431 -0.2797
12651SOL    HW138787   2.766   5.724   6.573 -0.1551  1.5326  0.4852
12651SOL    HW238788   2.711   5.787   6.700 -1.8077 -1.1420  1.1743
12652SOL     OW38789   2.591   5.014   5.860  0.2787  0.0454 -0.0479
12652SOL    HW138790   2.608   4.938   5.805 -0.6506  0.2734 -0.6806
12652SOL    HW238791   2.502   5.001   5.892  0.3414  0.5530  0.3462
12653SOL     OW38792   0.751   6.381   5.616 -0.1545 -0.0797 -0.7889
12653SOL    HW138793   0.712   6.393   5.703 -0.3208 -2.7631 -0.4228
12653SOL    HW238794   0.831   6.433   5.619 -0.2715  0.0729  0.8819
12654SOL     OW38795   1.018   6.456   2.870 -0.2279  0.5714  0.3027
12654SOL    HW138796   1.093   6.426   2.921  0.4912  0.3064 -0.8681
12654SOL    HW238797   0.969   6.513   2.930  0.2443 -0.2059  1.4583
12655SOL     OW38798   7.294   1.670   6.660 -0.0699  0.2623  0.4322
12655SOL    HW138799   7.209   1.713   6.664 -0.6540 -0.8756  0.6826
12655SOL    HW238800   7.306   1.631   6.747  0.1331 -0.6150  0.0292
12656SOL     OW38801   1.271   0.193   6.986 -0.3994  0.2817  0.4454
12656SOL    HW138802   1.285   0.118   6.927  1.1958  0.6845  0.2619
12656SOL    HW238803   1.326   0.262   6.950 -1.8413  1.5652  0.6313
12657SOL     OW38804   1.389   0.071   1.821  0.1705 -0.1941  0.8105
12657SOL    HW138805   1.470   0.021   1.813 -0.1807 -0.7339  0.5328
12657SOL    HW238806   1.404   0.150   1.768  0.9234  0.2642  1.6874
12658SOL     OW38807   0.726   6.587   2.736  0.6337 -0.0284  0.0759
12658SOL    HW138808   0.699   6.642   2.810  1.3010  1.2242 -0.5986
12658SOL    HW238809   0.809   6.549   2.764  0.5366 -0.1248  0.2419
12659SOL     OW38810   4.352   0.893   6.195 -0.4122  0.2826 -0.8136
12659SOL    HW138811   4.355   0.817   6.253  0.4678 -0.3904 -1.7189
12659SOL    HW238812   4.316   0.860   6.113  1.1338  0.5576 -1.6232
12660SOL     OW38813   3.077   2.041   3.415 -0.0422 -0.0213  0.3086
12660SOL    HW138814   3.061   1.952   3.447  1.8344  0.0780  1.6809
12660SOL    HW238815   3.172   2.046   3.403 -0.1364  1.7250 -0.0027
12661SOL     OW38816   3.245   0.308   4.528 -0.0616 -0.0654  0.9428
12661SOL    HW138817   3.184   0.380   4.512  0.2484  0.5951  2.4983
12661SOL    HW238818   3.192   0.229   4.525 -1.0161  0.4903  2.2459
12662SOL     OW38819   4.853   2.983   5.383 -0.6841 -0.0629 -0.5020
12662SOL    HW138820   4.865   2.889   5.375 -0.3423 -0.3490  2.3117
12662SOL    HW238821   4.765   2.993   5.419  0.0195  0.5208  1.1375
12663SOL     OW38822   1.561   2.250   3.460 -0.1535 -0.4027 -0.4052
12663SOL    HW138823   1.605   2.173   3.496  0.7042  0.4096  0.3654
12663SOL    HW238824   1.519   2.291   3.536 -1.5804 -0.7020 -0.9921
12664SOL     OW38825   4.826   4.867   4.701 -0.0760  0.2202 -0.1372
12664SOL    HW138826   4.880   4.790   4.680  0.7806  0.2934  1.6476
12664SOL    HW238827   4.852   4.932   4.635  1.8090  0.1429  0.4563
12665SOL     OW38828   7.090   3.899   1.981  0.3894 -0.3343 -0.7143
12665SOL    HW138829   7.120   3.954   2.053 -1.5308 -0.7297  0.4677
12665SOL    HW238830   7.111   3.810   2.009  2.6917 -0.3242 -2.2231
12666SOL     OW38831   1.000   4.164   5.162  0.2001 -0.0874  0.4150
12666SOL    HW138832   1.039   4.077   5.171  0.6596  0.2420  1.9333
12666SOL    HW238833   1.019   4.190   5.072  3.0120 -0.2140  0.8746
12667SOL     OW38834   4.590   6.248   6.333 -0.6013 -0.3315 -0.3847
12667SOL    HW138835   4.538   6.259   6.253  0.1123 -1.8226 -1.0740
12667SOL    HW238836   4.535   6.194   6.390 -1.6893  1.8120  0.7445
12668SOL     OW38837   1.585   1.400   6.547  0.0045  0.1132  0.2763
12668SOL    HW138838   1.564   1.375   6.637 -1.2477  0.6465  0.1556
12668SOL    HW238839   1.602   1.317   6.502 -0.1562 -0.2169  0.8132
12669SOL     OW38840   5.718   5.612   6.631  0.4061  0.1587 -0.3698
12669SOL    HW138841   5.652   5.589   6.565 -1.1342  0.9764  0.8332
12669SOL    HW238842   5.774   5.534   6.636 -0.7452 -0.7510 -1.0803
12670SOL     OW38843   4.776   7.909   6.697 -0.1810 -0.3462 -0.5494
12670SOL    HW138844   4.737   7.932   6.613  0.2696 -2.1918 -1.3346
12670SOL    HW238845   4.848   7.971   6.708  0.0560 -0.3720 -1.7894
12671SOL     OW38846   6.559   2.277   5.524  0.5958 -0.1179  0.0024
12671SOL    HW138847   6.575   2.247   5.613  0.8103  0.8222  0.2912
12671SOL    HW238848   6.594   2.367   5.522  0.7493 -0.1864 -1.0682
12672SOL     OW38849   5.822   4.001   2.915  0.1992 -0.0324 -0.4728
12672SOL    HW138850   5.809   4.039   2.828  2.1785  2.4512  0.2080
12672SOL    HW238851   5.734   3.981   2.946 -0.8457  2.3755 -1.6430
12673SOL     OW38852   4.590   0.590   6.079 -0.1823  0.4572 -0.6954
12673SOL    HW138853   4.597   0.579   5.984  1.2724 -0.6348 -0.4857
12673SOL    HW238854   4.662   0.649   6.102  0.8429 -0.9947 -0.0301
12674SOL     OW38855   0.088   0.711   3.336 -0.1553 -0.8711  0.0157
12674SOL    HW138856  -0.004   0.687   3.333 -0.2443 -0.8644  1.5835
12674SOL    HW238857   0.121   0.694   3.248 -1.9233  0.2993 -0.9065
12675SOL     OW38858   7.546   3.752   5.322 -0.9499 -0.2258 -0.5750
12675SOL    HW138859   7.527   3.659   5.337 -2.1635 -0.0151 -0.6705
12675SOL    HW238860   7.530   3.765   5.229 -1.2336  0.1679 -0.4761
12676SOL     OW38861   3.010   4.624   6.256 -0.5626 -0.7005 -0.1080
12676SOL    HW138862   3.098   4.651   6.281 -0.9489  0.0162  0.5180
12676SOL    HW238863   2.958   4.705   6.259 -1.7276 -1.4495  1.6679
12677SOL     OW38864   7.596   3.107   5.388  0.2989  0.2139 -0.4658
12677SOL    HW138865   7.684   3.142   5.397  0.8434 -0.3226 -3.0020
12677SOL    HW238866   7.595   3.064   5.303 -1.8622 -1.4915  0.3202
12678SOL     OW38867   0.282   2.646   3.813  0.1795  0.0195 -0.4165
12678SOL    HW138868   0.260   2.562   3.853 -2.8891  1.1091  0.4155
12678SOL    HW238869   0.347   2.624   3.746  1.5541 -2.5818  1.5892
12679SOL     OW38870   2.117   0.060   0.752  0.2879 -0.1137  0.1423
12679SOL    HW138871   2.079   0.075   0.838 -1.5267 -1.3100 -0.3836
12679SOL    HW238872   2.091   0.136   0.700  3.1022  1.6368  1.0855
12680SOL     OW38873   3.705   4.169   0.635  0.5034  0.4298 -0.0300
12680SOL    HW138874   3.726   4.261   0.645  1.5277  0.2577 -0.4877
12680SOL    HW238875   3.775   4.134   0.580 -0.0031 -0.5689 -0.0680
12681SOL     OW38876   4.129   0.189   4.133  0.3300  0.2276 -0.6813
12681SOL    HW138877   4.143   0.202   4.226  0.4095  0.3264 -0.7065
12681SOL    HW238878   4.080   0.107   4.127  0.4564  0.1436 -0.5619
12682SOL     OW38879   5.780   4.981   5.665 -0.3898 -0.7946  0.6428
12682SOL    HW138880   5.711   5.011   5.724  0.3992  2.1610  0.2197
12682SOL    HW238881   5.861   5.016   5.703  0.3004 -0.0673 -1.3373
12683SOL     OW38882   0.045   5.870   0.702 -0.2272 -0.4038 -0.3394
12683SOL    HW138883   0.017   5.902   0.788 -1.7257 -2.3069 -0.0467
12683SOL    HW238884   0.016   5.937   0.640 -2.8843 -0.8522  0.2824
12684SOL     OW38885   7.867   6.392   6.441 -0.0033  0.6693  0.0596
12684SOL    HW138886   7.805   6.351   6.381 -0.6301  0.3127  0.9294
12684SOL    HW238887   7.935   6.326   6.455 -0.3253  0.4182  0.4391
12685SOL     OW38888   0.364   2.540   0.966 -0.1129 -0.0695  0.1583
12685SOL    HW138889   0.300   2.609   0.953 -0.2172  0.4302  2.8284
12685SOL    HW238890   0.447   2.586   0.982 -0.2884 -0.4421  2.5184
12686SOL     OW38891   4.930   0.417   6.802 -0.1337  0.1878  1.0721
12686SOL    HW138892   4.952   0.486   6.739 -0.5438 -1.3269 -0.8158
12686SOL    HW238893   4.926   0.462   6.887  1.2297  2.1604  0.1639
12687SOL     OW38894   5.892   3.387   6.231  0.6540  0.3165 -0.0885
12687SOL    HW138895   5.833   3.325   6.189 -1.7980  1.2466  1.7708
12687SOL    HW238896   5.923   3.443   6.160  0.7626 -1.3004 -1.3626
12688SOL     OW38897   6.817   7.651   5.121 -0.1122  0.1032 -0.3675
12688SOL    HW138898   6.859   7.593   5.058  0.3012 -0.7399  0.6637
12688SOL    HW238899   6.852   7.738   5.100  0.8413 -0.3254 -0.6106
12689SOL     OW38900   7.379   7.504   6.408  0.3595  0.4160 -0.1631
12689SOL    HW138901   7.451   7.500   6.346 -0.3141  0.7555 -0.9872
12689SOL    HW238902   7.400   7.437   6.473  1.7494  0.9698 -0.0016
12690SOL     OW38903   1.250   1.902   2.941 -0.0337 -0.3933  0.0039
12690SOL    HW138904   1.270   1.995   2.949 -1.5640  0.1402 -1.7178
12690SOL    HW238905   1.180   1.886   3.004 -2.0751  0.4612 -1.9098
12691SOL     OW38906   3.255   3.038   1.042  0.0671  0.0307  0.1622
12691SOL    HW138907   3.286   3.098   1.110 -1.8953  1.9464 -0.5069
12691SOL    HW238908   3.267   3.087   0.961 -1.9443 -0.2990 -0.3708
12692SOL     OW38909   1.548   3.961   0.462 -0.1047  0.5505 -0.0053
12692SOL    HW138910   1.622   3.933   0.517  0.4457  0.8293 -0.5871
12692SOL    HW238911   1.575   3.939   0.373 -1.2829 -0.5090 -0.1175
12693SOL     OW38912   1.671   1.479   2.223  0.5223 -0.1355 -0.6228
12693SOL    HW138913   1.590   1.467   2.273  0.4594  1.5795 -0.2231
12693SOL    HW238914   1.652   1.443   2.137 -0.9263  0.7866 -0.7353
12694SOL     OW38915   1.052   6.379   4.382  0.4881  0.0866  0.3213
12694SOL    HW138916   1.024   6.465   4.351 -0.6832 -0.8316 -1.3607
12694SOL    HW238917   1.011   6.317   4.321 -0.9200 -1.8574  3.0250
12695SOL     OW38918   2.349   3.422   1.377 -0.1304 -0.6311  0.5998
12695SOL    HW138919   2.316   3.475   1.449 -0.3095  0.6499 -0.3875
12695SOL    HW238920   2.278   3.423   1.312  0.3575 -1.0503  0.0493
12696SOL     OW38921   7.067   2.178   7.667 -0.0906 -0.2600 -0.5812
12696SOL    HW138922   7.036   2.130   7.591  1.0273  1.7589 -2.4112
12696SOL    HW238923   7.128   2.118   7.711 -1.2465 -1.6850 -0.8522
12697SOL     OW38924   4.141   0.535   6.167  0.1651 -0.0075  0.0212
12697SOL    HW138925   4.173   0.449   6.138 -0.6454 -0.0058 -0.9182
12697SOL    HW238926   4.216   0.574   6.213  0.8528 -0.8190 -0.3770
12698SOL     OW38927   4.741   6.674   7.935  0.0189 -0.3573 -0.2010
12698SOL    HW138928   4.807   6.742   7.924 -0.7670  0.2454 -1.4849
12698SOL    HW238929   4.694   6.673   7.851 -2.2349 -0.0964  0.9878
12699SOL     OW38930   7.647   4.625   7.857 -0.0888 -0.3238  0.0906
12699SOL    HW138931   7.720   4.685   7.839 -0.2385  0.2225  1.2239
12699SOL    HW238932   7.569   4.677   7.839 -0.2151 -0.7925 -0.7617
12700SOL     OW38933   5.601   3.733   4.940 -0.1168  0.1703 -0.3005
12700SOL    HW138934   5.515   3.732   4.981  0.5106 -1.7588  1.1194
12700SOL    HW238935   5.656   3.783   5.000 -0.0731  0.8198 -0.8663
12701SOL     OW38936   5.240   2.656   1.909 -0.1716 -0.2587  0.2917
12701SOL    HW138937   5.283   2.731   1.870  1.1970 -1.0114  0.3186
12701SOL    HW238938   5.298   2.629   1.980  0.3632 -2.4973 -0.9100
12702SOL     OW38939   5.689   6.720   2.718  0.3237  0.1807  0.0884
12702SOL    HW138940   5.606   6.722   2.670 -0.8958  0.4011  2.0569
12702SOL    HW238941   5.754   6.694   2.653 -1.7957 -3.6156 -0.8212
12703SOL     OW38942   4.372   1.278   0.844 -0.0829  0.2379 -0.4387
12703SOL    HW138943   4.395   1.362   0.804 -1.7729  0.6545 -0.6272
12703SOL    HW238944   4.362   1.218   0.771  1.5641 -0.2865 -0.2772
12704SOL     OW38945   2.123   2.858   6.778  0.3121 -0.1026  0.2269
12704SOL    HW138946   2.074   2.784   6.742 -2.8307  1.8674  0.0782
12704SOL    HW238947   2.129   2.839   6.872 -0.1793 -0.7063  0.1446
12705SOL     OW38948   4.004   7.263   0.653 -0.1364 -0.3943  0.3193
12705SOL    HW138949   3.981   7.322   0.581 -2.9946 -0.3745  1.1057
12705SOL    HW238950   4.015   7.321   0.728  1.4893 -0.5361  0.2220
12706SOL     OW38951   0.135   3.784   1.717 -0.3019 -0.0837 -0.1879
12706SOL    HW138952   0.170   3.855   1.663  1.4288 -0.3767  0.4758
12706SOL    HW238953   0.184   3.706   1.690  0.5584 -0.2514  1.7128
12707SOL     OW38954   6.424   7.238   4.463 -0.0162 -0.7544 -0.3296
12707SOL    HW138955   6.373   7.226   4.382 -0.7624 -0.2600  0.0575
12707SOL    HW238956   6.442   7.149   4.493  0.0832 -0.9401 -0.9257
12708SOL     OW38957   4.772   0.274   0.139 -0.2517  0.0099 -0.0518
12708SOL    HW138958   4.731   0.282   0.053  2.8278  1.1644 -1.5438
12708SOL    HW238959   4.779   0.364   0.171 -0.2642 -0.3047  0.8725
12709SOL     OW38960   1.227   2.935   1.683 -0.2397 -0.1282  0.3111
12709SOL    HW138961   1.283   2.947   1.760 -1.6395  1.1185  1.1716
12709SOL    HW238962   1.142   2.908   1.718 -0.9213  0.5139 -0.7841
12710SOL     OW38963   6.597   2.868   1.725 -0.3117 -0.1095 -0.8243
12710SOL    HW138964   6.611   2.774   1.708 -0.0139 -0.2655  0.2014
12710SOL    HW238965   6.504   2.874   1.747 -0.5710  0.0088 -1.8927
12711SOL     OW38966   6.676   4.257   1.854 -0.0573 -0.3865 -0.4276
12711SOL    HW138967   6.625   4.322   1.805 -0.0084  1.2044  1.4709
12711SOL    HW238968   6.766   4.291   1.852  0.2391 -1.1742 -0.6209
12712SOL     OW38969   6.148   5.698   0.197 -0.4901 -0.1664  0.0897
12712SOL    HW138970   6.098   5.621   0.225 -0.5130 -0.6927 -1.3074
12712SOL    HW238971   6.106   5.772   0.242 -1.9838 -0.6916 -0.3869
12713SOL     OW38972   3.928   5.013   4.743 -0.2362 -0.0071  0.1557
12713SOL    HW138973   4.012   5.050   4.768 -0.2573  0.3645 -0.3048
12713SOL    HW238974   3.940   4.986   4.652 -0.2635 -1.0106  0.4385
12714SOL     OW38975   5.240   5.528   3.969  0.2944  0.7397 -0.4417
12714SOL    HW138976   5.259   5.543   4.062  1.1726 -0.2828 -0.4317
12714SOL    HW238977   5.327   5.523   3.928 -0.0135 -0.7769 -0.9653
12715SOL     OW38978   4.018   7.092   1.876  0.0880  0.2363  0.2684
12715SOL    HW138979   3.933   7.080   1.918  0.1766 -0.2855  0.3095
12715SOL    HW238980   4.030   7.187   1.873 -1.2511  0.3876 -1.2702
12716SOL     OW38981   2.089   2.633   5.445 -0.4048 -0.0199 -0.5165
12716SOL    HW138982   2.183   2.613   5.440 -0.6911 -1.8271  0.3924
12716SOL    HW238983   2.061   2.636   5.353  0.8615  2.6207 -0.9279
12717SOL     OW38984   2.571   5.413   6.055  0.3869 -0.0081 -0.0407
12717SOL    HW138985   2.522   5.465   5.991 -0.0494 -1.1730 -0.6914
12717SOL    HW238986   2.662   5.439   6.042  0.3744 -0.5842 -1.5172
12718SOL     OW38987   4.773   5.241   1.257 -0.3503 -0.3331 -0.0113
12718SOL    HW138988   4.725   5.190   1.191 -1.5613  0.8271 -0.0612
12718SOL    HW238989   4.720   5.319   1.270  0.2311 -0.2075  1.8500
12719SOL     OW38990   7.285   1.140   7.435  0.0579  0.7096  0.1058
12719SOL    HW138991   7.259   1.051   7.459 -0.3515  1.1400  1.3768
12719SOL    HW238992   7.377   1.146   7.462  0.5232  0.2528 -1.2817
12720SOL     OW38993   3.203   1.339   1.683 -0.5588  0.0487  0.4281
12720SOL    HW138994   3.139   1.276   1.649  1.7930 -2.1129 -0.3664
12720SOL    HW238995   3.213   1.403   1.612 -0.6034 -0.5950 -0.1813
12721SOL     OW38996   2.384   7.752   4.504  0.5269  0.9743 -0.5660
12721SOL    HW138997   2.373   7.735   4.410 -0.1821  0.8300 -0.4653
12721SOL    HW238998   2.294   7.755   4.538  0.7995  0.2142  0.2523
12722SOL     OW38999   5.870   2.507   0.762  0.0824  0.5275  0.0840
12722SOL    HW139000   5.873   2.555   0.845  1.5126 -0.8898  0.9081
12722SOL    HW239001   5.900   2.571   0.696 -2.7727  2.2243  0.2692
12723SOL     OW39002   3.232   1.838   4.163  0.2413 -0.2825 -0.2796
12723SOL    HW139003   3.287   1.831   4.240 -0.9423 -1.8205  0.4956
12723SOL    HW239004   3.279   1.788   4.096  0.0750 -1.1234  0.2153
12724SOL     OW39005   4.646   2.301   0.232 -0.1629  0.4052  0.2860
12724SOL    HW139006   4.565   2.285   0.280 -0.5953 -1.3862 -0.9554
12724SOL    HW239007   4.620   2.355   0.157 -0.3268 -0.5813 -0.3843
12725SOL     OW39008   7.233   2.557   0.226 -0.2874  0.3881 -0.4395
12725SOL    HW139009   7.245   2.467   0.259  0.5864  0.7824  0.3484
12725SOL    HW239010   7.197   2.545   0.138 -2.7091 -0.7145  0.5834
12726SOL     OW39011   6.449   0.580   0.824 -0.7941 -0.3401 -0.2369
12726SOL    HW139012   6.450   0.673   0.844  0.7534 -0.3665 -0.0585
12726SOL    HW239013   6.451   0.575   0.728  0.7390 -0.1585 -0.2355
12727SOL     OW39014   2.234   5.022   0.774 -0.1346  0.1148  0.2270
12727SOL    HW139015   2.153   5.046   0.727 -1.6907 -2.9350  1.0645
12727SOL    HW239016   2.214   5.038   0.866 -0.8255 -2.8553  0.7007
12728SOL     OW39017   1.674   2.519   2.498 -0.0558  0.2327  0.0534
12728SOL    HW139018   1.685   2.563   2.582  0.6461  1.1819 -0.5167
12728SOL    HW239019   1.758   2.476   2.483 -0.0938  0.2770 -0.2815
12729SOL     OW39020   5.060   3.025   2.846 -0.1501 -0.4628  0.3098
12729SOL    HW139021   5.015   3.030   2.762 -2.2528  1.1420  1.4254
12729SOL    HW239022   5.151   3.044   2.826 -0.8056  1.1201 -1.4733
12730SOL     OW39023   5.960   0.657   1.916 -0.1931  0.0407 -0.0354
12730SOL    HW139024   5.938   0.587   1.977  1.1456 -2.3468 -2.1084
12730SOL    HW239025   5.894   0.651   1.847  0.7527 -0.1905 -0.9553
12731SOL     OW39026   5.448   5.802   2.832  0.3125  0.1706 -0.4901
12731SOL    HW139027   5.416   5.879   2.785  0.7619  1.0358  0.5878
12731SOL    HW239028   5.396   5.798   2.912  1.6612  0.5578  0.4342
12732SOL     OW39029   7.161   5.810   3.011  0.5291  0.1111  0.5264
12732SOL    HW139030   7.168   5.902   2.987 -1.0384 -0.4148 -2.4868
12732SOL    HW239031   7.088   5.807   3.073  1.0606  0.9529  1.2137
12733SOL     OW39032   0.248   6.529   6.152 -0.6528 -0.4170  0.1584
12733SOL    HW139033   0.289   6.610   6.121  0.7693 -1.1934 -0.1095
12733SOL    HW239034   0.155   6.539   6.132 -0.1505  0.1458 -2.1232
12734SOL     OW39035   2.093   1.585   3.144  0.2101  0.4206 -0.0170
12734SOL    HW139036   2.098   1.498   3.182  1.2168  1.2893  1.9958
12734SOL    HW239037   2.158   1.584   3.073  0.1229 -0.4704 -0.1000
12735SOL     OW39038   4.238   3.733   4.097 -0.1834 -0.3521  0.7852
12735SOL    HW139039   4.281   3.649   4.113 -2.2103 -1.7877 -0.6582
12735SOL    HW239040   4.149   3.721   4.130 -0.2227  1.6619  1.5648
12736SOL     OW39041   3.555   5.933   2.349 -0.1934 -0.5348  0.2237
12736SOL    HW139042   3.570   6.027   2.346 -3.5684  0.1295  0.0368
12736SOL    HW239043   3.543   5.914   2.442  1.1773 -0.9788  0.3363
12737SOL     OW39044   5.177   7.679   2.550  0.4326 -0.8768  0.3874
12737SOL    HW139045   5.211   7.683   2.460  1.0789 -2.5401  0.5246
12737SOL    HW239046   5.230   7.612   2.592 -1.0038 -1.3364  1.5229
12738SOL     OW39047   7.733   2.744   1.112  0.3451  0.3200 -0.7199
12738SOL    HW139048   7.741   2.835   1.141 -1.8946  1.0296 -2.0972
12738SOL    HW239049   7.651   2.713   1.150  0.4901 -0.7420 -1.2199
12739SOL     OW39050   0.613   6.966   3.684  0.1256  0.0065  0.1399
12739SOL    HW139051   0.528   7.009   3.699  1.2075  2.7440 -0.8975
12739SOL    HW239052   0.666   7.033   3.641  2.3232 -2.1459 -0.7357
12740SOL     OW39053   5.107   0.084   2.107 -0.4953  0.1144  0.5106
12740SOL    HW139054   5.184   0.125   2.068  0.0162 -1.5328 -0.3255
12740SOL    HW239055   5.125   0.082   2.201 -0.7328  2.0984  0.6514
12741SOL     OW39056   4.867   6.654   3.193 -0.0243 -0.1366  0.3017
12741SOL    HW139057   4.928   6.611   3.134 -0.0456 -1.2522  1.0662
12741SOL    HW239058   4.786   6.662   3.142  0.1388 -0.5274 -0.0170
12742SOL     OW39059   0.298   1.200   7.401 -0.1116  0.0422  0.0936
12742SOL    HW139060   0.239   1.229   7.470  0.6862 -0.9879  1.2480
12742SOL    HW239061   0.384   1.199   7.442  0.4395 -0.2517 -1.0275
12743SOL     OW39062   6.973   3.315   1.845 -0.6377 -0.6780 -0.3605
12743SOL    HW139063   7.028   3.380   1.801 -1.2406 -0.1705 -0.3718
12743SOL    HW239064   6.967   3.243   1.782 -1.8636  0.2263 -1.3554
12744SOL     OW39065   0.240   4.029   3.637 -0.3442 -0.5473  0.0777
12744SOL    HW139066   0.261   4.061   3.549 -0.8129 -1.2393 -0.2993
12744SOL    HW239067   0.215   3.938   3.623  0.4455 -0.9213  1.0561
12745SOL     OW39068   3.777   2.488   1.488  0.3495  0.1074 -0.7503
12745SOL    HW139069   3.860   2.446   1.463  0.3331  0.5174 -1.5090
12745SOL    HW239070   3.785   2.577   1.455  0.5303  0.8445  1.1618
12746SOL     OW39071   5.106   1.637   0.785 -0.6910 -0.5147  0.4665
12746SOL    HW139072   5.112   1.542   0.775  0.7367 -0.8001  3.0641
12746SOL    HW239073   5.158   1.656   0.863 -0.6524  2.4648 -0.1656
12747SOL     OW39074   4.411   1.182   2.870  0.0342  0.0915 -0.7540
12747SOL    HW139075   4.459   1.119   2.923  2.2837  0.5706 -2.1248
12747SOL    HW239076   4.415   1.148   2.781  1.4928  2.1818 -1.5683
12748SOL     OW39077   1.475   6.566   6.390  0.2525 -0.0813 -0.4099
12748SOL    HW139078   1.501   6.610   6.308 -0.2275  1.1062  0.0508
12748SOL    HW239079   1.410   6.625   6.429  0.2024 -0.8160  0.6535
12749SOL     OW39080   7.781   6.163   5.525 -0.4182  0.2017 -0.2843
12749SOL    HW139081   7.771   6.257   5.535  0.6344  0.3370 -0.4068
12749SOL    HW239082   7.741   6.143   5.441  0.8068  0.8060 -1.0402
12750SOL     OW39083   7.792   4.039   5.335 -0.1722 -0.0724  0.0847
12750SOL    HW139084   7.805   4.067   5.245 -0.3423  0.2969  0.1719
12750SOL    HW239085   7.783   3.944   5.330 -0.4685 -0.0223 -0.3195
12751SOL     OW39086   2.387   6.195   1.943  0.6494 -0.2439 -0.7749
12751SOL    HW139087   2.349   6.114   1.909 -2.5594  0.3296  0.9674
12751SOL    HW239088   2.319   6.261   1.927  1.3774  1.1726  1.5195
12752SOL     OW39089   5.367   7.656   6.845 -0.1255  0.2895 -0.1337
12752SOL    HW139090   5.297   7.640   6.781 -1.4776 -0.5804  1.4682
12752SOL    HW239091   5.422   7.577   6.841 -1.3181 -0.6653  1.0477
12753SOL     OW39092   5.537   6.653   3.103 -0.3357 -0.1434  0.8118
12753SOL    HW139093   5.532   6.748   3.096  1.3059  0.0083  1.3839
12753SOL    HW239094   5.445   6.625   3.104 -0.8486  1.3635  0.0610
12754SOL     OW39095   0.712   5.214   4.445 -0.2226 -0.2050  0.4592
12754SOL    HW139096   0.633   5.259   4.475 -0.9880  0.3169 -2.1070
12754SOL    HW239097   0.690   5.121   4.449 -0.0854 -0.2098  1.9099
12755SOL     OW39098   4.719   7.270   5.343 -0.5756  0.8488 -0.3135
12755SOL    HW139099   4.634   7.257   5.301 -0.5096 -0.7695 -0.0311
12755SOL    HW239100   4.709   7.352   5.392 -1.5802  1.2844 -1.1996
12756SOL     OW39101   7.943   0.069   5.339  0.3298 -0.2288  0.3167
12756SOL    HW139102   8.008   0.001   5.324 -1.0630 -1.6199  0.3502
12756SOL    HW239103   7.887   0.034   5.409  0.3632  1.5422  1.3024
12757SOL     OW39104   0.716   4.696   2.514 -0.2100 -0.2670 -0.0119
12757SOL    HW139105   0.773   4.717   2.440  0.0133 -0.7444  0.0204
12757SOL    HW239106   0.676   4.611   2.490 -0.1180 -0.4340  0.4227
12758SOL     OW39107   6.997   6.221   5.736  0.0727  0.1321  0.5579
12758SOL    HW139108   6.973   6.313   5.745 -2.0363 -0.1251 -1.5586
12758SOL    HW239109   6.945   6.176   5.802 -1.0769  0.2057 -0.2627
12759SOL     OW39110   1.038   0.930   0.361 -0.0038 -0.4275  0.0658
12759SOL    HW139111   1.082   1.015   0.356 -0.3062 -0.2883 -0.1687
12759SOL    HW239112   0.972   0.932   0.293 -0.6214 -0.5019  0.6493
12760SOL     OW39113   7.944   5.165   2.508 -0.2577  0.0427 -0.4528
12760SOL    HW139114   7.882   5.138   2.576  0.2161 -0.5983 -0.2623
12760SOL    HW239115   7.926   5.257   2.494  2.4906  1.5381  3.7775
12761SOL     OW39116   4.391   4.021   0.865  0.8104  0.1742  0.1522
12761SOL    HW139117   4.470   3.971   0.886  2.5490  1.7888 -2.0364
12761SOL    HW239118   4.375   4.075   0.942  1.3470 -0.7777  0.9474
12762SOL     OW39119   1.270   5.601   1.523  0.2633 -0.1572 -0.7930
12762SOL    HW139120   1.344   5.623   1.467 -0.0537 -0.0966 -1.1899
12762SOL    HW239121   1.268   5.505   1.524  0.4754 -0.1613 -0.6072
12763SOL     OW39122   3.390   0.894   2.323 -0.2282  0.3383 -0.1994
12763SOL    HW139123   3.389   0.946   2.404 -0.7828  0.3181 -0.1908
12763SOL    HW239124   3.298   0.890   2.296  0.0702  1.2657 -1.4280
12764SOL     OW39125   6.260   1.459   5.035 -0.2209 -0.1951  0.1555
12764SOL    HW139126   6.185   1.504   4.997  0.1272  1.6236  1.4828
12764SOL    HW239127   6.311   1.428   4.960 -0.5306  1.5579 -0.8239
12765SOL     OW39128   5.721   4.563   1.868 -0.2531 -0.1093 -0.1725
12765SOL    HW139129   5.772   4.643   1.854  0.7978 -0.7186  0.0329
12765SOL    HW239130   5.665   4.557   1.791 -0.0029  0.5735 -0.4211
12766SOL     OW39131   2.009   7.122   2.702 -0.0385  0.5022  0.3602
12766SOL    HW139132   1.985   7.186   2.769  2.8050  2.4588 -0.2884
12766SOL    HW239133   1.958   7.147   2.625 -1.0976  0.1172  0.9229
12767SOL     OW39134   1.115   6.116   5.884 -0.2259  0.0379 -0.3848
12767SOL    HW139135   1.165   6.041   5.917  1.1565  0.5557 -1.1937
12767SOL    HW239136   1.036   6.077   5.845  1.2311 -1.2158 -2.2783
12768SOL     OW39137   0.395   1.040   3.434  0.0726  0.4585  0.0367
12768SOL    HW139138   0.369   1.051   3.343  1.4572 -0.5145 -0.5105
12768SOL    HW239139   0.395   0.946   3.448 -0.0273  0.5985  1.0211
12769SOL     OW39140   5.382   5.598   5.124  0.0978 -0.4609 -0.1743
12769SOL    HW139141   5.366   5.572   5.033 -0.2294 -3.1390  0.5809
12769SOL    HW239142   5.294   5.613   5.160 -0.0803 -2.9226  0.5956
12770SOL     OW39143   5.088   3.479   5.088 -0.1363  0.1295 -0.4539
12770SOL    HW139144   5.080   3.387   5.064  0.0004  0.6632 -2.7273
12770SOL    HW239145   5.104   3.525   5.005  1.1383  2.0489  0.7605
12771SOL     OW39146   5.404   7.155   5.694  0.2041 -0.2747 -0.2631
12771SOL    HW139147   5.497   7.173   5.706  0.2827  0.6839 -1.8929
12771SOL    HW239148   5.397   7.129   5.602 -0.8483 -2.6259  0.4098
12772SOL     OW39149   4.819   2.552   5.490  0.0719  0.2482  0.2594
12772SOL    HW139150   4.890   2.491   5.508  0.5546  0.3604 -1.1674
12772SOL    HW239151   4.740   2.498   5.489  0.4735 -0.3330 -0.8028
12773SOL     OW39152   1.273   4.006   2.427  0.2745 -0.0872  0.2867
12773SOL    HW139153   1.238   3.973   2.344 -2.1949  0.8385  0.8533
12773SOL    HW239154   1.311   3.930   2.470 -0.4944 -1.0672 -0.7225
12774SOL     OW39155   1.157   0.778   6.381  0.2321  0.4548  0.1134
12774SOL    HW139156   1.129   0.869   6.387  0.6471  0.6308 -0.5148
12774SOL    HW239157   1.102   0.731   6.445  0.2027  1.1816  0.6326
12775SOL     OW39158   2.275   4.128   2.824 -0.8633 -0.4314  0.3564
12775SOL    HW139159   2.278   4.116   2.919 -0.4118  0.4226  0.4652
12775SOL    HW239160   2.304   4.218   2.811 -1.3196 -0.4080 -0.5690
12776SOL     OW39161   5.100   6.242   2.641  0.0199  0.2370 -0.1141
12776SOL    HW139162   5.187   6.283   2.642  0.0792  0.2430 -1.7699
12776SOL    HW239163   5.097   6.189   2.720  1.1441  1.0172  0.4785
12777SOL     OW39164   0.602   1.314   3.912  0.1704  0.2858 -0.0337
12777SOL    HW139165   0.545   1.328   3.988 -0.7030  4.7573 -1.2248
12777SOL    HW239166   0.565   1.237   3.869 -1.3147 -0.4330  2.3373
12778SOL     OW39167   5.330   0.330   3.111 -0.1102  0.3507  0.2434
12778SOL    HW139168   5.324   0.234   3.115 -1.2087  0.3494 -0.8008
12778SOL    HW239169   5.402   0.346   3.049 -0.6241  0.1791 -0.4088
12779SOL     OW39170   6.846   2.068   3.100  0.1983  0.1838 -0.2746
12779SOL    HW139171   6.931   2.110   3.111  0.2282 -0.3671  2.1680
12779SOL    HW239172   6.867   1.976   3.083  0.0694  0.4273 -1.9615
12780SOL     OW39173   6.497   4.190   2.583  0.3119 -0.0313 -0.0095
12780SOL    HW139174   6.537   4.176   2.497  1.8365  0.1194  0.6432
12780SOL    HW239175   6.461   4.105   2.607  0.9219 -0.3726 -0.2827
12781SOL     OW39176   5.525   2.330   4.544 -0.0039 -0.0166  0.0576
12781SOL    HW139177   5.489   2.405   4.497 -1.1480 -0.4062  0.2843
12781SOL    HW239178   5.500   2.254   4.492 -0.5851 -0.3912  0.8503
12782SOL     OW39179   4.113   3.207   6.217  0.2402 -0.2322  0.3969
12782SOL    HW139180   4.162   3.269   6.161 -0.4721  1.3933  1.4992
12782SOL    HW239181   4.138   3.231   6.306  2.2902 -3.5719  0.8686
12783SOL     OW39182   5.655   0.801   2.514 -0.7839 -0.2826  0.4198
12783SOL    HW139183   5.689   0.880   2.555 -0.6775  0.0542 -0.3025
12783SOL    HW239184   5.561   0.818   2.503 -0.4884  0.4712 -1.2924
12784SOL     OW39185   5.368   7.032   6.374  0.0101  0.0026  0.3176
12784SOL    HW139186   5.337   7.018   6.464  2.5067  0.9164  1.4092
12784SOL    HW239187   5.413   7.116   6.378  2.0778 -0.9708 -1.2542
12785SOL     OW39188   5.553   5.723   0.660 -0.3462 -0.3059  0.1586
12785SOL    HW139189   5.630   5.736   0.604 -1.3186 -0.5123 -1.2900
12785SOL    HW239190   5.541   5.628   0.664 -2.9119 -0.3249 -3.2156
12786SOL     OW39191   7.434   4.847   4.604 -0.2768 -0.4250 -0.5696
12786SOL    HW139192   7.376   4.873   4.676  0.4691  1.2380 -0.5386
12786SOL    HW239193   7.440   4.752   4.612 -2.4860 -0.5905 -0.1929
12787SOL     OW39194   4.591   5.192   0.840 -0.3760  0.2093  0.3218
12787SOL    HW139195   4.498   5.171   0.835 -0.3587  0.1605  0.2087
12787SOL    HW239196   4.633   5.133   0.778 -0.0406 -1.0513  1.7116
12788SOL     OW39197   0.642   7.043   2.813 -0.0509  0.0812 -0.1758
12788SOL    HW139198   0.602   7.027   2.728 -1.7999  0.0729  0.5897
12788SOL    HW239199   0.680   7.130   2.806  1.0669 -0.4704 -1.3702
12789SOL     OW39200   4.044   4.239   6.437 -0.0451 -0.0296  0.0886
12789SOL    HW139201   3.953   4.234   6.467  0.2695  1.5527  1.5076
12789SOL    HW239202   4.083   4.157   6.467 -1.0923 -0.9390 -0.9516
12790SOL     OW39203   2.486   7.238   3.564  0.3144  0.8532  0.2282
12790SOL    HW139204   2.400   7.201   3.545  0.4485  0.8316 -0.3716
12790SOL    HW239205   2.545   7.192   3.504  0.6672  1.1948  0.3109
12791SOL     OW39206   3.120   2.979   1.384  0.2045  0.0789  0.1819
12791SOL    HW139207   3.158   2.982   1.296 -1.0236  0.5897 -0.3492
12791SOL    HW239208   3.032   2.947   1.371  0.5427 -1.4645  1.4463
12792SOL     OW39209   0.353   1.797   5.661 -0.7866  0.1391  0.0020
12792SOL    HW139210   0.290   1.727   5.644  0.9424 -1.6611  0.6831
12792SOL    HW239211   0.400   1.808   5.578  0.9173 -1.6451  0.6610
12793SOL     OW39212   1.406   1.966   5.729 -0.1049  0.0711  0.8997
12793SOL    HW139213   1.482   2.019   5.708 -1.0835  0.6764 -1.3380
12793SOL    HW239214   1.432   1.876   5.707 -0.2063  0.3500 -0.3910
12794SOL     OW39215   1.866   2.221   7.129 -0.0388  0.2034 -0.0620
12794SOL    HW139216   1.844   2.243   7.219 -0.2916  0.6446 -0.2278
12794SOL    HW239217   1.949   2.174   7.135 -0.0833  0.1829  0.4046
12795SOL     OW39218   7.137   5.455   3.612  0.6085  0.5149 -0.3686
12795SOL    HW139219   7.138   5.389   3.680  1.0816  0.7886 -0.1078
12795SOL    HW239220   7.227   5.487   3.608 -0.0164  2.6462  0.9942
12796SOL     OW39221   5.818   7.111   2.780 -0.4133 -0.1764 -0.2241
12796SOL    HW139222   5.726   7.085   2.775 -0.1555 -1.2913  0.4505
12796SOL    HW239223   5.821   7.199   2.741 -1.5218 -0.6889 -1.5227
12797SOL     OW39224   3.844   3.781   2.229  0.0881  0.4055 -0.1401
12797SOL    HW139225   3.803   3.867   2.224  3.4671  2.4826  2.7202
12797SOL    HW239226   3.791   3.733   2.293 -2.1993  0.0048 -2.2250
12798SOL     OW39227   6.204   6.348   6.956  0.2399  0.1187 -0.4124
12798SOL    HW139228   6.141   6.319   6.890 -0.3115  2.8162 -1.1786
12798SOL    HW239229   6.282   6.294   6.940  0.1906  0.7669 -3.3967
12799SOL     OW39230   4.416   2.478   7.010  0.0784  0.5227  0.3875
12799SOL    HW139231   4.373   2.454   6.928 -0.3794 -0.3998  0.8842
12799SOL    HW239232   4.489   2.418   7.017 -0.4978 -0.1068  1.1627
12800SOL     OW39233   2.778   0.533   7.539 -0.2633  0.4355  0.1969
12800SOL    HW139234   2.751   0.584   7.463 -0.9796  2.0763  1.4832
12800SOL    HW239235   2.864   0.498   7.515 -1.4405 -1.0663 -2.2183
12801SOL     OW39236   3.303   1.409   6.182 -0.0957 -0.0856  0.0276
12801SOL    HW139237   3.220   1.386   6.139  0.5015 -2.7716  0.1428
12801SOL    HW239238   3.344   1.325   6.201  1.4048  1.1083  2.5210
12802SOL     OW39239   2.621   6.794   0.574  0.3991  0.2846 -0.2180
12802SOL    HW139240   2.655   6.849   0.503  0.7259  0.6475  0.2205
12802SOL    HW239241   2.639   6.843   0.654 -2.8155  1.3755 -0.0519
12803SOL     OW39242   7.375   0.255   1.164 -0.6795 -0.0608  0.4636
12803SOL    HW139243   7.361   0.162   1.179  0.2410 -0.1635  0.7470
12803SOL    HW239244   7.375   0.294   1.252 -0.7057  0.1509  0.3715
12804SOL     OW39245   6.830   5.950   6.677 -0.6126  0.6425 -0.5635
12804SOL    HW139246   6.831   5.898   6.596 -0.9545 -0.9876  0.4378
12804SOL    HW239247   6.771   5.903   6.735 -1.4114  2.4878  0.2241
12805SOL     OW39248   6.479   3.070   2.015  0.0446  0.1868 -0.3120
12805SOL    HW139249   6.424   3.011   1.964  1.6161 -1.5276 -0.1328
12805SOL    HW239250   6.561   3.076   1.966  0.6290  0.6286  0.6819
12806SOL     OW39251   1.437   5.002   1.728  0.0903 -0.1477 -0.0422
12806SOL    HW139252   1.347   5.030   1.749 -0.1326  0.0059 -1.1682
12806SOL    HW239253   1.454   5.039   1.642  0.6859 -1.4580 -0.5012
12807SOL     OW39254   0.146   1.285   5.171 -0.1117  0.3080 -0.3781
12807SOL    HW139255   0.182   1.246   5.091  1.0760  2.3343 -0.9068
12807SOL    HW239256   0.208   1.354   5.193  0.2815 -0.9871  3.0592
12808SOL     OW39257   2.993   5.763   2.033 -0.2423  0.5125  0.1891
12808SOL    HW139258   2.959   5.852   2.030 -1.5026  0.0827  0.8370
12808SOL    HW239259   2.986   5.738   2.126  2.4898  0.6084  0.4778
12809SOL     OW39260   4.181   2.056   4.741 -0.4600  0.4991 -0.0700
12809SOL    HW139261   4.214   1.971   4.770 -0.0159  0.1006 -1.6602
12809SOL    HW239262   4.247   2.119   4.770 -0.9164  0.3672  1.3434
12810SOL     OW39263   6.448   4.443   0.119 -0.4432 -0.3306 -0.1450
12810SOL    HW139264   6.524   4.407   0.164  0.1209  0.4975 -0.4289
12810SOL    HW239265   6.457   4.538   0.127 -1.0183 -0.2059 -0.8792
12811SOL     OW39266   0.607   6.782   2.357  0.1103  0.2531 -0.7737
12811SOL    HW139267   0.549   6.786   2.282  1.9715 -2.4874 -2.5623
12811SOL    HW239268   0.676   6.845   2.338 -0.8345  1.5687  0.0480
12812SOL     OW39269   3.055   1.112   3.390 -0.0903 -0.6735  0.3618
12812SOL    HW139270   3.120   1.162   3.341 -1.6389  1.4580  0.3508
12812SOL    HW239271   3.036   1.166   3.467 -2.9962 -0.3809 -0.4545
12813SOL     OW39272   4.103   0.433   3.341  0.2674 -0.0291 -0.0217
12813SOL    HW139273   4.011   0.420   3.364 -0.2669  2.8010 -0.2421
12813SOL    HW239274   4.119   0.368   3.272 -1.8426  0.0365 -0.6526
12814SOL     OW39275   2.020   2.791   2.910 -0.3161 -0.1921  0.1699
12814SOL    HW139276   1.956   2.735   2.865 -1.0164 -0.1686  1.1066
12814SOL    HW239277   1.988   2.797   3.000  1.6136 -1.1349  0.9949
12815SOL     OW39278   1.667   5.193   6.902  0.2296  0.0013 -0.3791
12815SOL    HW139279   1.577   5.220   6.920 -0.6841 -2.2848 -1.1561
12815SOL    HW239280   1.692   5.244   6.825  0.3063  1.9686  0.8783
12816SOL     OW39281   2.447   5.933   0.696  0.1329 -0.3564  0.8400
12816SOL    HW139282   2.368   5.976   0.663 -0.3220 -1.5812  0.2948
12816SOL    HW239283   2.452   5.959   0.788  1.8396  3.7969 -0.1698
12817SOL     OW39284   6.041   1.406   7.338 -0.3208 -0.6231  0.7589
12817SOL    HW139285   6.081   1.323   7.362  0.6192  0.0249  1.5043
12817SOL    HW239286   6.107   1.450   7.284 -1.2258 -0.7879 -0.5215
12818SOL     OW39287   1.800   3.257   3.295  0.0819 -1.1009 -0.0228
12818SOL    HW139288   1.807   3.311   3.374  0.7817 -0.4715 -0.5054
12818SOL    HW239289   1.811   3.167   3.326 -2.2151 -1.1133  0.9593
12819SOL     OW39290   2.408   2.133   1.417  0.0398  0.3673  0.5403
12819SOL    HW139291   2.320   2.097   1.412  1.0734 -2.1615 -2.5117
12819SOL    HW239292   2.425   2.168   1.330  1.4824  2.4563  1.5781
12820SOL     OW39293   4.991   2.947   3.349  0.3507 -0.0684 -0.4702
12820SOL    HW139294   5.005   2.943   3.254  2.8464 -0.1790 -0.1695
12820SOL    HW239295   4.902   2.912   3.361 -1.0321  2.1826 -2.9061
12821SOL     OW39296   2.555   4.985   3.156 -0.4089  0.5620  0.1183
12821SOL    HW139297   2.479   4.983   3.098 -0.7815  1.2559  0.5704
12821SOL    HW239298   2.608   5.058   3.123 -0.6921  1.0514  0.7209
12822SOL     OW39299   1.200   3.642   1.130 -0.5717 -0.0114 -0.2742
12822SOL    HW139300   1.259   3.567   1.127  0.7862  1.0355 -1.3497
12822SOL    HW239301   1.132   3.622   1.066 -0.8523 -0.7971  0.2580
12823SOL     OW39302   2.009   2.519   4.757 -0.7117 -0.7400  0.0147
12823SOL    HW139303   2.081   2.547   4.700 -0.8163 -0.9154 -0.2035
12823SOL    HW239304   1.995   2.427   4.734 -2.9146 -0.0039 -1.9919
12824SOL     OW39305   6.062   0.842   7.015 -0.3832  0.1913  0.1756
12824SOL    HW139306   6.091   0.754   6.991 -0.2203 -0.4779  2.5535
12824SOL    HW239307   6.097   0.899   6.946 -0.0724 -1.5338 -1.1492
12825SOL     OW39308   1.946   0.349   1.531 -0.0863  0.0397 -0.3014
12825SOL    HW139309   2.027   0.348   1.479  0.3202 -0.7358  0.3151
12825SOL    HW239310   1.894   0.277   1.495  0.6193 -1.1488  0.9752
12826SOL     OW39311   1.415   2.864   6.702 -0.0012  0.0255 -0.0098
12826SOL    HW139312   1.380   2.780   6.673 -0.3593  0.7784 -1.9507
12826SOL    HW239313   1.338   2.921   6.709  0.3942  0.6285 -0.3806
12827SOL     OW39314   3.155   0.268   2.619 -0.0308  0.0138 -0.7323
12827SOL    HW139315   3.209   0.190   2.629 -0.3041  0.0609  1.9108
12827SOL    HW239316   3.214   0.334   2.581  0.3093 -1.2998 -2.5983
12828SOL     OW39317   3.851   7.578   1.702 -0.2023  0.1622 -0.1153
12828SOL    HW139318   3.831   7.641   1.772 -0.2915 -0.7653  0.7250
12828SOL    HW239319   3.794   7.504   1.721 -1.2327  0.4324 -1.9927
12829SOL     OW39320   6.290   5.882   2.404  0.5318  0.2473  0.0049
12829SOL    HW139321   6.230   5.852   2.336  0.5066 -0.5874  0.3715
12829SOL    HW239322   6.378   5.867   2.367  0.5179  0.4408 -0.1077
12830SOL     OW39323   2.341   7.873   1.219 -0.2496  0.2269  0.1820
12830SOL    HW139324   2.278   7.939   1.192  0.7556  0.6161 -1.3153
12830SOL    HW239325   2.369   7.831   1.138  0.7996 -0.5011  0.8868
12831SOL     OW39326   0.182   5.973   4.442 -0.2656  0.0529 -0.7888
12831SOL    HW139327   0.196   5.884   4.408  0.2801  0.0927 -0.6774
12831SOL    HW239328   0.260   6.021   4.415 -0.3816  0.4001 -0.5127
12832SOL     OW39329   6.505   3.175   7.507 -0.7091  0.4209 -0.3056
12832SOL    HW139330   6.535   3.148   7.421  1.2129  1.3762  0.0078
12832SOL    HW239331   6.529   3.102   7.565 -1.8896 -0.1674 -0.5308
12833SOL     OW39332   0.711   1.213   4.442  0.1587  0.2836 -0.9461
12833SOL    HW139333   0.781   1.209   4.507  1.3337 -0.9589 -2.2169
12833SOL    HW239334   0.742   1.159   4.369 -1.6595  0.5816 -2.0202
12834SOL     OW39335   5.531   1.745   5.861  0.1676 -0.6152  0.2121
12834SOL    HW139336   5.511   1.654   5.836 -0.7222 -0.6209  0.9019
12834SOL    HW239337   5.613   1.738   5.911 -0.9552 -1.3593  2.0799
12835SOL     OW39338   3.573   2.369   7.364 -0.2686 -0.4479  0.3019
12835SOL    HW139339   3.613   2.456   7.371 -0.3298 -0.1252 -2.3396
12835SOL    HW239340   3.638   2.309   7.401 -0.6141  0.7402  3.0467
12836SOL     OW39341   5.806   3.982   4.703 -0.0358  0.5793  0.1955
12836SOL    HW139342   5.870   4.015   4.766  1.0250 -1.2172  0.1116
12836SOL    HW239343   5.774   4.060   4.658  0.4631  1.7286  1.7473
12837SOL     OW39344   3.172   2.368   4.366  0.1555  0.4540 -0.4591
12837SOL    HW139345   3.180   2.358   4.271  0.7435 -0.9742 -0.2809
12837SOL    HW239346   3.196   2.283   4.401  0.0514  0.9988  0.9894
12838SOL     OW39347   1.853   5.941   7.485  0.5139 -0.2121 -0.1366
12838SOL    HW139348   1.796   5.925   7.561  1.5968 -0.4076  0.6526
12838SOL    HW239349   1.792   5.953   7.412 -0.5412 -0.4381  0.6789
12839SOL     OW39350   4.044   7.800   4.619 -0.0949  0.2601 -0.1043
12839SOL    HW139351   4.079   7.721   4.659 -0.9556  0.7358  1.7257
12839SOL    HW239352   4.111   7.828   4.557  0.6986 -1.2898  0.0096
12840SOL     OW39353   0.605   2.526   2.667 -0.3473 -0.1087 -0.0264
12840SOL    HW139354   0.519   2.533   2.624 -0.5384  0.4950  0.4370
12840SOL    HW239355   0.612   2.434   2.692  0.4987 -0.8936 -2.8221
12841SOL     OW39356   5.687   0.204   2.023  0.3807 -0.6444 -0.0647
12841SOL    HW139357   5.758   0.248   1.978  0.1380  0.1423  0.3064
12841SOL    HW239358   5.608   0.252   1.997 -0.2358 -2.3879 -1.6375
12842SOL     OW39359   4.640   6.587   1.913 -0.4707  0.3911 -0.1943
12842SOL    HW139360   4.562   6.549   1.951 -0.4183 -1.2652 -1.6283
12842SOL    HW239361   4.707   6.579   1.981 -0.7814 -0.9995 -0.0302
12843SOL     OW39362   2.691   0.470   2.654 -0.2488  0.5160 -0.0279
12843SOL    HW139363   2.661   0.383   2.678  0.8205 -0.3767 -1.7512
12843SOL    HW239364   2.769   0.484   2.707 -1.0047  0.8951  1.0197
12844SOL     OW39365   1.235   4.870   1.455 -0.2938 -0.7056 -0.4637
12844SOL    HW139366   1.187   4.918   1.523  0.3482 -1.2303  0.3850
12844SOL    HW239367   1.251   4.935   1.387 -1.1845 -0.2331 -0.2395
12845SOL     OW39368   0.502   0.027   0.583  0.1961 -0.8018 -0.2096
12845SOL    HW139369   0.523  -0.057   0.624  1.8783 -0.1189  0.4210
12845SOL    HW239370   0.586   0.057   0.547 -0.1134  1.1258  0.5653
12846SOL     OW39371   4.326   3.634   7.519  0.0867 -0.2112 -0.6801
12846SOL    HW139372   4.284   3.714   7.486  1.2931  0.5651 -0.4115
12846SOL    HW239373   4.362   3.592   7.441  1.8594  0.9853 -0.5899
12847SOL     OW39374   3.014   5.543   4.235  0.6641 -0.1366  0.2179
12847SOL    HW139375   2.993   5.576   4.147  0.6682 -0.0702  0.2416
12847SOL    HW239376   2.970   5.604   4.294  2.8846  1.4619  0.3330
12848SOL     OW39377   3.934   5.630   3.870  0.9664  0.2580 -0.9457
12848SOL    HW139378   3.940   5.591   3.783 -0.7977  2.0273 -1.9227
12848SOL    HW239379   3.841   5.626   3.893  1.4960 -0.9823  1.2957
12849SOL     OW39380   6.816   6.831   5.686 -0.7162 -0.1255  0.2622
12849SOL    HW139381   6.823   6.768   5.613 -0.9454  0.4673 -0.2807
12849SOL    HW239382   6.802   6.915   5.643 -2.4647  0.0155  1.0292
12850SOL     OW39383   7.304   3.008   4.871 -0.0827  0.4481  0.7200
12850SOL    HW139384   7.219   2.983   4.905  0.1580  0.5337  1.3863
12850SOL    HW239385   7.354   2.926   4.867 -0.1405  0.4236  0.4859
12851SOL     OW39386   0.565   6.051   5.165  0.3102  0.1120 -0.3835
12851SOL    HW139387   0.622   5.997   5.219 -0.3531 -0.0453  0.1709
12851SOL    HW239388   0.492   6.075   5.222 -0.5047 -0.2173 -1.2504
12852SOL     OW39389   0.080   0.295   7.461  0.3002  0.3891 -0.2145
12852SOL    HW139390  -0.002   0.316   7.505 -0.1017 -0.6029 -0.4559
12852SOL    HW239391   0.122   0.230   7.518  0.6406  0.4630 -0.3799
12853SOL     OW39392   7.800   6.413   1.348 -0.3468 -0.6991  0.3399
12853SOL    HW139393   7.869   6.399   1.283 -2.1379 -1.8259 -1.4376
12853SOL    HW239394   7.759   6.496   1.323 -1.7050 -1.6334 -0.6880
12854SOL     OW39395   5.649   5.765   7.496  0.1914 -0.0621  0.2842
12854SOL    HW139396   5.709   5.696   7.524 -0.3250 -0.4804  0.3777
12854SOL    HW239397   5.657   5.766   7.400 -0.3871 -0.8118  0.2138
12855SOL     OW39398   6.714   0.335   5.603 -0.1531  0.4384  0.8113
12855SOL    HW139399   6.747   0.246   5.590 -2.0481 -0.3897  1.3939
12855SOL    HW239400   6.721   0.375   5.516  0.9083 -0.1786  0.5827
12856SOL     OW39401   4.179   4.688   2.834 -0.6586 -0.1915  0.1171
12856SOL    HW139402   4.206   4.731   2.753 -1.5104  1.3444  0.6043
12856SOL    HW239403   4.097   4.731   2.858 -0.4386 -0.6255  1.7757
12857SOL     OW39404   7.657   5.406   3.225  0.1642 -0.6033  0.1514
12857SOL    HW139405   7.661   5.430   3.132 -0.6022 -0.5279  0.1270
12857SOL    HW239406   7.747   5.385   3.249  0.0805 -2.7353 -1.1575
12858SOL     OW39407   3.375   4.808   1.875 -0.5415 -1.1618  0.2742
12858SOL    HW139408   3.438   4.825   1.805 -1.3383 -0.4968 -0.3104
12858SOL    HW239409   3.312   4.880   1.868  0.0974 -0.2926  2.5548
12859SOL     OW39410   6.346   2.059   7.611  0.4349  0.1465  0.1027
12859SOL    HW139411   6.341   2.147   7.648 -3.1555  0.6658 -1.2539
12859SOL    HW239412   6.350   2.001   7.687  1.0371  1.3861  1.0536
12860SOL     OW39413   5.315   4.327   2.785  0.3231  0.1946 -0.2442
12860SOL    HW139414   5.241   4.384   2.762  0.8646  0.0231 -2.6427
12860SOL    HW239415   5.348   4.364   2.867 -1.2083  1.4568 -0.1392
12861SOL     OW39416   4.370   5.584   0.710 -0.2194  0.1303  0.8629
12861SOL    HW139417   4.368   5.650   0.779  1.3586  0.9470  0.1976
12861SOL    HW239418   4.290   5.600   0.659 -0.5789  0.5736  1.5514
12862SOL     OW39419   1.406   7.611   2.871 -0.4182  0.6476 -0.1155
12862SOL    HW139420   1.320   7.651   2.857 -0.8830  0.9764  3.0283
12862SOL    HW239421   1.387   7.522   2.900  0.5028 -0.4225 -2.4475
12863SOL     OW39422   0.461   4.287   5.822  0.1659  0.2990  0.0022
12863SOL    HW139423   0.408   4.226   5.772 -0.0119 -0.1179  0.6875
12863SOL    HW239424   0.520   4.327   5.758 -0.1359 -0.1370 -0.5483
12864SOL     OW39425   1.834   1.545   4.522 -0.1954  0.0058  0.0639
12864SOL    HW139426   1.899   1.486   4.560 -0.2839 -0.6600 -0.7907
12864SOL    HW239427   1.882   1.627   4.507 -0.4875  0.7816  2.8357
12865SOL     OW39428   5.280   6.914   5.794 -0.0797  0.0188 -0.1374
12865SOL    HW139429   5.185   6.923   5.792 -0.0173  0.9688  0.6325
12865SOL    HW239430   5.313   6.998   5.762  0.4950  0.0405  0.4822
12866SOL     OW39431   4.707   2.744   6.893  0.4926  0.3749 -0.8129
12866SOL    HW139432   4.766   2.791   6.834  0.0970  3.5031  1.0757
12866SOL    HW239433   4.625   2.739   6.844  0.8842  0.5736 -1.5119
12867SOL     OW39434   0.880   5.177   2.449 -0.3868  0.1815 -0.3402
12867SOL    HW139435   0.890   5.175   2.354 -0.1434 -1.9732 -0.3138
12867SOL    HW239436   0.933   5.251   2.477  1.0972 -0.3002 -1.7361
12868SOL     OW39437   2.543   6.947   2.665 -0.5847 -0.2594 -0.2738
12868SOL    HW139438   2.611   6.911   2.722 -1.0877 -1.0107 -0.1299
12868SOL    HW239439   2.461   6.931   2.712 -0.7910  1.7080  0.0966
12869SOL     OW39440   5.534   3.875   5.563  0.0140  0.1387 -0.0031
12869SOL    HW139441   5.530   3.960   5.605 -0.4480 -0.2570  0.7828
12869SOL    HW239442   5.551   3.894   5.471  1.8152  1.0075  0.4606
12870SOL     OW39443   4.521   2.292   1.004  0.6239 -0.3971  0.2400
12870SOL    HW139444   4.613   2.301   1.030  0.5184 -1.6418  1.0901
12870SOL    HW239445   4.486   2.223   1.060 -0.5806 -0.6215 -0.7428
12871SOL     OW39446   7.661   5.147   7.626 -0.3614 -0.3339 -0.4615
12871SOL    HW139447   7.663   5.243   7.630 -1.3560 -0.3348  1.3708
12871SOL    HW239448   7.650   5.127   7.533 -0.8267  1.3508 -0.8031
12872SOL     OW39449   1.556   7.076   7.768 -0.0381 -0.0444  0.8069
12872SOL    HW139450   1.552   7.157   7.717  0.9059 -0.0815  0.6456
12872SOL    HW239451   1.646   7.073   7.801  0.3188 -1.6313 -0.2073
12873SOL     OW39452   7.232   7.148   5.056  0.1716  0.4160 -0.2084
12873SOL    HW139453   7.283   7.205   5.112 -0.4786  2.5883 -1.6869
12873SOL    HW239454   7.256   7.173   4.967  0.7270 -2.4793 -1.0045
12874SOL     OW39455   1.328   1.300   4.841 -0.5329 -0.4698 -0.1844
12874SOL    HW139456   1.382   1.367   4.799 -0.4401 -0.6434 -0.3473
12874SOL    HW239457   1.377   1.276   4.920 -0.9615  0.2258  0.3001
12875SOL     OW39458   5.799   6.224   2.219 -0.2167 -0.2163  0.2227
12875SOL    HW139459   5.878   6.176   2.243  2.5964  2.6272 -2.3661
12875SOL    HW239460   5.798   6.299   2.279  1.2054  1.6092 -1.8778
12876SOL     OW39461   5.769   3.694   7.003 -0.2957  0.3704 -0.1076
12876SOL    HW139462   5.791   3.788   7.007 -0.7120  0.4470  2.3590
12876SOL    HW239463   5.836   3.656   6.947  0.3663  2.0364 -0.5155
12877SOL     OW39464   2.394   3.057   0.535 -0.1781  0.0468 -0.1088
12877SOL    HW139465   2.319   3.049   0.593  0.5978  1.9621  1.2766
12877SOL    HW239466   2.358   3.086   0.451 -0.9254  2.6743  1.0201
12878SOL     OW39467   0.364   3.298   3.063 -0.3598  1.0741 -0.7078
12878SOL    HW139468   0.454   3.265   3.058 -0.5315  0.7625 -1.9970
12878SOL    HW239469   0.322   3.241   3.128 -0.3047 -0.4882 -1.9661
12879SOL     OW39470   7.681   6.780   7.298  0.3401  0.0153  0.1451
12879SOL    HW139471   7.697   6.815   7.385  2.7374 -0.0156 -0.1974
12879SOL    HW239472   7.694   6.685   7.307  2.8042  0.1946 -0.5516
12880SOL     OW39473   3.004   7.920   1.742 -0.4487  0.1426 -0.5695
12880SOL    HW139474   2.958   8.002   1.760 -0.3839  0.3295 -1.2024
12880SOL    HW239475   3.028   7.926   1.649  1.2591  0.2504 -0.1552
12881SOL     OW39476   3.089   3.178   6.380 -0.1546 -0.0871 -0.0021
12881SOL    HW139477   3.025   3.111   6.403 -0.2480  0.4392  1.2897
12881SOL    HW239478   3.155   3.174   6.449  0.9352 -0.2295 -0.9995
12882SOL     OW39479   7.277   1.881   4.489  0.1443 -0.2401 -0.3176
12882SOL    HW139480   7.312   1.849   4.572 -1.8379 -2.1670 -0.1413
12882SOL    HW239481   7.251   1.971   4.507  1.6604  0.0570  0.5236
12883SOL     OW39482   1.134   7.011   3.815 -0.1119 -0.2772  0.2816
12883SOL    HW139483   1.044   6.989   3.790  0.3766 -0.8648 -1.0713
12883SOL    HW239484   1.184   6.931   3.797  0.8538  0.3634  0.0166
12884SOL     OW39485   7.246   5.378   3.183 -0.1588  0.6640  0.0489
12884SOL    HW139486   7.304   5.418   3.248  0.5468  0.4509 -0.4387
12884SOL    HW239487   7.162   5.372   3.227  0.6877 -1.0474  1.5838
12885SOL     OW39488   4.176   1.690   7.135 -0.1473  0.1990  0.0447
12885SOL    HW139489   4.168   1.756   7.204 -0.9087 -0.6124  0.7624
12885SOL    HW239490   4.268   1.691   7.110  0.2165  0.2532  1.3436
12886SOL     OW39491   2.898   4.986   2.752  0.0110 -0.2617  0.2901
12886SOL    HW139492   2.965   4.953   2.693 -2.1164 -0.3283 -2.2713
12886SOL    HW239493   2.865   4.908   2.797 -0.3363 -0.6858 -0.6713
12887SOL     OW39494   7.755   7.374   1.070 -0.0481 -0.2735 -0.3004
12887SOL    HW139495   7.756   7.465   1.041  2.8330 -0.0538  0.1830
12887SOL    HW239496   7.780   7.324   0.992  1.1353 -0.3278  0.0897
12888SOL     OW39497   0.045   6.356   6.944  0.1115  0.4318 -0.0257
12888SOL    HW139498  -0.008   6.310   6.878 -0.1052  2.3217 -1.2494
12888SOL    HW239499   0.074   6.435   6.900  2.7235  0.2196  1.1413
12889SOL     OW39500   0.762   3.617   6.623  0.0297  0.2668  0.3182
12889SOL    HW139501   0.791   3.708   6.633  0.6073  0.2450 -0.9566
12889SOL    HW239502   0.667   3.624   6.613  0.0248  0.6994  0.6303
12890SOL     OW39503   1.253   2.960   1.416  1.2447  0.4292 -0.3489
12890SOL    HW139504   1.167   2.978   1.379  2.1436  1.6423 -1.9401
12890SOL    HW239505   1.248   2.994   1.506 -0.2464 -0.4945 -0.0484
12891SOL     OW39506   0.845   1.010   4.289 -1.2031 -0.2552  0.1015
12891SOL    HW139507   0.927   1.028   4.244 -1.4075 -1.0697 -0.6114
12891SOL    HW239508   0.804   0.940   4.239 -1.4543 -1.1879  1.5338
12892SOL     OW39509   0.760   6.676   0.771  0.0436 -0.4151 -0.5998
12892SOL    HW139510   0.695   6.705   0.706  1.2657  1.7493 -0.9578
12892SOL    HW239511   0.819   6.751   0.781  1.5086 -1.6943  0.9790
12893SOL     OW39512   6.398   5.851   6.409  0.5534  0.3734  0.0617
12893SOL    HW139513   6.339   5.792   6.456  1.2614 -0.5334 -0.1580
12893SOL    HW239514   6.356   5.864   6.324 -0.0460  0.9195  0.4295
12894SOL     OW39515   7.901   2.693   4.174  0.5413  0.1688  0.3736
12894SOL    HW139516   7.991   2.702   4.204  0.8105  0.9247 -0.6298
12894SOL    HW239517   7.867   2.618   4.224  2.0494 -0.8219 -0.0171
12895SOL     OW39518   7.196   7.640   3.449  0.0057 -0.2382  0.3616
12895SOL    HW139519   7.280   7.598   3.433 -0.1855 -0.4742 -0.0584
12895SOL    HW239520   7.132   7.582   3.407 -0.0309  1.9213 -2.9875
12896SOL     OW39521   7.341   3.211   6.532 -0.3767 -0.0887 -0.4811
12896SOL    HW139522   7.291   3.196   6.451 -0.9737 -0.0830 -0.1192
12896SOL    HW239523   7.326   3.132   6.584 -0.0159 -0.0777 -0.3556
12897SOL     OW39524   7.436   6.876   1.364  0.0190 -0.9682  0.2855
12897SOL    HW139525   7.401   6.815   1.299  1.5463 -1.0554 -0.4983
12897SOL    HW239526   7.481   6.820   1.427 -0.4921 -0.7960  0.8138
12898SOL     OW39527   5.882   7.205   6.408  0.4938  0.1623  0.1033
12898SOL    HW139528   5.920   7.159   6.333  0.0784 -0.3148  0.1802
12898SOL    HW239529   5.839   7.282   6.371 -0.3100 -0.4390 -0.2308
12899SOL     OW39530   4.988   1.534   1.057  0.7222 -0.1056  0.1024
12899SOL    HW139531   5.014   1.460   1.112  1.1562 -1.2538 -1.5860
12899SOL    HW239532   5.009   1.507   0.968 -1.6973  0.9313 -0.8735
12900SOL     OW39533   7.818   4.773   1.956 -0.3482 -0.0093 -0.0698
12900SOL    HW139534   7.898   4.722   1.945  0.4523  1.0525  0.6204
12900SOL    HW239535   7.824   4.841   1.889  0.1547  1.0580  1.0288
12901SOL     OW39536   1.824   7.745   5.397 -0.2957  0.8499  0.2315
12901SOL    HW139537   1.899   7.687   5.384  0.9806  2.6944 -1.1164
12901SOL    HW239538   1.838   7.783   5.483 -1.3352 -1.0340  1.2860
12902SOL     OW39539   3.795   2.432   7.745  0.4347  0.2337 -0.0032
12902SOL    HW139540   3.790   2.405   7.836 -0.2613 -1.7990 -0.5763
12902SOL    HW239541   3.709   2.468   7.726  0.0841 -0.6790 -0.2071
12903SOL     OW39542   6.754   6.441   0.627 -0.0139 -0.0950  0.6314
12903SOL    HW139543   6.772   6.430   0.534  0.4294 -1.1350  0.8236
12903SOL    HW239544   6.703   6.522   0.632  0.1443  0.0945 -0.4842
12904SOL     OW39545   7.567   1.642   6.497  0.3846  0.1843 -0.1390
12904SOL    HW139546   7.577   1.679   6.409 -1.0721  2.1120  0.4323
12904SOL    HW239547   7.474   1.651   6.517  0.7208  0.0559  1.7207
12905SOL     OW39548   5.616   4.487   0.261  0.1952 -0.5680  0.7473
12905SOL    HW139549   5.674   4.464   0.334  1.9897 -2.4862 -1.1555
12905SOL    HW239550   5.563   4.408   0.247 -0.4393 -0.0663  0.2429
12906SOL     OW39551   5.357   2.238   3.615 -0.0334  0.1213  0.2693
12906SOL    HW139552   5.449   2.246   3.639  0.0004  0.0760  0.1538
12906SOL    HW239553   5.317   2.320   3.645 -0.1601 -0.2713  1.2346
12907SOL     OW39554   1.256   1.617   6.803  0.5779 -0.0681  0.1092
12907SOL    HW139555   1.329   1.652   6.855  0.2066  0.5530  0.2292
12907SOL    HW239556   1.230   1.691   6.748  1.9508 -1.1348 -2.1137
12908SOL     OW39557   5.605   5.286   3.491  0.0101  0.5740  0.1145
12908SOL    HW139558   5.564   5.291   3.404  2.0365  2.1829 -0.8221
12908SOL    HW239559   5.546   5.335   3.548 -2.1160 -1.7102  0.0632
12909SOL     OW39560   3.871   2.200   7.624 -0.1304  0.3510  0.3434
12909SOL    HW139561   3.855   2.279   7.675 -0.3519 -0.3367  1.3601
12909SOL    HW239562   3.842   2.128   7.680 -1.9841 -0.3645 -1.3534
12910SOL     OW39563   6.336   3.658   7.901 -0.3037  0.2708  0.2703
12910SOL    HW139564   6.384   3.711   7.838 -0.7265  0.7562  0.3491
12910SOL    HW239565   6.244   3.681   7.887 -0.3266  1.3898  1.9497
12911SOL     OW39566   5.987   3.519   6.892  0.6984 -0.6126 -0.5069
12911SOL    HW139567   5.967   3.497   6.800  0.6736 -1.5366 -0.2881
12911SOL    HW239568   6.060   3.461   6.915 -0.6518 -1.9112  0.6853
12912SOL     OW39569   1.327   6.556   4.987 -0.4217 -0.0016 -0.1806
12912SOL    HW139570   1.233   6.570   4.978 -0.5537 -0.1683  0.8667
12912SOL    HW239571   1.364   6.588   4.905 -1.4157 -0.1775 -0.7046
12913SOL     OW39572   3.854   5.646   1.061  0.1785 -0.1055 -0.1942
12913SOL    HW139573   3.904   5.675   1.137 -1.7833  0.6126  0.8809
12913SOL    HW239574   3.917   5.650   0.989  2.3012 -1.4419  1.4298
12914SOL     OW39575   5.630   0.758   2.060  0.3538 -0.1724 -0.2007
12914SOL    HW139576   5.663   0.747   2.149  0.6327  0.1330 -0.2643
12914SOL    HW239577   5.707   0.785   2.009 -0.0240  0.7127 -0.3175
12915SOL     OW39578   2.009   3.551   6.618  0.1041  0.1040  0.4013
12915SOL    HW139579   1.983   3.492   6.689  1.3724 -0.0842  0.7307
12915SOL    HW239580   2.073   3.500   6.567  0.6969  0.9400  0.2918
12916SOL     OW39581   6.242   4.513   7.245 -0.0112 -0.1142  0.3629
12916SOL    HW139582   6.333   4.486   7.235 -0.6304 -1.3911 -2.8413
12916SOL    HW239583   6.197   4.435   7.276 -0.2524  0.1114  0.5920
12917SOL     OW39584   1.143   4.518   3.465 -0.0254 -0.2602  0.8434
12917SOL    HW139585   1.220   4.465   3.487  0.7648  0.8618  0.8924
12917SOL    HW239586   1.175   4.608   3.468 -1.0414  0.1655 -0.3926
12918SOL     OW39587   0.720   1.117   0.041 -0.5488  0.1621  0.2592
12918SOL    HW139588   0.652   1.167   0.087 -0.6913 -0.8802  1.2400
12918SOL    HW239589   0.772   1.183  -0.004  0.1002  1.3423  2.5835
12919SOL     OW39590   4.419   6.596   7.188  0.1741 -0.1177  0.6545
12919SOL    HW139591   4.326   6.573   7.191  0.0621 -0.6128 -2.6550
12919SOL    HW239592   4.460   6.522   7.144  2.0275  0.4497  1.3591
12920SOL     OW39593   2.940   2.534   3.932 -0.1815 -0.1069 -0.1041
12920SOL    HW139594   2.972   2.476   3.863 -0.0800 -0.4476  0.2223
12920SOL    HW239595   2.867   2.487   3.972 -1.5860  0.9794 -1.3051
12921SOL     OW39596   5.261   6.635   0.478  0.5577 -0.4130  0.5821
12921SOL    HW139597   5.261   6.726   0.509 -1.5095  0.3278 -1.3031
12921SOL    HW239598   5.261   6.643   0.382  1.6769 -2.4602  0.3673
12922SOL     OW39599   1.839   3.608   3.069  1.0160  0.1743  0.2814
12922SOL    HW139600   1.875   3.563   2.992 -0.8840 -2.0077  0.5308
12922SOL    HW239601   1.865   3.699   3.058  1.2378 -0.1341 -2.6986
12923SOL     OW39602   5.891   3.420   2.578 -0.7862 -0.2205 -0.1473
12923SOL    HW139603   5.871   3.441   2.486 -1.9800 -1.1343 -0.1144
12923SOL    HW239604   5.877   3.326   2.585  0.0023 -0.2795  0.8139
12924SOL     OW39605   0.993   0.276   1.591  0.5314 -0.0807  0.0985
12924SOL    HW139606   1.051   0.312   1.659  0.7541 -0.4774  0.1220
12924SOL    HW239607   0.938   0.350   1.565 -0.5212 -0.2440  1.6910
12925SOL     OW39608   0.345   2.555   3.127 -0.0583 -1.0196  0.6685
12925SOL    HW139609   0.355   2.650   3.122 -0.0308 -1.0461  0.2628
12925SOL    HW239610   0.415   2.526   3.186  0.0968 -0.8209  0.5786
12926SOL     OW39611   2.899   1.506   5.829 -0.4583  0.0497  0.1365
12926SOL    HW139612   2.952   1.586   5.825 -0.8622  0.2867 -1.0766
12926SOL    HW239613   2.832   1.526   5.894 -0.2819  0.5363  0.1772
12927SOL     OW39614   4.709   4.726   2.468 -0.1760  0.8221  0.2530
12927SOL    HW139615   4.717   4.649   2.524 -0.4138  0.3219 -0.3875
12927SOL    HW239616   4.678   4.795   2.527 -1.7046 -0.0246  0.4858
12928SOL     OW39617   5.993   4.124   3.202  0.6290  0.0576  0.4512
12928SOL    HW139618   6.068   4.164   3.246  1.0883  0.0829 -0.3299
12928SOL    HW239619   5.974   4.183   3.130 -0.7530  0.5444  1.1920
12929SOL     OW39620   5.621   2.341   7.694  0.5171  0.0713 -0.3670
12929SOL    HW139621   5.592   2.431   7.712  0.5617 -0.1421  0.8799
12929SOL    HW239622   5.587   2.322   7.607 -0.7561  0.7842 -0.0590
12930SOL     OW39623   2.195   1.102   5.502  0.3572 -0.1979  0.0222
12930SOL    HW139624   2.269   1.063   5.456 -0.0652 -1.5456  0.4470
12930SOL    HW239625   2.150   1.029   5.543  0.0481  0.8445  1.6306
12931SOL     OW39626   7.104   4.383   6.976  0.4069  0.1088 -0.2335
12931SOL    HW139627   7.098   4.326   7.053  0.9304 -1.3101 -1.2005
12931SOL    HW239628   7.028   4.442   6.984 -0.8085 -1.4459  0.2393
12932SOL     OW39629   5.416   3.385   6.670  0.4568 -0.2953 -0.2549
12932SOL    HW139630   5.482   3.316   6.681  0.0914 -0.7492 -0.8436
12932SOL    HW239631   5.420   3.435   6.752 -0.3806 -1.9990  0.8894
12933SOL     OW39632   5.154   0.513   3.696 -0.7220 -0.6366 -0.1503
12933SOL    HW139633   5.165   0.548   3.608  1.1391 -0.8000 -0.0218
12933SOL    HW239634   5.072   0.465   3.693 -1.9697  1.4296 -1.0809
12934SOL     OW39635   7.792   6.883   5.539 -0.0371 -0.1878 -0.0465
12934SOL    HW139636   7.793   6.794   5.575  0.0227 -0.0672  0.2553
12934SOL    HW239637   7.728   6.879   5.468 -2.4244  0.2738  1.9052
12935SOL     OW39638   5.375   1.514   5.791  0.3007 -0.1929 -0.3486
12935SOL    HW139639   5.321   1.473   5.859  0.0373 -0.0753 -0.4859
12935SOL    HW239640   5.341   1.479   5.709 -0.0179  0.3984 -0.4781
12936SOL     OW39641   4.713   3.055   4.023 -0.4271 -0.0532  0.3819
12936SOL    HW139642   4.741   3.144   4.040  0.8107 -0.6044  1.3925
12936SOL    HW239643   4.785   3.000   4.054 -0.3178 -1.3609 -1.9067
12937SOL     OW39644   6.435   3.672   2.795 -0.0029 -0.0169  0.4917
12937SOL    HW139645   6.469   3.761   2.779 -0.1109 -0.0502  0.0648
12937SOL    HW239646   6.350   3.671   2.753  1.1939 -1.2151 -2.1106
12938SOL     OW39647   2.548   2.120   1.934 -0.1094  0.2844 -0.4037
12938SOL    HW139648   2.609   2.133   2.006  0.0665 -0.7038 -0.3621
12938SOL    HW239649   2.464   2.104   1.976 -0.4171  1.6726 -0.4616
12939SOL     OW39650   5.897   4.200   6.278 -0.0450 -0.2485  0.8065
12939SOL    HW139651   5.909   4.109   6.305 -1.0336 -0.1384  1.6592
12939SOL    HW239652   5.837   4.196   6.204  1.1702 -0.3949 -0.2081
12940SOL     OW39653   5.404   5.302   6.392  0.0466 -0.4283  0.3628
12940SOL    HW139654   5.346   5.258   6.453 -0.3724  0.0559  0.3234
12940SOL    HW239655   5.368   5.282   6.306  0.1630 -0.4462  0.3183
12941SOL     OW39656   5.113   5.910   6.508  0.5368  0.3783  0.0030
12941SOL    HW139657   5.066   5.992   6.497  0.8568  0.4063 -1.4475
12941SOL    HW239658   5.064   5.847   6.454 -1.0148 -0.9965  2.7968
12942SOL     OW39659   3.338   4.743   5.152  0.1084 -0.5964  0.5791
12942SOL    HW139660   3.429   4.770   5.159  0.3537 -0.9189 -1.0550
12942SOL    HW239661   3.293   4.820   5.117 -0.6047  0.1323  2.8898
12943SOL     OW39662   0.775   2.531   5.449  0.2387 -0.1300 -0.3941
12943SOL    HW139663   0.762   2.626   5.439  0.8521 -0.2249 -2.4961
12943SOL    HW239664   0.712   2.506   5.516 -0.8214  1.5826 -0.6755
12944SOL     OW39665   4.384   1.298   2.417 -0.3299 -0.5123 -0.0417
12944SOL    HW139666   4.455   1.327   2.474  0.5699 -0.8777 -0.9349
12944SOL    HW239667   4.401   1.343   2.334  0.0441 -2.1537 -0.8901
12945SOL     OW39668   3.663   6.949   5.048 -0.4650  0.0533 -0.5716
12945SOL    HW139669   3.679   6.857   5.027 -0.6797 -0.2783  0.6452
12945SOL    HW239670   3.576   6.949   5.090 -0.1977  0.7144 -0.0055
12946SOL     OW39671   7.488   4.678   7.509 -0.0368 -0.0889 -0.4944
12946SOL    HW139672   7.489   4.742   7.438 -0.3713  1.5995  0.9564
12946SOL    HW239673   7.395   4.666   7.529 -0.1298 -2.5794 -2.0131
12947SOL     OW39674   0.384   7.514   5.223 -0.7228  1.2770  0.3240
12947SOL    HW139675   0.421   7.491   5.308 -1.3867 -0.3330  0.2194
12947SOL    HW239676   0.460   7.530   5.167 -0.1881 -0.4047  0.5197
12948SOL     OW39677   3.814   2.451   3.308 -0.2295 -0.1360  0.0568
12948SOL    HW139678   3.863   2.462   3.389 -1.9610 -1.5495  1.3507
12948SOL    HW239679   3.726   2.427   3.335 -0.6477 -1.5386 -2.2530
12949SOL     OW39680   6.477   6.759   2.355 -0.2212 -0.3539 -0.6232
12949SOL    HW139681   6.451   6.772   2.446  0.8264 -0.9566 -0.2055
12949SOL    HW239682   6.412   6.698   2.320 -0.0565 -0.9244  0.0359
12950SOL     OW39683   2.152   4.025   4.007  0.1695  0.0682  0.0483
12950SOL    HW139684   2.061   4.006   3.986  0.4881 -0.6915 -0.7410
12950SOL    HW239685   2.149   4.075   4.088 -1.0741  1.9866 -1.1169
12951SOL     OW39686   0.564   7.608   5.045  0.0264 -0.4595 -0.1709
12951SOL    HW139687   0.587   7.682   4.989 -0.1596 -0.9250 -0.8695
12951SOL    HW239688   0.634   7.544   5.030 -0.2217 -0.7375 -0.1607
12952SOL     OW39689   3.674   6.396   6.560  0.4138 -0.3966 -0.5935
12952SOL    HW139690   3.760   6.358   6.544  0.8307 -0.3844  1.3428
12952SOL    HW239691   3.671   6.474   6.504  2.1327  0.2005  0.0725
12953SOL     OW39692   1.987   7.577   7.448  0.3373  0.2716 -0.2633
12953SOL    HW139693   1.922   7.546   7.511 -1.2511  0.0655 -1.9389
12953SOL    HW239694   2.027   7.497   7.414  0.1346  0.3222 -0.6135
12954SOL     OW39695   3.235   1.235   6.997  0.2615  0.0591 -0.1003
12954SOL    HW139696   3.144   1.213   6.976  0.1520 -0.2389  0.6641
12954SOL    HW239697   3.278   1.150   7.008  0.9215  0.1676 -1.5828
12955SOL     OW39698   5.605   4.892   2.015 -0.7772 -0.1577 -0.4436
12955SOL    HW139699   5.556   4.941   2.082 -1.0583  1.9183 -2.0562
12955SOL    HW239700   5.687   4.941   2.005  1.4273 -3.0730  1.5653
12956SOL     OW39701   4.164   4.649   5.930 -0.0630  0.4609 -0.0470
12956SOL    HW139702   4.172   4.719   5.865 -0.9200  0.5596 -0.0649
12956SOL    HW239703   4.115   4.690   6.002  0.9567  0.3819  0.7044
12957SOL     OW39704   0.488   2.641   4.368  0.3493  0.3498 -0.2118
12957SOL    HW139705   0.496   2.548   4.345  1.4927 -0.3335  2.5708
12957SOL    HW239706   0.486   2.686   4.284  1.8720 -2.0462 -1.6616
12958SOL     OW39707   5.718   4.854   2.309  0.6630 -0.0684  0.2538
12958SOL    HW139708   5.729   4.849   2.404  3.2793 -0.8956 -0.0216
12958SOL    HW239709   5.741   4.766   2.278  1.3005  0.6013 -1.2385
12959SOL     OW39710   2.402   4.173   6.098 -0.0272  0.0531 -0.7264
12959SOL    HW139711   2.434   4.127   6.021  0.0178 -0.1517 -0.5840
12959SOL    HW239712   2.467   4.241   6.114  1.4413 -1.6031  0.7629
12960SOL     OW39713   6.103   0.013   2.006 -0.0469  0.1178  0.3488
12960SOL    HW139714   6.176   0.063   1.968 -1.2575  0.1968 -2.0704
12960SOL    HW239715   6.109  -0.073   1.965 -0.2132 -0.5139  1.6053
12961SOL     OW39716   0.549   3.765   4.494  0.1467 -0.6639 -0.4189
12961SOL    HW139717   0.466   3.722   4.474 -0.9182  1.3584 -0.5295
12961SOL    HW239718   0.604   3.751   4.417 -0.5261 -0.9705 -0.8435
12962SOL     OW39719   4.319   5.947   6.718  0.2365 -0.7138  0.3800
12962SOL    HW139720   4.401   5.936   6.765 -0.2308 -1.7502  0.9647
12962SOL    HW239721   4.269   6.011   6.770 -0.1828 -1.6776  1.1919
12963SOL     OW39722   5.244   6.808   0.177  0.0415 -0.1191 -0.8366
12963SOL    HW139723   5.203   6.881   0.225 -1.1530 -1.9482  1.1052
12963SOL    HW239724   5.181   6.786   0.109 -1.3930 -1.6269  0.8872
12964SOL     OW39725   7.747   5.400   2.426  0.3093 -0.3726 -0.1367
12964SOL    HW139726   7.759   5.476   2.368  0.0111 -1.5683 -1.8466
12964SOL    HW239727   7.788   5.426   2.508 -2.0830  2.6615  0.2628
12965SOL     OW39728   2.213   6.383   7.199 -0.2862 -0.1854  0.1996
12965SOL    HW139729   2.263   6.306   7.172 -1.7928 -1.4307  0.7935
12965SOL    HW239730   2.126   6.349   7.220 -0.7378  1.5392  1.3693
12966SOL     OW39731   5.668   1.889   5.312  0.1680  0.0279  0.1989
12966SOL    HW139732   5.750   1.938   5.317  0.5285 -0.5255 -0.2946
12966SOL    HW239733   5.603   1.954   5.285  0.2400  0.6928  1.5312
12967SOL     OW39734   6.653   5.334   2.707  0.0838  0.2604 -0.7034
12967SOL    HW139735   6.622   5.297   2.625 -1.6842  1.7922 -0.7770
12967SOL    HW239736   6.704   5.263   2.747  0.3514 -0.7699 -2.7241
12968SOL     OW39737   6.129   4.942   5.585 -0.2188  0.2839  0.9247
12968SOL    HW139738   6.138   4.909   5.496  0.5396 -0.2130  1.1767
12968SOL    HW239739   6.158   5.034   5.579  0.8299 -0.0340  0.8432
12969SOL     OW39740   5.809   5.486   0.026 -0.4645 -0.0574 -0.0862
12969SOL    HW139741   5.842   5.455  -0.058 -0.4118 -0.6917  0.1604
12969SOL    HW239742   5.883   5.474   0.087 -1.6769 -3.5095  0.9547
12970SOL     OW39743   2.599   0.540   2.114 -0.5135  0.3998  0.5111
12970SOL    HW139744   2.507   0.519   2.096 -0.5723  0.7998  0.3150
12970SOL    HW239745   2.637   0.458   2.146 -0.3140 -0.5084 -1.8387
12971SOL     OW39746   7.375   5.201   6.059 -0.1494 -0.1788  0.3658
12971SOL    HW139747   7.348   5.129   6.003  0.6265  0.0001 -0.2490
12971SOL    HW239748   7.328   5.277   6.025 -1.1381 -0.4055  1.1488
12972SOL     OW39749   4.253   1.738   6.322  0.4456  0.1994 -0.2758
12972SOL    HW139750   4.311   1.675   6.278 -0.7997  0.3984 -2.3788
12972SOL    HW239751   4.311   1.794   6.372  1.7371 -1.6328  0.3601
12973SOL     OW39752   5.232   2.413   6.336  0.1411 -0.3202 -0.1339
12973SOL    HW139753   5.146   2.419   6.295 -0.3303  1.0474  1.0055
12973SOL    HW239754   5.219   2.356   6.411  0.4803 -0.9274 -0.5241
12974SOL     OW39755   3.088   7.032   5.529  0.6703  0.2818 -0.2770
12974SOL    HW139756   3.170   7.048   5.577  0.2538 -1.0705  0.9664
12974SOL    HW239757   3.020   7.066   5.587  0.2239 -0.4480 -0.3674
12975SOL     OW39758   0.594   5.734   5.375 -0.0612 -0.6216  0.0343
12975SOL    HW139759   0.581   5.662   5.314 -0.2658 -0.8279  0.3210
12975SOL    HW239760   0.512   5.784   5.371 -0.4849 -1.2365  0.9332
12976SOL     OW39761   2.118   3.971   5.874  0.1162 -0.3271  0.0883
12976SOL    HW139762   2.101   3.974   5.780  1.3875 -3.0627 -0.3257
12976SOL    HW239763   2.116   4.063   5.902 -0.3605  0.5472 -2.5791
12977SOL     OW39764   2.179   1.665   6.209  0.6130 -0.2289 -0.4385
12977SOL    HW139765   2.179   1.756   6.180  1.1495 -0.6020 -1.6882
12977SOL    HW239766   2.252   1.660   6.271  0.8241  0.1097 -0.6549
12978SOL     OW39767   0.821   5.650   2.135 -0.0527 -0.4901  0.1478
12978SOL    HW139768   0.841   5.663   2.228 -0.3118  2.0425 -0.0886
12978SOL    HW239769   0.726   5.647   2.131 -0.3807 -7.1225  0.5802
12979SOL     OW39770   7.455   7.034   6.435  0.2403 -0.6549 -0.0506
12979SOL    HW139771   7.402   7.002   6.508 -1.8352  1.0186 -0.7271
12979SOL    HW239772   7.546   7.026   6.466 -0.2955 -3.8252  1.0753
12980SOL     OW39773   2.172   3.842   4.760 -0.1966  0.6649  0.8287
12980SOL    HW139774   2.113   3.904   4.803 -0.5815  0.3108  0.8110
12980SOL    HW239775   2.246   3.896   4.732 -0.4887  1.1069  0.8891
12981SOL     OW39776   4.445   6.166   4.394  0.0349  0.3161 -0.1935
12981SOL    HW139777   4.440   6.219   4.473 -0.3307 -0.7957  0.5522
12981SOL    HW239778   4.355   6.163   4.361 -0.2032 -0.8977  0.5071
12982SOL     OW39779   3.228   0.231   7.200  0.0301  0.2695 -1.4124
12982SOL    HW139780   3.262   0.268   7.118  0.3887  1.4878 -0.7322
12982SOL    HW239781   3.132   0.234   7.189  0.0828 -0.5114 -2.1807
12983SOL     OW39782   3.990   4.260   5.685 -0.0848  0.0156 -0.1190
12983SOL    HW139783   3.899   4.272   5.711  0.1872 -0.6148  1.2175
12983SOL    HW239784   4.031   4.218   5.760  1.2601  0.0633 -0.7940
12984SOL     OW39785   6.646   1.075   1.490  0.2589  0.2335  0.4100
12984SOL    HW139786   6.667   0.997   1.439 -1.0922 -1.0375  1.7211
12984SOL    HW239787   6.558   1.100   1.461 -0.1736 -0.0007  1.5016
12985SOL     OW39788   0.927   6.000   6.975 -0.8869 -0.3985  0.8187
12985SOL    HW139789   0.933   6.065   7.045  1.3490  0.5868 -0.1682
12985SOL    HW239790   0.858   6.033   6.917 -1.1416  0.0275  1.3598
12986SOL     OW39791   2.801   6.810   6.443  0.2451  0.2720  0.2105
12986SOL    HW139792   2.748   6.784   6.367  1.1649 -0.6643 -0.1291
12986SOL    HW239793   2.891   6.809   6.411  0.6001  0.4010  1.1775
12987SOL     OW39794   0.856   0.353   4.361 -0.0626  0.2660 -0.5480
12987SOL    HW139795   0.894   0.357   4.449  1.2688 -0.8327 -1.0510
12987SOL    HW239796   0.895   0.276   4.321  2.5240  2.8184 -3.5371
12988SOL     OW39797   0.954   1.568   6.509  0.2556 -0.1667 -0.5548
12988SOL    HW139798   0.996   1.531   6.587 -1.0394 -0.0729  0.2208
12988SOL    HW239799   0.937   1.492   6.453 -0.5050 -0.5144  0.1101
12989SOL     OW39800   7.512   3.807   7.708 -0.2245 -0.0543  0.1319
12989SOL    HW139801   7.521   3.766   7.622 -2.2886  0.2531 -0.3003
12989SOL    HW239802   7.472   3.892   7.690 -0.9820 -0.1157  1.3839
12990SOL     OW39803   1.641   6.091   5.461 -0.3599 -0.4874 -0.2862
12990SOL    HW139804   1.584   6.164   5.436  1.3810  0.4037 -1.9020
12990SOL    HW239805   1.681   6.118   5.543 -0.3133  0.0570 -0.4846
12991SOL     OW39806   3.483   1.396   6.704  0.2600  0.0002 -0.6350
12991SOL    HW139807   3.560   1.453   6.709  0.0404  0.2224  1.0449
12991SOL    HW239808   3.516   1.310   6.730 -0.0384  0.1078  0.1460
12992SOL     OW39809   6.150   0.466   3.054  0.1333  0.7153 -0.5512
12992SOL    HW139810   6.057   0.482   3.036 -0.6461 -1.9538  0.6958
12992SOL    HW239811   6.181   0.418   2.977  0.0189  0.0805 -0.2025
12993SOL     OW39812   2.876   0.522   7.900  0.8683  0.1518  0.4080
12993SOL    HW139813   2.898   0.482   7.816 -0.4511  1.3761 -0.5705
12993SOL    HW239814   2.958   0.522   7.949  1.9872  0.5607 -1.3841
12994SOL     OW39815   0.846   5.892   7.614 -0.0448 -0.0306  0.2204
12994SOL    HW139816   0.773   5.832   7.603 -0.3166  0.3159  0.1067
12994SOL    HW239817   0.806   5.976   7.635  0.2932  0.2871 -0.3653
12995SOL     OW39818   5.745   6.783   6.457  0.0347 -0.3746 -0.1859
12995SOL    HW139819   5.720   6.747   6.372 -1.3743 -0.2634  0.1573
12995SOL    HW239820   5.770   6.874   6.437  0.2278 -0.5091 -0.5632
12996SOL     OW39821   1.811   5.133   6.355 -0.0265  0.3317 -0.6938
12996SOL    HW139822   1.793   5.080   6.433 -0.2940  0.7143 -0.4947
12996SOL    HW239823   1.726   5.146   6.314 -0.1427  1.6724 -0.0517
12997SOL     OW39824   5.728   4.480   7.745 -0.1331  0.1252 -0.1034
12997SOL    HW139825   5.774   4.408   7.787 -0.8168  0.0172  0.4795
12997SOL    HW239826   5.718   4.546   7.814 -0.8542  0.1386 -0.2127
12998SOL     OW39827   4.944   1.018   0.706  0.1663 -0.0417  0.0306
12998SOL    HW139828   4.955   0.962   0.783 -1.6605 -1.2506 -0.5221
12998SOL    HW239829   5.000   0.977   0.639  1.1009  0.5263  0.4426
12999SOL     OW39830   7.098   1.519   4.516  0.1967  0.3579 -0.2022
12999SOL    HW139831   7.135   1.454   4.456  0.1813 -0.3308  0.5218
12999SOL    HW239832   7.163   1.528   4.585  0.1748  1.0830 -0.2679
13000SOL     OW39833   0.616   0.154   5.110  0.6204 -0.1605  0.4943
13000SOL    HW139834   0.600   0.147   5.204 -0.7409 -1.3922  0.2152
13000SOL    HW239835   0.578   0.239   5.086  0.4355 -0.1043  0.9587
13001SOL     OW39836   4.990   6.363   0.466 -0.2093 -0.2102 -0.1844
13001SOL    HW139837   5.029   6.418   0.534 -0.2213 -1.2812  0.7129
13001SOL    HW239838   4.916   6.414   0.434 -0.7591 -0.0557  1.2535
13002SOL     OW39839   6.935   5.830   3.163 -0.0488 -0.2068  0.7775
13002SOL    HW139840   6.946   5.774   3.240 -3.6440 -1.2241  0.7379
13002SOL    HW239841   6.873   5.898   3.192 -0.1369  0.4063 -0.7572
13003SOL     OW39842   7.925   6.060   6.827  0.5795 -0.5289 -0.0428
13003SOL    HW139843   7.841   6.059   6.780  0.2939  3.5942  0.0722
13003SOL    HW239844   7.987   6.023   6.764 -0.8353 -1.1236 -1.1726
13004SOL     OW39845   5.836   6.159   1.614  0.5273 -0.3459  0.3040
13004SOL    HW139846   5.844   6.170   1.519  0.0242 -1.1279  0.1611
13004SOL    HW239847   5.801   6.071   1.625 -2.2622  0.7575  1.0675
13005SOL     OW39848   0.827   0.708   1.427  0.1050 -0.7422 -0.0684
13005SOL    HW139849   0.744   0.681   1.387 -0.4407  0.3595  0.3068
13005SOL    HW239850   0.864   0.626   1.462 -0.9905 -1.1777  0.0908
13006SOL     OW39851   1.268   6.477   0.731  0.5524  0.4306 -0.5178
13006SOL    HW139852   1.357   6.453   0.707  0.3950  0.4437 -1.1441
13006SOL    HW239853   1.214   6.443   0.660 -0.1643 -1.1565  0.7127
13007SOL     OW39854   5.824   1.452   7.475  0.0803 -0.7939 -0.0473
13007SOL    HW139855   5.867   1.410   7.550 -0.4549  0.0605  0.7550
13007SOL    HW239856   5.884   1.436   7.402  1.9645  0.6246  1.0809
13008SOL     OW39857   5.984   7.870   2.908  0.3007 -0.3637  0.7240
13008SOL    HW139858   6.065   7.919   2.923 -0.1677  0.7848 -0.3762
13008SOL    HW239859   5.927   7.894   2.982  1.2361 -1.8886  2.0176
13009SOL     OW39860   7.681   0.147   1.737 -0.5017  0.3484 -0.1028
13009SOL    HW139861   7.695   0.204   1.813  1.5622 -0.1716 -0.0324
13009SOL    HW239862   7.704   0.202   1.661 -2.1756  0.7423 -0.3632
13010SOL     OW39863   6.888   2.293   1.042  0.6581 -0.1173 -0.4860
13010SOL    HW139864   6.850   2.339   1.117  1.6709  0.6383 -0.4078
13010SOL    HW239865   6.959   2.241   1.079 -0.1892 -1.4128 -0.6449
13011SOL     OW39866   6.806   5.160   2.877 -0.1292 -0.0840 -0.0837
13011SOL    HW139867   6.807   5.065   2.892  1.0173  0.2423  2.3376
13011SOL    HW239868   6.743   5.194   2.941  1.8915  1.0325  1.4572
13012SOL     OW39869   4.131   5.982   3.550 -0.7871 -0.1335 -0.2309
13012SOL    HW139870   4.194   5.942   3.490  1.0263  1.7239  0.2819
13012SOL    HW239871   4.168   5.966   3.637 -2.4787 -1.3147  0.3167
13013SOL     OW39872   4.573   2.866   7.691  0.4141 -0.2279  0.1001
13013SOL    HW139873   4.544   2.837   7.778  0.1791 -0.2659  0.0075
13013SOL    HW239874   4.640   2.932   7.709 -1.3638  1.6021  0.3214
13014SOL     OW39875   2.051   5.779   7.540 -0.2286 -0.3268 -0.3425
13014SOL    HW139876   1.978   5.829   7.504 -0.2892  1.4266  1.9781
13014SOL    HW239877   2.110   5.845   7.576  1.3683 -1.8181 -0.0764
13015SOL     OW39878   2.093   6.534   7.588 -0.0397  0.0321  0.2195
13015SOL    HW139879   2.091   6.627   7.568  2.2053 -0.0568 -0.8163
13015SOL    HW239880   2.032   6.494   7.525 -0.0939  0.6857 -0.1469
13016SOL     OW39881   7.530   0.321   0.790 -0.6073 -0.2417 -0.1912
13016SOL    HW139882   7.522   0.342   0.697 -3.8600 -2.3137 -0.5415
13016SOL    HW239883   7.461   0.372   0.833 -1.7403 -2.1599  0.4157
13017SOL     OW39884   5.313   1.817   5.468 -0.0952  0.2503 -0.1112
13017SOL    HW139885   5.363   1.856   5.540  1.1973  0.1387 -0.9232
13017SOL    HW239886   5.375   1.760   5.423 -1.2458 -0.7120 -0.5335
13018SOL     OW39887   6.060   2.661   5.785 -0.1159  0.4316 -0.4809
13018SOL    HW139888   6.047   2.735   5.844 -1.6386  0.7037 -1.1228
13018SOL    HW239889   6.154   2.646   5.786  0.4178  3.1922 -1.3267
13019SOL     OW39890   7.664   2.705   0.479  0.6250  0.0775 -0.1100
13019SOL    HW139891   7.596   2.639   0.470  1.9107 -1.4284  0.5866
13019SOL    HW239892   7.623   2.777   0.527 -0.4693 -0.7885  0.2791
13020SOL     OW39893   0.247   7.791   0.842  0.1201  0.1362  0.2557
13020SOL    HW139894   0.162   7.827   0.815 -0.6895  1.3822  3.9062
13020SOL    HW239895   0.306   7.867   0.842  0.5579 -0.1996  0.2945
13021SOL     OW39896   5.661   6.694   4.141 -0.3236 -0.0105 -0.2965
13021SOL    HW139897   5.718   6.769   4.124  0.6679 -0.3185  1.4301
13021SOL    HW239898   5.720   6.619   4.140 -1.3135 -0.8353 -2.0747
13022SOL     OW39899   7.922   3.452   7.220  0.0671 -0.0245 -0.2526
13022SOL    HW139900   7.872   3.505   7.283  3.9892  2.8333  0.8873
13022SOL    HW239901   7.921   3.504   7.139 -1.1971 -1.4690 -1.2281
13023SOL     OW39902   7.657   7.384   0.632  0.0213 -0.0347 -0.1288
13023SOL    HW139903   7.725   7.348   0.575  0.7005  2.0692 -0.7326
13023SOL    HW239904   7.686   7.362   0.720  1.2382  0.3639 -0.4016
13024SOL     OW39905   4.731   3.870   3.784  0.5290 -0.1018 -0.5977
13024SOL    HW139906   4.802   3.934   3.784  0.0578  0.4277 -0.7075
13024SOL    HW239907   4.704   3.864   3.692  0.1492  0.0309 -0.5004
13025SOL     OW39908   5.489   7.118   3.818  0.1256 -0.0165 -0.8382
13025SOL    HW139909   5.420   7.178   3.790 -1.0333  0.3104  2.2782
13025SOL    HW239910   5.469   7.036   3.773 -1.4357  0.4911 -1.1370
13026SOL     OW39911   6.514   2.105   1.027 -0.2237 -0.0685 -0.0085
13026SOL    HW139912   6.448   2.107   1.097  0.2991  0.6429  0.4744
13026SOL    HW239913   6.523   2.012   1.006 -0.2250 -0.3196  1.0419
13027SOL     OW39914   0.290   6.782   5.012  0.2289 -0.2526  0.2824
13027SOL    HW139915   0.236   6.841   4.959  0.3817  1.1047  1.6013
13027SOL    HW239916   0.308   6.831   5.092 -0.2042 -2.3479  1.7295
13028SOL     OW39917   1.363   1.951   2.092 -0.4458  0.2454 -0.0139
13028SOL    HW139918   1.452   1.982   2.073  0.3874 -1.4555  0.8527
13028SOL    HW239919   1.351   1.968   2.186 -0.7999 -0.0809  0.0029
13029SOL     OW39920   0.601   0.325   6.132  0.1485 -0.0091 -0.5275
13029SOL    HW139921   0.664   0.351   6.199 -0.9176 -0.5186  0.7062
13029SOL    HW239922   0.653   0.274   6.070  0.8490 -1.0188  0.8267
13030SOL     OW39923   1.362   0.487   0.645  0.4622  0.1119 -0.2984
13030SOL    HW139924   1.378   0.396   0.619 -2.0606 -0.1174 -1.2850
13030SOL    HW239925   1.274   0.507   0.612  0.3736  2.4740  1.1367
13031SOL     OW39926   1.741   3.222   7.891 -0.3886 -0.0858 -0.3160
13031SOL    HW139927   1.771   3.307   7.924 -0.8922  0.1968 -0.5871
13031SOL    HW239928   1.665   3.201   7.944 -0.3079 -0.3315 -0.2988
13032SOL     OW39929   7.110   3.325   5.862 -0.2389 -0.5604 -0.2678
13032SOL    HW139930   7.048   3.383   5.906  0.8923  0.1334  0.4984
13032SOL    HW239931   7.097   3.240   5.904 -0.4442 -0.3425  0.1197
13033SOL     OW39932   0.737   0.265   6.511  0.4806  0.0930  0.4389
13033SOL    HW139933   0.774   0.280   6.598  1.2002  0.7286  0.0321
13033SOL    HW239934   0.812   0.269   6.451 -0.2460  1.6923 -0.4344
13034SOL     OW39935   6.661   3.750   5.801  0.4528 -0.0573  0.3625
13034SOL    HW139936   6.603   3.810   5.754  2.8975  1.9038 -0.3817
13034SOL    HW239937   6.714   3.710   5.733  0.2669 -1.5349  1.0479
13035SOL     OW39938   3.094   2.427   7.778 -0.7216  0.3505 -0.5503
13035SOL    HW139939   3.044   2.445   7.858  0.6596  1.2895  0.1273
13035SOL    HW239940   3.032   2.380   7.722 -2.0784  0.6756  0.6123
13036SOL     OW39941   2.571   5.161   4.928 -0.1046 -0.1925  0.1340
13036SOL    HW139942   2.661   5.141   4.902  0.1499  0.1484  0.7389
13036SOL    HW239943   2.517   5.115   4.863  0.4254 -3.3374  1.7195
13037SOL     OW39944   3.762   1.309   0.808 -0.2150  0.5104  0.2106
13037SOL    HW139945   3.836   1.370   0.820  0.5541 -0.2996 -0.2967
13037SOL    HW239946   3.788   1.231   0.857 -1.3221  0.6669  1.0912
13038SOL     OW39947   5.483   3.259   4.832  0.4455  0.2775 -0.3272
13038SOL    HW139948   5.555   3.322   4.833 -1.0134  2.0395 -0.9907
13038SOL    HW239949   5.417   3.298   4.776 -0.2235 -2.2757 -1.4782
13039SOL     OW39950   3.276   5.708   2.017 -0.9387  0.7552  0.1255
13039SOL    HW139951   3.180   5.708   2.022 -0.9675  1.8586 -0.1625
13039SOL    HW239952   3.295   5.694   1.924 -0.7635 -1.3992  0.4455
13040SOL     OW39953   5.033   3.993   6.773 -0.0133 -0.0701 -0.4075
13040SOL    HW139954   4.959   3.947   6.734  0.1418 -0.0668 -0.7084
13040SOL    HW239955   5.087   3.924   6.811 -0.3110 -0.0511  0.0624
13041SOL     OW39956   5.422   2.082   6.757  0.5024  0.1855 -0.0200
13041SOL    HW139957   5.504   2.124   6.731  0.5212 -0.3995 -0.9565
13041SOL    HW239958   5.364   2.155   6.781  1.5093  0.5679  1.3787
13042SOL     OW39959   2.273   7.478   7.857 -0.2104 -0.0176  0.0846
13042SOL    HW139960   2.224   7.413   7.806 -3.9563 -0.0405  3.1848
13042SOL    HW239961   2.265   7.447   7.948  1.2978  2.7738  1.2873
13043SOL     OW39962   2.949   2.157   0.999  0.1846 -0.7243  0.5378
13043SOL    HW139963   2.998   2.210   1.062  2.9588 -2.6511  0.1718
13043SOL    HW239964   2.896   2.221   0.950  1.9601  1.4618  1.2963
13044SOL     OW39965   6.866   6.412   2.251  0.4118  0.1285 -0.5186
13044SOL    HW139966   6.812   6.479   2.293 -1.5468 -0.8117 -1.4400
13044SOL    HW239967   6.870   6.439   2.159 -1.3798 -1.5602 -1.1494
13045SOL     OW39968   1.679   2.876   5.482 -0.1249 -0.0483  0.2354
13045SOL    HW139969   1.652   2.840   5.567 -0.1841 -0.6476 -0.0256
13045SOL    HW239970   1.774   2.870   5.482 -0.1509 -0.6040  0.0377
13046SOL     OW39971   7.446   6.275   5.290  0.2963  0.0403  0.4376
13046SOL    HW139972   7.413   6.205   5.233  1.4660 -1.0662  1.0666
13046SOL    HW239973   7.374   6.292   5.350  0.0725 -0.8240  0.4356
13047SOL     OW39974   0.094   5.786   1.768 -0.2510 -0.0619 -0.3482
13047SOL    HW139975   0.038   5.831   1.832 -1.8695 -1.5532 -0.6420
13047SOL    HW239976   0.088   5.839   1.689 -1.0153 -0.0405 -0.2796
13048SOL     OW39977   2.501   1.162   6.966 -0.0727  0.3065  0.0025
13048SOL    HW139978   2.559   1.122   6.901 -0.4830  1.7734 -1.3209
13048SOL    HW239979   2.435   1.095   6.983  0.8952 -0.6633  0.0703
13049SOL     OW39980   2.009   7.724   6.310 -0.2060  0.4294 -0.1117
13049SOL    HW139981   2.032   7.721   6.402  1.6879  0.4302 -0.5611
13049SOL    HW239982   2.074   7.781   6.270 -0.0154 -0.8430 -1.7192
13050SOL     OW39983   1.524   0.125   4.271 -0.1087 -0.0497 -0.5092
13050SOL    HW139984   1.595   0.093   4.216  0.2188 -2.5812  1.2324
13050SOL    HW239985   1.567   0.155   4.351 -0.9051 -0.5890  0.1362
13051SOL     OW39986   3.082   3.533   2.937  0.2333 -0.2346  0.1541
13051SOL    HW139987   3.141   3.607   2.925 -0.7108  0.4832 -0.1374
13051SOL    HW239988   3.093   3.508   3.028  1.2118 -0.3198  0.0310
13052SOL     OW39989   7.451   1.944   2.460  0.1174  0.2837  0.5968
13052SOL    HW139990   7.364   1.917   2.491  0.2976 -2.4738 -1.0181
13052SOL    HW239991   7.433   2.016   2.399 -1.2389 -1.0972 -0.7350
13053SOL     OW39992   0.621   5.445   5.666 -0.0362  0.6103  0.2561
13053SOL    HW139993   0.549   5.427   5.605 -1.4678 -0.3282  2.1360
13053SOL    HW239994   0.697   5.404   5.625 -1.1693 -0.9320 -0.4228
13054SOL     OW39995   3.421   3.279   1.237  0.0882  0.1494  0.2925
13054SOL    HW139996   3.374   3.276   1.320 -1.7184 -0.9359 -0.7127
13054SOL    HW239997   3.471   3.197   1.234  2.9976  1.7226  1.7965
13055SOL     OW39998   5.335   7.893   5.867  0.2851  0.5453  0.4232
13055SOL    HW139999   5.298   7.890   5.780 -2.8047  0.5257  1.6210
13055SOL    HW240000   5.293   7.968   5.909  0.1633 -0.5917  2.4784
13056SOL     OW40001   6.983   3.495   3.967 -0.3507  0.4619  0.9824
13056SOL    HW140002   6.981   3.551   4.044 -0.4646 -0.0232  1.3391
13056SOL    HW240003   6.918   3.532   3.908 -0.9050  0.3077  1.4922
13057SOL     OW40004   6.799   0.524   7.621 -0.0588  0.0461 -0.3550
13057SOL    HW140005   6.820   0.599   7.676 -0.6431 -0.4645  0.5886
13057SOL    HW240006   6.788   0.561   7.533  0.4699  0.9324 -0.0516
13058SOL     OW40007   2.781   0.168   1.459  0.2095  0.0979 -0.1417
13058SOL    HW140008   2.819   0.222   1.390  0.2288  0.8156  0.4229
13058SOL    HW240009   2.756   0.230   1.528  1.8119 -0.7434  1.2722
13059SOL     OW40010   4.592   0.733   4.325 -0.1052 -0.4566 -0.0806
13059SOL    HW140011   4.584   0.736   4.230  0.5946  0.3896 -0.1315
13059SOL    HW240012   4.576   0.642   4.348  0.6803 -0.8691 -1.1045
13060SOL     OW40013   7.217   4.104   1.452  0.2268 -0.6082  0.3392
13060SOL    HW140014   7.213   4.046   1.529  1.5700  1.0065  1.7328
13060SOL    HW240015   7.260   4.183   1.485 -0.3743  0.6783 -1.7957
13061SOL     OW40016   2.476   7.270   4.320 -0.0116 -0.2282 -0.3332
13061SOL    HW140017   2.384   7.284   4.297 -0.0196  0.1056 -0.1156
13061SOL    HW240018   2.517   7.240   4.239 -0.3476 -0.5387 -0.3886
13062SOL     OW40019   0.780   6.389   1.975  0.4688  0.3901 -0.1226
13062SOL    HW140020   0.735   6.344   2.046  0.7673  0.9134  0.4006
13062SOL    HW240021   0.866   6.346   1.970  0.5736  0.5797  0.0559
13063SOL     OW40022   1.067   4.987   2.505  0.3333  0.1965  0.1276
13063SOL    HW140023   1.086   5.047   2.577  0.8172  1.7980 -1.2706
13063SOL    HW240024   0.986   5.020   2.466 -0.8168 -1.5898  0.8360
13064SOL     OW40025   0.413   7.299   6.933  0.4558  0.1718 -0.2651
13064SOL    HW140026   0.418   7.394   6.947 -0.1261  0.1278  0.2877
13064SOL    HW240027   0.499   7.267   6.961 -0.0421  0.3100  1.5006
13065SOL     OW40028   6.362   7.632   5.874  0.6062 -0.0512  0.1167
13065SOL    HW140029   6.398   7.631   5.785  1.1964  0.1819  0.3504
13065SOL    HW240030   6.383   7.720   5.907  1.2635 -0.4707  0.8365
13066SOL     OW40031   3.766   4.258   3.590 -0.2252 -0.4140 -0.0524
13066SOL    HW140032   3.772   4.351   3.612 -0.4358 -0.4629  0.2153
13066SOL    HW240033   3.800   4.213   3.668 -1.3987 -0.6060  0.3695
13067SOL     OW40034   3.946   3.919   2.904 -0.3497  0.3618  0.3782
13067SOL    HW140035   3.889   3.988   2.869  0.0987  1.1033  1.0867
13067SOL    HW240036   3.887   3.862   2.953 -0.6029  0.6919  0.4613
13068SOL     OW40037   3.919   3.748   0.528  0.0265 -0.4950 -0.1516
13068SOL    HW140038   3.905   3.818   0.464  0.9963  0.5648  0.7469
13068SOL    HW240039   3.905   3.667   0.479 -0.7550  0.3188 -1.3075
13069SOL     OW40040   0.768   2.639   4.100 -0.1232 -0.1134  0.5490
13069SOL    HW140041   0.742   2.730   4.109 -2.6170 -0.6334 -0.6285
13069SOL    HW240042   0.853   2.642   4.055 -0.0995  1.5976  0.6556
13070SOL     OW40043   2.795   6.335   2.594  0.4297 -0.1142 -0.2373
13070SOL    HW140044   2.850   6.410   2.568 -0.3192  1.7202  2.9346
13070SOL    HW240045   2.727   6.331   2.527  0.7700  1.7824 -0.7603
13071SOL     OW40046   1.887   2.977   6.492 -0.4973 -0.3618  0.4839
13071SOL    HW140047   1.909   3.002   6.403 -0.1973  0.6122  0.8234
13071SOL    HW240048   1.812   2.918   6.483 -0.5044 -0.2225 -0.3969
13072SOL     OW40049   5.717   6.656   6.204 -0.2006 -0.2334  0.0808
13072SOL    HW140050   5.686   6.720   6.140 -1.5375 -0.2435  0.6949
13072SOL    HW240051   5.810   6.676   6.215 -0.0337  0.0078 -1.5681
13073SOL     OW40052   2.498   1.036   0.860  0.3478 -0.5072 -0.5155
13073SOL    HW140053   2.425   0.980   0.833 -0.0753 -0.9324  1.3618
13073SOL    HW240054   2.560   0.975   0.902  0.3732  0.2574  0.5981
13074SOL     OW40055   0.712   3.212   2.501 -0.1345 -0.2789  0.4011
13074SOL    HW140056   0.694   3.241   2.412 -0.0874 -1.1274  0.1076
13074SOL    HW240057   0.752   3.288   2.544  1.8783 -0.5170 -0.9265
13075SOL     OW40058   4.224   4.287   5.269 -0.3062 -0.5832 -0.6769
13075SOL    HW140059   4.148   4.263   5.323  0.9486  1.1489  2.1162
13075SOL    HW240060   4.299   4.255   5.318  0.9166  0.9897 -1.4184
13076SOL     OW40061   6.763   1.965   0.709  0.5232  0.3004 -0.4326
13076SOL    HW140062   6.748   2.060   0.706 -0.7605  0.2201  1.5113
13076SOL    HW240063   6.806   1.950   0.794 -2.2669 -1.1182  0.8703
13077SOL     OW40064   5.976   3.783   5.758  0.8855 -0.1509 -0.2206
13077SOL    HW140065   5.898   3.757   5.709  1.1178  0.4891 -0.9404
13077SOL    HW240066   5.977   3.725   5.835 -0.7224  0.3418  0.2024
13078SOL     OW40067   2.603   1.829   4.416  0.2976  0.4679 -0.5385
13078SOL    HW140068   2.652   1.908   4.437  1.2107 -0.3557  0.5518
13078SOL    HW240069   2.519   1.841   4.460  0.8639  0.3534  0.6323
13079SOL     OW40070   4.754   4.814   1.898  0.8871 -0.5183  0.6882
13079SOL    HW140071   4.662   4.838   1.901 -0.0316 -3.5875  0.2273
13079SOL    HW240072   4.754   4.720   1.883  4.1249 -0.5280  0.0043
13080SOL     OW40073   4.219   6.377   7.427  1.0561  0.7521 -0.3050
13080SOL    HW140074   4.292   6.404   7.482  1.4587 -1.1919  0.1959
13080SOL    HW240075   4.230   6.427   7.346  4.2848 -1.0067 -1.1360
13081SOL     OW40076   3.923   4.883   5.933  0.0876 -0.4591 -0.0190
13081SOL    HW140077   3.942   4.921   6.018  1.2563  1.3580 -1.0312
13081SOL    HW240078   3.996   4.910   5.877 -0.2664 -2.1990 -1.4465
13082SOL     OW40079   5.064   1.816   2.366 -0.5108  0.3676  0.0901
13082SOL    HW140080   5.093   1.730   2.335 -2.5505  0.3891 -2.1613
13082SOL    HW240081   5.123   1.836   2.439 -0.5184 -3.3111  1.3312
13083SOL     OW40082   4.553   1.449   7.401 -0.5513  0.0994 -0.1828
13083SOL    HW140083   4.497   1.472   7.476 -1.5487  1.5557 -1.3011
13083SOL    HW240084   4.601   1.530   7.382 -0.6845 -0.1026 -1.4085
13084SOL     OW40085   3.561   6.825   2.330  0.3582 -0.6681 -0.4749
13084SOL    HW140086   3.556   6.862   2.418  1.3556 -0.8737 -0.3117
13084SOL    HW240087   3.528   6.736   2.340  0.7471 -0.7918 -0.2314
13085SOL     OW40088   1.987   3.654   1.346 -0.6554 -0.0870  0.1686
13085SOL    HW140089   1.927   3.725   1.370  0.5006  0.7236  0.7823
13085SOL    HW240090   1.967   3.584   1.408  0.0512  0.7582  1.4021
13086SOL     OW40091   4.059   6.763   6.176  0.5192  0.0445 -0.1845
13086SOL    HW140092   4.134   6.802   6.132 -0.8086  0.6797 -2.0465
13086SOL    HW240093   4.039   6.684   6.126  0.6828 -0.8238  1.0655
13087SOL     OW40094   1.090   6.198   6.736 -0.1684  0.2405  1.0289
13087SOL    HW140095   1.008   6.162   6.704 -0.2189  0.9757  0.2905
13087SOL    HW240096   1.064   6.258   6.807 -0.2506  0.2653  0.9778
13088SOL     OW40097   4.998   4.144   7.694  0.0413 -0.2592 -0.2790
13088SOL    HW140098   5.045   4.074   7.738  0.3957  0.3853  0.3719
13088SOL    HW240099   4.975   4.107   7.609  0.5034 -1.0547 -0.0662
13089SOL     OW40100   7.467   7.496   7.156  0.0049  0.0837  0.6822
13089SOL    HW140101   7.490   7.408   7.185 -0.6416  0.6545  3.1586
13089SOL    HW240102   7.511   7.554   7.219  0.0326  1.5361 -0.6086
13090SOL     OW40103   7.072   2.002   4.955 -0.3810  0.1645  0.6385
13090SOL    HW140104   7.093   2.040   4.869 -1.3279  1.8077  1.0898
13090SOL    HW240105   7.028   1.920   4.934 -1.9662  1.2394 -0.5554
13091SOL     OW40106   2.093   6.232   4.303  0.0314 -0.1286  0.3937
13091SOL    HW140107   2.103   6.175   4.227 -0.4218  0.5651 -0.1998
13091SOL    HW240108   2.072   6.318   4.266  0.2653  0.3230  1.2863
13092SOL     OW40109   3.961   5.607   1.976  0.5525 -0.8381 -0.0677
13092SOL    HW140110   3.866   5.595   1.968 -0.1200  1.2263  3.0238
13092SOL    HW240111   3.982   5.675   1.912  0.0414 -1.5169 -0.9823
13093SOL     OW40112   3.029   4.745   6.573  0.1088 -0.3525  0.0938
13093SOL    HW140113   2.979   4.824   6.552 -0.6596 -0.5757  1.0020
13093SOL    HW240114   3.095   4.739   6.504  0.6850  1.5107  0.4276
13094SOL     OW40115   1.266   1.898   7.897  0.5011  0.4463  0.3205
13094SOL    HW140116   1.199   1.932   7.837  1.0868 -0.4407 -0.8869
13094SOL    HW240117   1.216   1.849   7.963 -0.1750  1.6675  0.7377
13095SOL     OW40118   2.035   6.104   4.864  0.0373 -0.2002  0.6147
13095SOL    HW140119   2.056   6.106   4.771 -0.4977 -0.2889  0.4844
13095SOL    HW240120   1.940   6.116   4.866  0.3240  2.9521  1.2726
13096SOL     OW40121   7.414   5.847   5.402  0.3359  0.2401  0.4578
13096SOL    HW140122   7.375   5.761   5.418  1.6878 -0.3384  0.7872
13096SOL    HW240123   7.464   5.836   5.321  1.1367  0.4844  0.9133
13097SOL     OW40124   2.582   6.890   2.981  0.2816 -0.8539  0.4767
13097SOL    HW140125   2.571   6.839   3.061  0.7743  0.3723  1.3595
13097SOL    HW240126   2.666   6.861   2.945  1.2582  0.2625  1.7321
13098SOL     OW40127   2.894   5.441   2.269 -0.0531  0.3953 -0.3553
13098SOL    HW140128   2.904   5.390   2.188  0.2822 -1.1716  0.6300
13098SOL    HW240129   2.942   5.522   2.253 -1.8012  1.0982 -2.5085
13099SOL     OW40130   5.564   6.948   1.411 -0.3781 -0.4643 -0.1071
13099SOL    HW140131   5.475   6.954   1.448  0.7601  0.3157  2.8069
13099SOL    HW240132   5.590   6.858   1.427 -0.0645 -0.2549  0.6090
13100SOL     OW40133   0.505   5.878   7.294  0.3312  0.5217  0.3084
13100SOL    HW140134   0.452   5.864   7.215 -0.8940 -1.8749  1.4458
13100SOL    HW240135   0.590   5.839   7.273 -0.3994 -1.2649  0.5688
13101SOL     OW40136   7.896   6.664   2.932 -0.1085 -0.2398 -0.1082
13101SOL    HW140137   7.968   6.727   2.922 -2.0565  2.2378  0.4209
13101SOL    HW240138   7.873   6.639   2.843  0.4132  0.1668 -0.3574
13102SOL     OW40139   2.193   2.139   4.370 -0.0428 -0.3023 -0.0144
13102SOL    HW140140   2.102   2.109   4.363 -0.1573 -0.2245  1.0879
13102SOL    HW240141   2.213   2.173   4.283 -1.7912  1.6828  0.2854
13103SOL     OW40142   5.692   1.090   1.102  0.2468 -0.2775  0.0863
13103SOL    HW140143   5.626   1.147   1.062  2.2991  2.1680 -0.1040
13103SOL    HW240144   5.667   1.085   1.194 -1.0250 -0.6741 -0.2643
13104SOL     OW40145   4.872   6.939   6.821  0.5752 -0.0853  0.7533
13104SOL    HW140146   4.843   6.850   6.801  0.4162 -0.0289  0.7305
13104SOL    HW240147   4.864   6.986   6.738 -3.7091  1.1611  1.5888
13105SOL     OW40148   5.045   2.828   7.406  0.0665 -0.2587 -0.4121
13105SOL    HW140149   5.123   2.773   7.414  0.7725  0.7750 -0.0424
13105SOL    HW240150   5.042   2.852   7.313 -0.3733 -1.0767 -0.6230
13106SOL     OW40151   6.508   7.278   1.837  0.7971  0.7620 -0.9777
13106SOL    HW140152   6.580   7.319   1.886  1.8388 -0.2838 -1.5937
13106SOL    HW240153   6.550   7.241   1.760 -0.4811  0.4521 -1.5363
13107SOL     OW40154   3.444   2.082   6.892  0.5940 -0.2653 -0.3655
13107SOL    HW140155   3.444   2.025   6.968  1.1954 -1.4575 -1.2288
13107SOL    HW240156   3.481   2.029   6.821  0.8154  1.0659 -1.3006
13108SOL     OW40157   3.589   6.784   1.203 -0.0653 -0.2927 -0.0577
13108SOL    HW140158   3.681   6.798   1.179 -0.2076  1.2934  0.2317
13108SOL    HW240159   3.539   6.832   1.137 -0.6499 -0.2936  0.3820
13109SOL     OW40160   5.150   5.598   7.740  0.3016  0.7433 -0.3783
13109SOL    HW140161   5.217   5.646   7.691 -0.6446  2.6332  0.0654
13109SOL    HW240162   5.085   5.665   7.763  0.2063 -0.2491  2.6055
13110SOL     OW40163   3.599   0.490   0.124 -0.0655  0.3421  0.2748
13110SOL    HW140164   3.683   0.462   0.088 -0.0316  0.4586  0.2624
13110SOL    HW240165   3.558   0.539   0.052  0.1075  0.7871  0.4781
13111SOL     OW40166   5.961   0.022   4.459 -0.8029 -0.2735  0.0035
13111SOL    HW140167   5.966  -0.040   4.532  2.2749 -0.7929 -0.4834
13111SOL    HW240168   6.012  -0.019   4.389 -2.4154  0.8653 -1.9691
13112SOL     OW40169   0.417   1.903   1.874  0.6424 -0.1658  0.4560
13112SOL    HW140170   0.331   1.943   1.864  0.7496  0.1117  0.6227
13112SOL    HW240171   0.400   1.822   1.924  0.3316 -0.7115 -0.5045
13113SOL     OW40172   1.609   3.619   3.672  0.2044 -0.6519  0.2141
13113SOL    HW140173   1.578   3.708   3.655  0.5161 -0.7193 -0.7340
13113SOL    HW240174   1.539   3.562   3.639  0.2052 -0.7676  0.4093
13114SOL     OW40175   5.765   2.856   2.923 -0.3284  0.4957  0.0026
13114SOL    HW140176   5.704   2.904   2.868 -1.5444 -2.4889 -1.4901
13114SOL    HW240177   5.847   2.904   2.917 -1.5360  2.5622 -0.9764
13115SOL     OW40178   2.145   7.936   6.509  0.5728  0.0172  0.2088
13115SOL    HW140179   2.155   8.031   6.516  1.3027  0.0344 -0.8144
13115SOL    HW240180   2.232   7.904   6.486 -0.0053 -0.7198 -1.0953
13116SOL     OW40181   6.315   4.823   1.622  0.8805 -0.1815 -0.0663
13116SOL    HW140182   6.339   4.880   1.549  0.3748 -1.3049 -1.1557
13116SOL    HW240183   6.361   4.859   1.697  0.3460  1.8153 -0.6417
13117SOL     OW40184   5.132   4.439   7.482 -0.2549 -0.1942 -0.3634
13117SOL    HW140185   5.170   4.437   7.570 -0.1901  1.4273 -0.3197
13117SOL    HW240186   5.065   4.371   7.483 -0.2181 -0.2417  0.9370
13118SOL     OW40187   1.470   6.311   2.525 -0.4075 -0.2542 -0.0200
13118SOL    HW140188   1.407   6.241   2.507 -0.3477  0.5540 -4.5345
13118SOL    HW240189   1.422   6.392   2.510  1.0365  0.4491 -1.1375
13119SOL     OW40190   4.980   2.165   4.191 -0.3026  0.2926  0.0106
13119SOL    HW140191   4.903   2.188   4.243 -0.6678 -0.6662 -0.0797
13119SOL    HW240192   4.961   2.076   4.159  0.4601  0.3853 -0.7297
13120SOL     OW40193   6.548   0.881   7.897  0.4839  0.0872  0.1120
13120SOL    HW140194   6.494   0.850   7.969 -0.4992 -0.0646 -0.6760
13120SOL    HW240195   6.554   0.976   7.911 -0.5663  0.2027 -0.1760
13121SOL     OW40196   4.736   2.533   0.588  0.2741  0.0885 -0.5334
13121SOL    HW140197   4.760   2.505   0.500  2.9020 -1.0861  0.4623
13121SOL    HW240198   4.674   2.467   0.618  0.4826 -0.3161 -0.9839
13122SOL     OW40199   1.810   7.158   1.419 -0.2545 -0.0257  0.4291
13122SOL    HW140200   1.900   7.148   1.452 -0.4051 -1.5783  0.4132
13122SOL    HW240201   1.817   7.144   1.325 -0.1659  2.2883  0.0307
13123SOL     OW40202   3.164   4.230   5.533 -0.3019  1.0524  0.4207
13123SOL    HW140203   3.182   4.171   5.459  0.4634  0.5604  0.9784
13123SOL    HW240204   3.208   4.311   5.510  1.7870  0.2248  1.2480
13124SOL     OW40205   1.264   4.751   4.256  0.0204  0.0626  0.2071
13124SOL    HW140206   1.284   4.682   4.193 -0.2740  0.8413 -0.7681
13124SOL    HW240207   1.174   4.735   4.282 -0.3326  0.5492 -0.6660
13125SOL     OW40208   3.834   0.881   6.944  0.0692 -0.6364  0.4392
13125SOL    HW140209   3.786   0.803   6.916 -0.6091  0.6291 -2.2595
13125SOL    HW240210   3.925   0.863   6.921 -0.2823 -0.1752 -1.5640
13126SOL     OW40211   5.241   0.093   1.833 -0.0389 -0.5683  0.0482
13126SOL    HW140212   5.152   0.126   1.841 -0.5887 -1.4306 -1.7501
13126SOL    HW240213   5.296   0.171   1.826 -1.0072  0.0177 -1.5606
13127SOL     OW40214   7.193   5.222   0.923  0.0366  0.1902 -0.4803
13127SOL    HW140215   7.174   5.306   0.881 -0.4649  0.8206  0.9562
13127SOL    HW240216   7.139   5.221   1.001  1.2155 -0.7876  0.3648
13128SOL     OW40217   5.409   5.077   1.502  0.4987  0.2318  0.2884
13128SOL    HW140218   5.376   5.166   1.491  0.0753 -0.0161 -0.5145
13128SOL    HW240219   5.352   5.038   1.569 -0.6982 -0.1079 -0.8953
13129SOL     OW40220   4.365   5.185   6.256 -0.3278 -0.2524 -0.6299
13129SOL    HW140221   4.374   5.227   6.170  1.2583  1.1569  0.1505
13129SOL    HW240222   4.347   5.257   6.316  1.0889 -0.8462  0.5679
13130SOL     OW40223   3.449   7.302   1.798 -0.4181  0.0585  0.4409
13130SOL    HW140224   3.436   7.243   1.724  1.0444  1.1148 -0.7238
13130SOL    HW240225   3.402   7.260   1.870 -0.9043 -1.6084 -0.7702
13131SOL     OW40226   2.000   2.672   7.191  0.2212 -0.2504 -0.3813
13131SOL    HW140227   1.974   2.609   7.258 -0.7893 -1.0420 -1.4628
13131SOL    HW240228   2.095   2.664   7.185  0.5216  0.8656  1.9089
13132SOL     OW40229   4.405   4.608   6.436  0.3712 -0.3167 -0.2389
13132SOL    HW140230   4.315   4.576   6.429 -0.3737  1.6391 -0.2161
13132SOL    HW240231   4.417   4.663   6.358  1.2292  0.1583  0.2164
13133SOL     OW40232   3.495   3.462   7.861 -0.4053  1.0115 -0.0743
13133SOL    HW140233   3.427   3.468   7.794 -0.2805 -1.0903 -0.4818
13133SOL    HW240234   3.447   3.446   7.942 -0.4643  0.2776 -0.2402
13134SOL     OW40235   3.337   7.815   2.791 -0.0894 -0.2795  0.3288
13134SOL    HW140236   3.396   7.824   2.865 -1.1253 -1.1886  1.3128
13134SOL    HW240237   3.343   7.898   2.745  1.2828 -0.0414  0.8871
13135SOL     OW40238   6.027   4.700   0.828 -0.0852 -0.0924  0.5398
13135SOL    HW140239   6.061   4.713   0.739  0.0555  0.6619  0.7010
13135SOL    HW240240   5.971   4.623   0.820 -0.2251  0.0760 -0.2512
13136SOL     OW40241   6.847   5.492   3.652 -0.2623 -0.1683  0.1929
13136SOL    HW140242   6.794   5.425   3.609  0.1573 -0.7634  0.5971
13136SOL    HW240243   6.936   5.476   3.621 -0.0551 -0.2110  0.7921
13137SOL     OW40244   2.008   5.078   2.177 -0.0685 -0.2736 -0.1555
13137SOL    HW140245   1.941   5.141   2.204 -0.0554 -1.1456  2.1490
13137SOL    HW240246   2.013   5.016   2.249  2.6718 -0.7141 -0.6117
13138SOL     OW40247   5.150   4.122   1.197 -0.0540 -0.2802 -0.0724
13138SOL    HW140248   5.224   4.148   1.142 -2.0580  1.9687 -1.8949
13138SOL    HW240249   5.108   4.204   1.221 -0.3440 -1.2904  3.4489
13139SOL     OW40250   4.199   0.538   2.848 -0.5781  0.2771  0.1336
13139SOL    HW140251   4.151   0.613   2.814 -1.1448 -0.2233 -0.2042
13139SOL    HW240252   4.288   0.550   2.816 -0.9482  0.1538 -1.0275
13140SOL     OW40253   5.605   2.462   3.510 -0.0885 -0.4450  0.0200
13140SOL    HW140254   5.591   2.541   3.458  2.6761 -0.4842 -0.9198
13140SOL    HW240255   5.594   2.490   3.601  1.1678  1.1108 -0.2827
13141SOL     OW40256   5.728   4.782   5.134  0.0241  0.2693  0.8028
13141SOL    HW140257   5.760   4.834   5.060 -2.0870  1.5811  0.7339
13141SOL    HW240258   5.755   4.832   5.211 -0.0083  0.2609  0.8195
13142SOL     OW40259   2.343   0.586   3.894 -0.0934 -0.1742  0.1854
13142SOL    HW140260   2.309   0.676   3.894 -0.0194 -0.1211 -1.2194
13142SOL    HW240261   2.281   0.537   3.948 -1.4701  0.2755 -0.9087
13143SOL     OW40262   1.508   0.907   3.771  0.2130 -0.0064 -0.4025
13143SOL    HW140263   1.535   0.833   3.826  0.4436 -1.3288 -2.1910
13143SOL    HW240264   1.448   0.957   3.826  0.1336 -1.4637  0.9141
13144SOL     OW40265   2.346   5.755   1.537  0.2967 -0.7413 -0.6441
13144SOL    HW140266   2.295   5.752   1.455  2.3918 -2.8478 -1.9889
13144SOL    HW240267   2.411   5.824   1.521 -0.4870  0.2121  0.0962
13145SOL     OW40268   1.987   0.558   0.616  0.4607  0.3801  0.1483
13145SOL    HW140269   1.938   0.491   0.568  0.9982  0.3017 -0.3071
13145SOL    HW240270   2.061   0.579   0.558  0.4901  1.1095  0.4466
13146SOL     OW40271   4.667   4.707   2.187  0.0307  0.5258 -0.5001
13146SOL    HW140272   4.736   4.745   2.132 -0.1760  1.0497 -0.4012
13146SOL    HW240273   4.706   4.698   2.273  0.4382 -0.5313 -0.7746
13147SOL     OW40274   6.538   3.393   1.369 -0.0187 -0.4408 -0.1057
13147SOL    HW140275   6.515   3.421   1.281  1.0066 -0.9342 -0.5368
13147SOL    HW240276   6.535   3.474   1.421 -2.8034 -0.4659 -0.0810
13148SOL     OW40277   1.876   1.319   1.405  0.9457  0.0144 -0.1485
13148SOL    HW140278   1.855   1.270   1.484 -2.1909  0.7574 -0.4056
13148SOL    HW240279   1.841   1.267   1.334  0.5910  1.0019 -0.7183
13149SOL     OW40280   5.545   6.324   1.659 -0.4840  0.2427  0.0033
13149SOL    HW140281   5.598   6.285   1.590 -1.4061 -0.1180 -0.5138
13149SOL    HW240282   5.457   6.288   1.646 -0.8004  0.6089  1.0166
13150SOL     OW40283   3.720   0.212   2.453  0.3950  0.1262 -0.1124
13150SOL    HW140284   3.672   0.269   2.393  0.2073  0.3198  0.2249
13150SOL    HW240285   3.735   0.265   2.531 -1.6310 -0.9456  1.0719
13151SOL     OW40286   0.182   7.574   7.842  0.6257 -0.6642 -0.6299
13151SOL    HW140287   0.228   7.607   7.919  0.4341  1.3443 -1.3203
13151SOL    HW240288   0.146   7.490   7.870  0.6814 -0.0551  1.4302
13152SOL     OW40289   7.771   7.252   7.415 -0.0074 -0.2705 -0.3166
13152SOL    HW140290   7.701   7.275   7.476  0.5503 -2.2659  1.1825
13152SOL    HW240291   7.731   7.187   7.357  0.2642 -0.5563 -0.1880
13153SOL     OW40292   0.575   6.970   4.093 -0.0368 -0.2445  0.2122
13153SOL    HW140293   0.537   7.054   4.067  3.0967  0.9603 -1.0537
13153SOL    HW240294   0.637   6.950   4.023  0.9091 -2.5024  1.6009
13154SOL     OW40295   4.993   7.531   3.333 -0.0038 -0.2367 -0.1076
13154SOL    HW140296   4.973   7.536   3.427  1.1613 -0.8875  0.1956
13154SOL    HW240297   5.039   7.613   3.314  1.1983 -0.7960  0.2802
13155SOL     OW40298   4.071   1.428   6.911 -0.0116  0.2222 -0.4072
13155SOL    HW140299   4.097   1.337   6.895  0.5159  0.1931  0.5581
13155SOL    HW240300   4.143   1.464   6.963 -1.4148  0.4618  1.4457
13156SOL     OW40301   0.893   1.124   4.638  0.1706 -0.2166 -0.0306
13156SOL    HW140302   0.984   1.123   4.666 -0.1407  0.1319  1.0443
13156SOL    HW240303   0.843   1.139   4.718 -0.7725  0.6328 -0.7489
13157SOL     OW40304   1.015   5.136   6.917  0.4795  0.0149  0.2751
13157SOL    HW140305   1.016   5.230   6.934 -0.1084  0.1080 -0.1370
13157SOL    HW240306   1.107   5.111   6.908  0.6080  0.6928 -0.3522
13158SOL     OW40307   1.153   2.487   2.695  0.3485 -0.5291  0.3498
13158SOL    HW140308   1.127   2.474   2.786 -1.8130 -0.6126 -0.2269
13158SOL    HW240309   1.071   2.485   2.646  1.5593 -1.9464 -1.7894
13159SOL     OW40310   3.768   0.494   2.341 -0.6576 -0.0765 -0.4210
13159SOL    HW140311   3.761   0.497   2.245 -1.8861  1.8260 -0.3160
13159SOL    HW240312   3.800   0.581   2.365 -2.5346  0.2732  1.0121
13160SOL     OW40313   3.662   6.724   1.483 -0.5520 -0.2723 -0.3622
13160SOL    HW140314   3.693   6.636   1.465 -0.9765 -0.1543 -1.8397
13160SOL    HW240315   3.629   6.756   1.398  0.3701  1.6174 -0.0732
13161SOL     OW40316   5.727   5.147   7.451 -0.4622 -0.2012  0.6283
13161SOL    HW140317   5.664   5.081   7.479 -1.1992 -0.6451 -1.8194
13161SOL    HW240318   5.701   5.169   7.362  1.1203  1.7779  0.5677
13162SOL     OW40319   6.125   2.727   0.910 -0.9603  0.0722 -0.0221
13162SOL    HW140320   6.219   2.712   0.898 -0.7694  1.3619 -0.3463
13162SOL    HW240321   6.090   2.643   0.937  0.0840 -0.7552 -1.1468
13163SOL     OW40322   1.702   1.355   1.140 -0.1919  0.0677  0.0465
13163SOL    HW140323   1.646   1.315   1.072 -0.8733 -0.8164  1.0927
13163SOL    HW240324   1.643   1.414   1.187 -0.5877 -1.6765  1.8475
13164SOL     OW40325   1.881   1.997   4.191  0.0639 -0.0300  0.1499
13164SOL    HW140326   1.913   2.061   4.127 -0.4383 -0.0330 -0.1046
13164SOL    HW240327   1.817   1.944   4.143 -0.4475  0.0832  0.6969
13165SOL     OW40328   4.637   6.826   2.156 -0.8517 -0.6687 -0.7805
13165SOL    HW140329   4.681   6.908   2.181 -1.0477 -0.8621  0.2434
13165SOL    HW240330   4.708   6.764   2.143 -0.6950 -0.3327 -1.6475
13166SOL     OW40331   2.457   2.526   2.017  0.2488  0.1347 -0.7104
13166SOL    HW140332   2.377   2.491   2.057  0.9478 -1.4338 -0.6244
13166SOL    HW240333   2.504   2.449   1.985  1.1335  1.1358 -1.8983
13167SOL     OW40334   0.955   7.067   2.531  0.7124 -0.1354 -0.3246
13167SOL    HW140335   0.916   7.011   2.598 -0.6704 -0.1728 -1.1267
13167SOL    HW240336   0.913   7.039   2.449  1.2232  0.9603 -0.9839
13168SOL     OW40337   0.654   0.194   1.254 -0.3095  0.4988 -0.0906
13168SOL    HW140338   0.579   0.197   1.194 -0.8210  0.1045  0.5162
13168SOL    HW240339   0.632   0.125   1.317  1.7513 -1.6417 -1.4881
13169SOL     OW40340   0.730   3.907   6.550 -0.0207 -0.4936  0.1906
13169SOL    HW140341   0.644   3.899   6.592  0.2902  0.7002  1.1214
13169SOL    HW240342   0.715   3.970   6.479  0.5342  1.6911  1.8806
13170SOL     OW40343   4.621   2.166   7.547 -0.1108 -0.1173  0.0218
13170SOL    HW140344   4.679   2.243   7.542  0.0545 -0.1084  1.6132
13170SOL    HW240345   4.535   2.200   7.523  0.3118  0.1151 -1.2478
13171SOL     OW40346   0.405   5.446   5.464 -0.1741 -0.5425  0.4340
13171SOL    HW140347   0.388   5.419   5.374 -3.8470  0.1628  0.7354
13171SOL    HW240348   0.327   5.498   5.488  1.4423  0.7386  3.4634
13172SOL     OW40349   2.138   4.227   1.763 -0.6856 -0.6114  0.4161
13172SOL    HW140350   2.210   4.254   1.820  1.3996 -2.2879 -1.2073
13172SOL    HW240351   2.175   4.155   1.711 -2.5451  0.4589 -2.6953
13173SOL     OW40352   2.731   3.411   4.453  0.1051  0.2608 -0.3233
13173SOL    HW140353   2.772   3.362   4.525  0.7046 -1.2270 -1.6161
13173SOL    HW240354   2.755   3.502   4.469  1.1886 -0.1790  0.7344
13174SOL     OW40355   7.118   3.269   3.973 -0.2093 -0.0702 -0.3967
13174SOL    HW140356   7.082   3.358   3.980 -0.4054 -0.1130 -0.7943
13174SOL    HW240357   7.128   3.240   4.063 -0.7633  0.1116 -0.2743
13175SOL     OW40358   0.138   5.957   6.571 -0.7368 -0.3948  0.0800
13175SOL    HW140359   0.136   5.894   6.500 -0.4746  0.8231 -1.0572
13175SOL    HW240360   0.231   5.967   6.592 -0.8764 -1.5572  1.3767
13176SOL     OW40361   6.246   2.586   3.090 -0.3012  0.2918  0.5578
13176SOL    HW140362   6.151   2.583   3.084 -0.4342 -0.1097  2.2256
13176SOL    HW240363   6.263   2.596   3.184  1.2969  0.6700  0.2541
13177SOL     OW40364   0.174   2.515   6.889 -0.0867  0.8528 -0.2493
13177SOL    HW140365   0.106   2.493   6.826  1.0253  1.1220 -1.5724
13177SOL    HW240366   0.183   2.610   6.883  3.0453  0.5578 -3.0222
13178SOL     OW40367   7.714   3.036   2.097  0.3802 -0.4004 -0.2162
13178SOL    HW140368   7.635   3.089   2.083 -0.0203 -0.6603  0.9624
13178SOL    HW240369   7.786   3.097   2.085  0.0435 -0.2711 -1.8356
13179SOL     OW40370   2.401   7.349   0.930  0.5681  0.4126 -0.4699
13179SOL    HW140371   2.362   7.362   0.843  1.7671 -1.6269 -1.3775
13179SOL    HW240372   2.326   7.331   0.987 -0.1698  1.0299 -1.2052
13180SOL     OW40373   7.315   6.574   0.071  0.0387 -0.2602 -0.0831
13180SOL    HW140374   7.400   6.617   0.056 -0.0799 -0.0669 -0.2038
13180SOL    HW240375   7.255   6.646   0.087 -0.1407 -0.3899 -0.1770
13181SOL     OW40376   5.893   4.102   7.396 -0.0880  0.0561  0.2719
13181SOL    HW140377   5.803   4.072   7.404 -0.4565 -0.1250 -3.1148
13181SOL    HW240378   5.945   4.021   7.396 -0.2184 -0.0353 -0.2717
13182SOL     OW40379   0.401   3.317   1.907 -0.0284 -0.4789 -0.2360
13182SOL    HW140380   0.460   3.271   1.846  0.3714  0.9352 -0.9579
13182SOL    HW240381   0.447   3.314   1.991  0.2408 -0.9194 -0.3925
13183SOL     OW40382   0.897   0.249   2.963  0.0379  0.5390 -0.5839
13183SOL    HW140383   0.977   0.280   2.921  0.4382  0.5521  0.1616
13183SOL    HW240384   0.914   0.158   2.983 -0.9481 -0.0799 -2.3173
13184SOL     OW40385   2.205   3.253   7.600  0.1348  0.4946 -0.5087
13184SOL    HW140386   2.121   3.236   7.642 -0.0244  1.6142 -0.3608
13184SOL    HW240387   2.268   3.203   7.651 -0.3091  0.3829 -0.0656
13185SOL     OW40388   3.291   6.519   3.002 -0.6679 -0.0716  0.3769
13185SOL    HW140389   3.291   6.438   3.052  1.1965  0.9335  2.1701
13185SOL    HW240390   3.209   6.563   3.026 -0.7772 -0.5566  0.8963
13186SOL     OW40391   0.342   4.498   1.945  0.0274  0.3455 -0.4785
13186SOL    HW140392   0.370   4.423   1.998  0.2376  1.2480  0.7129
13186SOL    HW240393   0.380   4.481   1.859  1.2600 -0.2196  0.1549
13187SOL     OW40394   6.971   0.451   2.514 -0.0752  0.5203 -0.2590
13187SOL    HW140395   7.042   0.419   2.569 -0.0386 -0.2430 -0.7517
13187SOL    HW240396   6.917   0.503   2.574 -0.7075 -1.2778  0.8249
13188SOL     OW40397   5.307   6.630   1.664 -0.2407  0.5686  0.2211
13188SOL    HW140398   5.248   6.571   1.617 -0.1954 -0.6629  1.6537
13188SOL    HW240399   5.267   6.716   1.656 -0.2066  0.4269 -2.0950
13189SOL     OW40400   6.190   0.678   2.716  0.0828 -0.4318 -0.5077
13189SOL    HW140401   6.231   0.619   2.779  0.1434 -1.0692 -1.1232
13189SOL    HW240402   6.098   0.652   2.714 -0.1271  0.2492  0.0438
13190SOL     OW40403   0.404   6.005   6.651 -0.3676 -0.1358 -0.1614
13190SOL    HW140404   0.371   6.083   6.606 -1.1599 -0.1611  0.3565
13190SOL    HW240405   0.499   6.014   6.648 -0.4510  0.9034 -0.0273
13191SOL     OW40406   7.080   0.973   6.543  0.4504  0.0941 -0.3051
13191SOL    HW140407   7.113   0.892   6.502  1.6048 -0.2023  1.1521
13191SOL    HW240408   7.155   1.032   6.543 -0.3146  1.0820 -1.0957
13192SOL     OW40409   5.451   6.033   2.695  0.2323  0.3160  0.4727
13192SOL    HW140410   5.544   6.026   2.718  0.4559  1.5520  0.0356
13192SOL    HW240411   5.451   6.068   2.606 -0.6538  0.6279  0.5843
13193SOL     OW40412   1.715   2.398   1.665 -0.1945  0.5172 -0.0877
13193SOL    HW140413   1.671   2.334   1.610  1.2834 -3.0444  2.4978
13193SOL    HW240414   1.679   2.483   1.638 -1.6046 -1.2228 -4.3692
13194SOL     OW40415   6.354   2.920   1.083  0.1243 -0.4531 -0.0786
13194SOL    HW140416   6.433   2.867   1.069 -0.8797 -1.8594 -0.6709
13194SOL    HW240417   6.305   2.912   1.001  0.3625  2.2073 -0.5432
13195SOL     OW40418   5.343   4.163   7.932 -0.1952 -0.6394  0.3008
13195SOL    HW140419   5.267   4.112   7.903  0.8327 -1.7459 -0.5702
13195SOL    HW240420   5.410   4.146   7.865  0.2729  1.7249  0.0708
13196SOL     OW40421   3.059   3.271   7.063  0.0915  1.0998  0.5855
13196SOL    HW140422   2.967   3.261   7.087 -0.0790  1.4303  0.0875
13196SOL    HW240423   3.067   3.229   6.977  0.8624 -0.7549  1.5238
13197SOL     OW40424   5.650   0.809   5.109 -0.2478  0.2420 -0.2799
13197SOL    HW140425   5.618   0.720   5.124 -3.5122  1.2997 -0.0495
13197SOL    HW240426   5.659   0.816   5.014  2.2109 -0.9077 -0.1991
13198SOL     OW40427   4.316   0.287   6.469 -0.1675 -0.0275 -0.0507
13198SOL    HW140428   4.230   0.317   6.439 -0.4005 -1.0406 -0.4292
13198SOL    HW240429   4.298   0.239   6.550  0.1311  0.3061  0.2201
13199SOL     OW40430   1.704   7.369   2.720 -0.7982 -0.5155 -0.7390
13199SOL    HW140431   1.797   7.378   2.741 -0.9929  1.3747 -0.5043
13199SOL    HW240432   1.670   7.310   2.787 -0.6052  2.2232  2.0017
13200SOL     OW40433   5.790   3.037   0.115  0.0335  0.1167  0.2798
13200SOL    HW140434   5.758   3.062   0.029 -3.1478  0.1143  1.3505
13200SOL    HW240435   5.756   3.104   0.174 -0.3212 -1.4249  1.9160
13201SOL     OW40436   1.920   0.695   7.154 -0.3624 -0.3039  0.3920
13201SOL    HW140437   1.895   0.772   7.103  0.9791 -0.8864 -1.2776
13201SOL    HW240438   1.840   0.644   7.162 -0.6781 -0.0484 -0.9433
13202SOL     OW40439   7.308   6.414   0.571 -0.3107  0.1631  0.1122
13202SOL    HW140440   7.218   6.419   0.538 -0.1110  1.9658 -0.2692
13202SOL    HW240441   7.358   6.471   0.514  0.8333  0.1936  1.1073
13203SOL     OW40442   4.576   1.948   0.717  0.6314  0.1012 -0.0194
13203SOL    HW140443   4.638   1.877   0.731  0.4224 -0.2153 -0.6975
13203SOL    HW240444   4.490   1.907   0.725  0.5008  0.4247  0.3170
13204SOL     OW40445   7.878   3.653   6.946 -0.0347  0.1153 -0.5107
13204SOL    HW140446   7.971   3.672   6.957 -0.1159  0.4738 -0.4450
13204SOL    HW240447   7.839   3.735   6.915 -0.7917  0.8243  2.0606
13205SOL     OW40448   4.103   7.096   5.998 -0.6825 -0.4499  0.2937
13205SOL    HW140449   4.182   7.042   5.998 -1.0782 -1.0536 -1.0518
13205SOL    HW240450   4.122   7.166   6.061  1.0183 -0.4398 -0.1835
13206SOL     OW40451   6.245   5.283   3.957  0.0444  0.5936  0.1263
13206SOL    HW140452   6.297   5.229   3.898  0.5831  0.7586  0.4406
13206SOL    HW240453   6.254   5.372   3.923  3.5280  1.3700  2.5226
13207SOL     OW40454   2.138   7.436   5.824  0.1746 -0.4457 -0.1000
13207SOL    HW140455   2.200   7.477   5.883 -0.3374 -0.7229  0.6442
13207SOL    HW240456   2.178   7.353   5.800  0.4676 -0.2492 -0.2882
13208SOL     OW40457   1.934   6.715   7.909 -0.2352  0.2417 -0.4759
13208SOL    HW140458   1.842   6.696   7.930 -0.3259  0.5577 -0.5918
13208SOL    HW240459   1.969   6.753   7.990  0.0038 -0.6016 -0.1711
13209SOL     OW40460   1.634   2.807   7.009 -0.1094  0.0783  0.1778
13209SOL    HW140461   1.699   2.739   7.026  0.4669  0.3649 -0.7815
13209SOL    HW240462   1.550   2.767   7.031  0.4483  0.0058  2.3327
13210SOL     OW40463   3.910   6.231   5.158 -0.0205 -0.4118 -0.0255
13210SOL    HW140464   4.004   6.237   5.141  0.0670  1.4425  0.8483
13210SOL    HW240465   3.900   6.258   5.250 -1.4352 -0.1380 -0.2264
13211SOL     OW40466   2.033   5.641   2.923 -0.0519  0.2976  0.0634
13211SOL    HW140467   1.972   5.634   2.996 -0.2583  3.6699  0.3637
13211SOL    HW240468   2.119   5.651   2.965  0.3144 -1.0865 -0.2954
13212SOL     OW40469   1.224   0.758   0.482  0.5119 -0.7113 -0.2843
13212SOL    HW140470   1.164   0.817   0.437  1.8440 -1.9849 -4.1310
13212SOL    HW240471   1.251   0.805   0.561 -1.3071  2.1484 -1.2424
13213SOL     OW40472   0.234   0.240   5.041  0.2213  0.5030  0.2334
13213SOL    HW140473   0.178   0.283   5.107  0.4939  2.3109 -0.6714
13213SOL    HW240474   0.313   0.294   5.038  0.4398  0.1261 -1.1800
13214SOL     OW40475   3.151   7.628   7.474 -0.1891 -0.1021  0.4451
13214SOL    HW140476   3.225   7.651   7.531  0.8305 -2.5191  0.2192
13214SOL    HW240477   3.104   7.711   7.461  1.5834  1.2111  1.8605
13215SOL     OW40478   5.505   7.546   4.917 -0.2111 -0.7041 -0.0131
13215SOL    HW140479   5.469   7.590   4.839  1.5314  1.3338  0.2469
13215SOL    HW240480   5.480   7.603   4.989  1.2183 -0.6622  0.4715
13216SOL     OW40481   4.042   3.479   1.835  0.0040  0.6036  0.6403
13216SOL    HW140482   4.062   3.573   1.844  0.9653  0.5031 -0.2936
13216SOL    HW240483   4.117   3.435   1.874  0.9654  0.2218 -1.5438
13217SOL     OW40484   5.539   4.728   0.693  0.1046  0.3777  0.2171
13217SOL    HW140485   5.561   4.639   0.666 -1.0891 -0.8366  2.9102
13217SOL    HW240486   5.462   4.751   0.642  0.4650 -0.0857 -0.5482
13218SOL     OW40487   4.727   6.174   3.495  0.1373  0.0045  0.1795
13218SOL    HW140488   4.643   6.131   3.482  0.0942 -0.3133  1.4010
13218SOL    HW240489   4.704   6.262   3.526  0.2484  0.0311  0.1865
13219SOL     OW40490   1.954   1.852   1.619  0.0511  0.5904 -0.5112
13219SOL    HW140491   1.886   1.785   1.617 -0.1950  0.8017  0.4371
13219SOL    HW240492   1.978   1.860   1.711  0.3496  1.5392 -0.6573
13220SOL     OW40493   2.484   2.257   5.264 -0.0254 -0.1463 -0.1992
13220SOL    HW140494   2.520   2.302   5.340 -1.0272  1.5645 -0.6681
13220SOL    HW240495   2.526   2.172   5.263 -0.1309 -0.2753  2.3592
13221SOL     OW40496   3.931   3.585   5.420 -0.6061 -0.1428 -0.1927
13221SOL    HW140497   3.893   3.649   5.480 -0.8684  0.5046 -1.0339
13221SOL    HW240498   3.886   3.600   5.337 -1.5813 -2.2742 -0.1077
13222SOL     OW40499   6.959   4.211   4.271  0.2137 -0.2798 -0.1615
13222SOL    HW140500   6.960   4.147   4.342 -0.7277  0.6123  0.7003
13222SOL    HW240501   7.019   4.280   4.300  0.4131 -0.2723 -0.5880
13223SOL     OW40502   7.480   4.207   2.500  0.6843  0.1829  0.1951
13223SOL    HW140503   7.499   4.273   2.566  2.6006 -0.6754  0.5627
13223SOL    HW240504   7.508   4.124   2.540  1.0809 -0.4751 -1.3659
13224SOL     OW40505   6.029   4.012   4.225  0.1066  0.0700  0.3613
13224SOL    HW140506   5.981   4.094   4.237  0.5668  0.1023  2.1988
13224SOL    HW240507   6.008   3.960   4.303 -0.0359 -1.5134 -0.6826
13225SOL     OW40508   7.878   1.555   0.028  0.1533 -0.0811 -0.5578
13225SOL    HW140509   7.879   1.540   0.122  2.1258  1.0780 -0.3622
13225SOL    HW240510   7.966   1.533  -0.002 -0.0659  0.7557 -1.9339
13226SOL     OW40511   2.026   0.294   5.389 -0.2924  0.1470  0.3220
13226SOL    HW140512   2.019   0.334   5.475  0.5500  1.1523 -0.0557
13226SOL    HW240513   2.056   0.365   5.332 -4.0039  0.4636 -1.5335
13227SOL     OW40514   4.094   1.906   4.311 -0.0005  0.2031  0.8629
13227SOL    HW140515   4.028   1.901   4.243  0.7067  0.9087  0.1041
13227SOL    HW240516   4.061   1.973   4.371 -1.0577 -1.0447  1.7313
13228SOL     OW40517   7.830   3.282   1.001  0.0594 -0.0048  0.0271
13228SOL    HW140518   7.835   3.292   0.906 -0.0362 -4.2731 -0.6068
13228SOL    HW240519   7.913   3.240   1.025  0.7201  2.2633  2.1641
13229SOL     OW40520   7.193   2.124   6.649 -0.2407 -0.3074  0.1173
13229SOL    HW140521   7.252   2.051   6.632  0.3717  0.2252 -0.0654
13229SOL    HW240522   7.235   2.174   6.719 -2.6500 -2.3786  3.3001
13230SOL     OW40523   2.575   4.816   2.832 -0.0431 -0.5623  0.1403
13230SOL    HW140524   2.570   4.795   2.739  0.7235  0.1263 -0.0685
13230SOL    HW240525   2.569   4.911   2.835  2.4158 -0.3768  0.5816
13231SOL     OW40526   3.369   5.990   6.552  0.6426 -0.6059 -0.2195
13231SOL    HW140527   3.354   6.082   6.572  2.4322 -0.6494  1.6755
13231SOL    HW240528   3.462   5.985   6.530  0.3619 -1.8352 -1.2605
13232SOL     OW40529   3.805   1.801   6.612  0.2521  0.5700  0.8991
13232SOL    HW140530   3.876   1.849   6.567  1.0255 -1.3307 -0.0257
13232SOL    HW240531   3.851   1.735   6.664 -0.8314 -0.8644  0.0816
13233SOL     OW40532   4.442   3.702   5.450 -0.1651  0.6949  0.6536
13233SOL    HW140533   4.387   3.639   5.498 -2.0154  0.8185 -1.1440
13233SOL    HW240534   4.484   3.649   5.382 -0.8119  1.1694 -0.1330
13234SOL     OW40535   1.532   0.327   0.119 -0.1532  0.4139  0.0142
13234SOL    HW140536   1.612   0.317   0.067 -0.4763 -1.0068 -0.2487
13234SOL    HW240537   1.554   0.395   0.183  0.8419  0.9387 -0.8485
13235SOL     OW40538   3.471   7.065   6.392 -0.0860 -0.0284 -0.1333
13235SOL    HW140539   3.547   7.039   6.340 -0.8872  0.5471 -1.6702
13235SOL    HW240540   3.449   6.988   6.443 -1.8837 -2.3417 -3.9097
13236SOL     OW40541   1.704   1.009   5.039 -0.2327 -0.2161  0.1905
13236SOL    HW140542   1.694   0.922   5.077 -3.3913  0.4960  1.2335
13236SOL    HW240543   1.666   1.002   4.951 -0.9786  0.1981  0.4690
13237SOL     OW40544   0.452   3.023   0.526 -0.3877  0.2140 -0.5685
13237SOL    HW140545   0.456   3.045   0.619 -0.4548  1.2962 -0.8094
13237SOL    HW240546   0.543   3.003   0.502 -0.2948  0.4240 -0.3892
13238SOL     OW40547   3.156   1.846   5.825  0.5883 -0.0556 -0.0488
13238SOL    HW140548   3.211   1.925   5.822 -1.4484  1.4763  0.6612
13238SOL    HW240549   3.136   1.835   5.918 -0.2683 -0.5900 -0.2889
13239SOL     OW40550   1.412   7.784   2.570 -0.0391 -0.3388  0.2271
13239SOL    HW140551   1.339   7.743   2.617  0.4922 -0.8128  0.6481
13239SOL    HW240552   1.425   7.867   2.615  0.0755 -0.5246  0.5445
13240SOL     OW40553   7.034   2.442   0.816 -0.3233 -0.1743  0.5537
13240SOL    HW140554   7.003   2.364   0.862  0.0960 -1.7915 -1.7649
13240SOL    HW240555   7.047   2.414   0.726 -0.2531  2.6235 -0.4186
13241SOL     OW40556   6.301   0.434   4.145 -0.1135 -0.3310 -0.7869
13241SOL    HW140557   6.302   0.476   4.059  1.2433 -0.5989 -0.9252
13241SOL    HW240558   6.376   0.471   4.191 -1.3944  0.5830  0.6974
13242SOL     OW40559   5.094   0.673   6.948  0.4033  0.3486 -0.8234
13242SOL    HW140560   5.150   0.621   7.007 -0.3421  0.8450  0.3644
13242SOL    HW240561   5.046   0.731   7.007  0.6792  1.8904 -2.0659
13243SOL     OW40562   2.406   1.282   6.217  0.0998 -0.2245 -0.0058
13243SOL    HW140563   2.485   1.304   6.168 -0.3234  1.4596  0.0160
13243SOL    HW240564   2.335   1.325   6.168 -0.6503 -0.6700  0.6657
13244SOL     OW40565   1.138   4.750   0.187 -0.1127 -0.1380 -0.0947
13244SOL    HW140566   1.160   4.659   0.210 -1.0390 -0.0667  1.1985
13244SOL    HW240567   1.202   4.774   0.120 -0.4019 -2.0267 -1.1129
13245SOL     OW40568   2.712   5.540   4.066  0.1117  0.1388 -0.4906
13245SOL    HW140569   2.730   5.596   3.990  2.6891  1.7503  1.1496
13245SOL    HW240570   2.625   5.503   4.048 -1.0213  3.3172 -2.5023
13246SOL     OW40571   4.799   1.518   6.948 -0.4054 -0.2067  0.6504
13246SOL    HW140572   4.851   1.597   6.965 -0.1158 -0.4387  0.8536
13246SOL    HW240573   4.819   1.495   6.857 -2.2266  1.2389 -0.1755
13247SOL     OW40574   0.208   7.520   0.821 -0.5268  0.0679 -0.2482
13247SOL    HW140575   0.152   7.524   0.743  1.1180 -0.7380 -1.5206
13247SOL    HW240576   0.243   7.609   0.830 -0.0689 -0.0349 -0.9449
13248SOL     OW40577   7.026   4.191   7.174 -0.1682 -0.4394 -0.0037
13248SOL    HW140578   6.983   4.218   7.255  1.1555 -0.2017  0.6478
13248SOL    HW240579   7.046   4.098   7.188 -0.7455 -0.6322 -0.4356
13249SOL     OW40580   1.908   4.302   4.533  0.1745 -0.2596 -0.3264
13249SOL    HW140581   1.951   4.233   4.584  0.2108  0.4512  0.6337
13249SOL    HW240582   1.977   4.338   4.478  0.4393 -0.1942  0.0445
13250SOL     OW40583   6.488   7.248   3.086 -0.1790  0.3004 -0.1387
13250SOL    HW140584   6.522   7.182   3.146  0.4006  1.0667  0.3853
13250SOL    HW240585   6.489   7.205   3.000  0.8225 -0.1597  0.0868
13251SOL     OW40586   4.090   0.996   2.869  0.5247 -0.4008 -0.4191
13251SOL    HW140587   4.149   0.929   2.836 -0.8291 -2.2747  0.7627
13251SOL    HW240588   4.084   1.060   2.799  0.8283 -2.1915 -2.1671
13252SOL     OW40589   7.906   5.333   1.995 -0.0151 -0.3481 -1.0581
13252SOL    HW140590   7.921   5.241   2.018 -0.7988 -0.0548  0.8968
13252SOL    HW240591   7.992   5.367   1.971  0.6671 -1.1177  0.1964
13253SOL     OW40592   2.769   5.327   6.612 -0.3865 -0.6878  0.1345
13253SOL    HW140593   2.842   5.358   6.664 -1.0713 -1.1318  1.4294
13253SOL    HW240594   2.795   5.340   6.521  0.1314  1.7922  0.5794
13254SOL     OW40595   0.495   2.168   7.266  0.1250 -0.0163 -0.1762
13254SOL    HW140596   0.525   2.115   7.340 -1.5199 -0.1340  0.4744
13254SOL    HW240597   0.561   2.237   7.257  2.3224 -2.1244 -1.0653
13255SOL     OW40598   7.291   7.046   5.415  0.5898  0.0200 -0.2028
13255SOL    HW140599   7.256   7.135   5.424 -0.3815 -0.4384  0.9515
13255SOL    HW240600   7.384   7.054   5.433  0.2221  0.5796  1.7168
13256SOL     OW40601   3.630   5.806   1.899  0.1380  0.7385  0.8028
13256SOL    HW140602   3.558   5.807   1.836  0.9855  3.4061 -0.2868
13256SOL    HW240603   3.643   5.713   1.919 -1.9902  0.0086 -0.8024
13257SOL     OW40604   7.217   0.902   1.939 -0.3462 -0.4238 -0.1105
13257SOL    HW140605   7.310   0.911   1.916 -0.6817 -0.3280 -1.5130
13257SOL    HW240606   7.215   0.914   2.034  1.2364 -1.7329  0.1439
13258SOL     OW40607   4.519   3.336   6.663  0.3791  0.3126  0.6419
13258SOL    HW140608   4.460   3.396   6.617  2.5621  0.5599 -2.0525
13258SOL    HW240609   4.512   3.254   6.615  1.8309  0.2191  0.5460
13259SOL     OW40610   7.101   0.642   3.532  0.8913 -0.1307 -0.2524
13259SOL    HW140611   7.164   0.613   3.598  2.1924  0.2056 -1.3142
13259SOL    HW240612   7.086   0.735   3.551  0.0090 -0.4107  0.5275
13260SOL     OW40613   0.330   5.646   1.815  0.0477  0.3000 -0.7027
13260SOL    HW140614   0.269   5.714   1.787  1.7903  0.9989 -3.1411
13260SOL    HW240615   0.412   5.693   1.831  0.6900 -0.9596 -0.1877
13261SOL     OW40616   5.990   1.963   2.468  0.0706  0.3594  0.0935
13261SOL    HW140617   5.940   1.934   2.545 -0.4978 -0.6487 -0.6252
13261SOL    HW240618   6.065   1.903   2.465 -0.3909 -0.1950 -0.6382
13262SOL     OW40619   4.407   1.589   1.982 -0.0306 -0.2459 -0.5299
13262SOL    HW140620   4.445   1.650   2.046  0.7184 -1.6219  0.4098
13262SOL    HW240621   4.468   1.592   1.908  0.2250 -0.1348 -0.3199
13263SOL     OW40622   3.760   5.083   7.859 -0.2850 -0.7117 -0.2011
13263SOL    HW140623   3.836   5.110   7.808 -0.9141 -0.7673 -1.1848
13263SOL    HW240624   3.716   5.165   7.883  0.7112 -0.6003  1.4079
13264SOL     OW40625   2.375   7.704   0.984 -0.0958  0.6897  0.1390
13264SOL    HW140626   2.338   7.627   1.026  0.6020 -0.7874 -1.8105
13264SOL    HW240627   2.316   7.721   0.910 -0.0477  1.8221  0.3437
13265SOL     OW40628   7.523   0.801   7.446  0.7981  0.3888 -0.2459
13265SOL    HW140629   7.560   0.743   7.512 -0.2092  0.6962  0.6171
13265SOL    HW240630   7.571   0.883   7.457 -1.5981  1.5824  2.5065
13266SOL     OW40631   7.923   6.601   6.109 -0.3092  0.6895  0.6216
13266SOL    HW140632   7.850   6.590   6.049 -0.6126  2.5311  0.5960
13266SOL    HW240633   7.885   6.641   6.187  0.4044  0.1411  1.2704
13267SOL     OW40634   0.773   7.507   3.469 -0.8216 -1.0535  0.1526
13267SOL    HW140635   0.818   7.515   3.385  0.0611 -0.8375  0.6323
13267SOL    HW240636   0.747   7.415   3.474  1.1406 -1.6184  0.6296
13268SOL     OW40637   2.202   3.155   2.529  0.3306 -0.1947  0.3121
13268SOL    HW140638   2.154   3.154   2.611 -0.6042  0.7186 -0.2021
13268SOL    HW240639   2.186   3.069   2.490 -2.0057  0.5259 -0.4532
13269SOL     OW40640   0.061   3.240   7.704 -0.0352  0.7563 -0.2263
13269SOL    HW140641  -0.026   3.235   7.743 -0.5560 -2.3413 -1.4883
13269SOL    HW240642   0.045   3.236   7.610  1.4190 -2.0090 -0.4716
13270SOL     OW40643   5.086   2.507   7.592 -0.4783 -0.4353  0.0322
13270SOL    HW140644   5.156   2.493   7.529 -1.6471 -0.4757 -1.2851
13270SOL    HW240645   5.103   2.595   7.628 -1.4036  0.8768 -2.5121
13271SOL     OW40646   1.346   6.605   0.011  0.4341 -0.8420  0.0051
13271SOL    HW140647   1.395   6.523   0.015 -0.6573 -1.5048  0.2528
13271SOL    HW240648   1.266   6.588   0.061 -1.8892 -1.1033 -3.4561
13272SOL     OW40649   0.319   3.632   4.457  0.2678 -0.1069 -0.7159
13272SOL    HW140650   0.258   3.606   4.387  0.1229 -0.0564 -0.6104
13272SOL    HW240651   0.278   3.598   4.537  0.3430 -0.0109 -0.6371
13273SOL     OW40652   7.486   7.364   2.491 -0.0631  0.1105  0.3529
13273SOL    HW140653   7.568   7.392   2.451  0.1790 -1.5553 -0.3927
13273SOL    HW240654   7.432   7.443   2.492  0.7301  0.7195 -1.2123
13274SOL     OW40655   2.863   0.307   4.369  0.3905  0.5347 -0.2390
13274SOL    HW140656   2.801   0.312   4.297 -0.2746  0.4806  0.3170
13274SOL    HW240657   2.949   0.314   4.328  0.3228 -3.5082 -1.5608
13275SOL     OW40658   3.954   0.604   1.450 -0.5205 -0.2006 -0.3246
13275SOL    HW140659   3.884   0.664   1.477  0.1905  0.6453 -0.3043
13275SOL    HW240660   3.909   0.522   1.429 -1.5739  0.4910 -0.8535
13276SOL     OW40661   6.825   3.647   3.186 -0.5982  0.2401  0.7353
13276SOL    HW140662   6.855   3.559   3.212 -1.6636  0.0877  1.5002
13276SOL    HW240663   6.904   3.690   3.152  0.0543 -0.8235  0.8517
13277SOL     OW40664   0.839   7.233   1.522  0.3858  0.1341 -0.1571
13277SOL    HW140665   0.849   7.138   1.518 -1.5432 -0.0910 -0.5832
13277SOL    HW240666   0.814   7.250   1.613  1.2051  0.3117  0.0449
13278SOL     OW40667   5.421   4.057   4.982 -0.0953 -0.0676 -0.1210
13278SOL    HW140668   5.515   4.045   4.985 -0.0500  0.3198  0.0889
13278SOL    HW240669   5.390   3.993   4.917  0.4093  0.3833 -0.8206
13279SOL     OW40670   5.326   6.232   3.223  0.8053 -0.2336  0.5231
13279SOL    HW140671   5.402   6.259   3.171  0.3262 -0.9022 -0.5501
13279SOL    HW240672   5.364   6.185   3.298  1.4946  0.5581  0.6853
13280SOL     OW40673   5.819   4.602   2.284  0.2126  0.2544 -0.9118
13280SOL    HW140674   5.815   4.515   2.324 -1.7284  0.2680 -0.9805
13280SOL    HW240675   5.886   4.648   2.334 -2.5891  0.5391  3.0101
13281SOL     OW40676   5.169   5.958   7.345 -0.8615 -0.1149  0.1039
13281SOL    HW140677   5.213   5.874   7.336 -2.4491 -1.0131  0.2371
13281SOL    HW240678   5.101   5.942   7.411 -1.5360  1.1274 -0.2591
13282SOL     OW40679   3.463   1.835   4.723  0.1799 -0.0952  0.0470
13282SOL    HW140680   3.416   1.783   4.658  0.2887 -0.3162  0.1457
13282SOL    HW240681   3.415   1.821   4.804  0.2800 -0.1393  0.0991
13283SOL     OW40682   1.559   5.459   3.323  0.6307 -0.6166 -0.1590
13283SOL    HW140683   1.612   5.381   3.307  1.7212 -0.2478  1.4410
13283SOL    HW240684   1.536   5.454   3.416 -0.1074  0.4800 -0.2603
13284SOL     OW40685   4.444   4.994   5.524  1.0112 -0.1477  0.3421
13284SOL    HW140686   4.482   5.052   5.591 -1.0425 -0.7210  2.1312
13284SOL    HW240687   4.453   4.906   5.561 -1.2700 -0.3640  0.5117
13285SOL     OW40688   5.117   1.493   3.978  0.2249  0.2950  0.5539
13285SOL    HW140689   5.051   1.516   3.913 -1.6279 -0.2180  2.1496
13285SOL    HW240690   5.103   1.555   4.050  0.5169 -0.7154  1.5171
13286SOL     OW40691   6.269   0.622   4.411  0.2655  0.5399 -0.2274
13286SOL    HW140692   6.210   0.580   4.349 -0.1128  2.6617 -1.3827
13286SOL    HW240693   6.272   0.562   4.486 -0.1141 -1.5644 -1.8103
13287SOL     OW40694   3.289   7.215   2.023  0.3969 -0.2134  0.1342
13287SOL    HW140695   3.212   7.161   2.006 -0.6483  0.8298  1.3166
13287SOL    HW240696   3.270   7.257   2.107  1.7882  0.8885 -0.0693
13288SOL     OW40697   6.687   0.279   3.202 -0.2674  0.0628 -0.3734
13288SOL    HW140698   6.766   0.251   3.156  0.1784  1.4513 -0.4711
13288SOL    HW240699   6.681   0.218   3.276  0.2507 -0.7693 -0.9877
13289SOL     OW40700   7.875   4.751   3.012  0.2593  0.1814  0.3073
13289SOL    HW140701   7.937   4.824   3.014  1.2772 -0.6668  0.5706
13289SOL    HW240702   7.893   4.701   3.091 -0.3108 -0.4585  0.0492
13290SOL     OW40703   7.699   1.197   6.984 -0.3322  0.6784  0.0287
13290SOL    HW140704   7.722   1.234   7.069 -1.4838 -0.1580  0.7269
13290SOL    HW240705   7.783   1.183   6.941  0.4984 -1.3521  2.0838
13291SOL     OW40706   3.304   3.175   0.401 -0.4877 -0.4154 -0.3228
13291SOL    HW140707   3.393   3.174   0.367 -0.4217  2.3211 -0.4118
13291SOL    HW240708   3.249   3.186   0.323 -0.6707  0.9411 -0.0188
13292SOL     OW40709   0.262   5.415   2.550 -0.1838  0.0382 -0.0305
13292SOL    HW140710   0.186   5.383   2.501 -0.5020 -0.0870  0.5412
13292SOL    HW240711   0.299   5.336   2.590  1.1712 -0.1577 -1.5421
13293SOL     OW40712   4.912   0.765   7.150  0.3451 -0.4146  0.0876
13293SOL    HW140713   4.858   0.699   7.194 -0.5250 -0.2488 -0.6920
13293SOL    HW240714   4.849   0.831   7.120  0.8942 -0.5635 -1.4676
13294SOL     OW40715   1.364   0.457   3.897 -0.4626 -0.4062 -0.3265
13294SOL    HW140716   1.396   0.386   3.953  0.5971  1.3634  1.4094
13294SOL    HW240717   1.283   0.487   3.939  0.5349  1.1828  0.5180
13295SOL     OW40718   6.491   2.827   3.858  0.1628  0.4096 -0.0722
13295SOL    HW140719   6.509   2.813   3.765 -0.0483  1.6476 -0.3171
13295SOL    HW240720   6.425   2.762   3.880  1.0892 -0.6882 -0.4753
13296SOL     OW40721   2.725   6.945   7.129 -0.2256 -0.0189  0.1021
13296SOL    HW140722   2.818   6.929   7.112 -0.1581 -0.2625  0.6647
13296SOL    HW240723   2.679   6.886   7.069  0.0102 -1.4306  1.2528
13297SOL     OW40724   2.056   5.854   1.752 -0.3931  0.0592 -0.7515
13297SOL    HW140725   1.977   5.873   1.804 -0.5550  2.4807 -1.7327
13297SOL    HW240726   2.037   5.891   1.666  1.6065  0.1708 -1.1885
13298SOL     OW40727   7.868   6.152   3.778 -0.5032 -0.5355  0.0340
13298SOL    HW140728   7.907   6.237   3.757 -0.9556 -0.4716 -0.5677
13298SOL    HW240729   7.888   6.097   3.703  0.6732 -1.2858  0.8579
13299SOL     OW40730   2.145   7.229   1.062  0.1838  0.0068  0.3715
13299SOL    HW140731   2.073   7.184   1.105  0.2171 -1.7186 -1.2681
13299SOL    HW240732   2.193   7.160   1.016  2.7732  1.1233  1.1982
13300SOL     OW40733   0.866   1.624   6.866  0.4174 -0.7583 -0.1952
13300SOL    HW140734   0.801   1.680   6.825  0.6796 -1.2441 -1.3012
13300SOL    HW240735   0.933   1.684   6.898  0.2767 -0.3801 -0.6036
13301SOL     OW40736   3.482   4.870   6.690 -0.2885  0.2706  0.2313
13301SOL    HW140737   3.510   4.782   6.715  0.6309  0.9516  1.7486
13301SOL    HW240738   3.543   4.928   6.736 -1.0981  1.7045 -0.4556
13302SOL     OW40739   2.335   5.298   2.023  0.0943  0.4717 -0.2135
13302SOL    HW140740   2.318   5.221   2.078 -0.6913  0.7609 -0.0387
13302SOL    HW240741   2.421   5.329   2.052 -1.2731  2.0493  2.6209
13303SOL     OW40742   1.826   4.136   6.291 -0.0991  0.0838  0.2684
13303SOL    HW140743   1.766   4.148   6.365 -0.0014  0.5906  0.2649
13303SOL    HW240744   1.817   4.216   6.239  1.7910  0.9153  1.1341
13304SOL     OW40745   0.939   1.460   4.386 -0.0508  0.5121  0.0889
13304SOL    HW140746   0.978   1.375   4.366  2.3681  1.1103  1.8454
13304SOL    HW240747   0.919   1.456   4.480  1.2259  2.2626  0.4692
13305SOL     OW40748   0.732   3.349   5.083 -0.2164  0.3346 -0.4731
13305SOL    HW140749   0.763   3.312   5.166 -0.8130  0.5085 -0.1695
13305SOL    HW240750   0.771   3.437   5.080  1.5088 -0.4169 -1.3718
13306SOL     OW40751   7.293   7.357   4.543 -0.8390 -0.3137  0.7198
13306SOL    HW140752   7.299   7.372   4.449 -1.8934  2.2788  0.9652
13306SOL    HW240753   7.377   7.318   4.567  0.7091  1.7658 -0.8944
13307SOL     OW40754   6.024   2.924   2.892  0.3090 -0.2160 -0.1469
13307SOL    HW140755   6.106   2.877   2.909  1.0383  0.7852 -0.7895
13307SOL    HW240756   6.051   3.014   2.875 -0.9429  0.1573 -0.2467
13308SOL     OW40757   5.065   4.044   2.631 -0.1267 -0.1258 -0.5925
13308SOL    HW140758   5.103   3.988   2.564 -1.8521 -0.6336 -1.1947
13308SOL    HW240759   4.976   4.010   2.643  0.3223 -0.4981  2.4480
13309SOL     OW40760   3.714   3.081   1.485  0.7880 -0.3498  0.3094
13309SOL    HW140761   3.664   3.060   1.564 -0.4881  0.6562 -0.2048
13309SOL    HW240762   3.800   3.108   1.518  0.0316  0.8106  1.4165
13310SOL     OW40763   7.773   5.187   1.422 -0.4305 -0.1067  0.0893
13310SOL    HW140764   7.722   5.231   1.490  0.2282 -2.9064  2.5676
13310SOL    HW240765   7.708   5.160   1.357 -1.4235  0.4379  0.8251
13311SOL     OW40766   0.031   0.691   0.766 -0.2682  0.3123 -0.4417
13311SOL    HW140767  -0.050   0.651   0.797  0.1700 -0.2594 -0.0123
13311SOL    HW240768   0.017   0.705   0.672 -0.5326 -0.6139 -0.5543
13312SOL     OW40769   5.494   4.150   4.205  0.3635  0.3276 -0.4505
13312SOL    HW140770   5.513   4.243   4.213 -0.0136  0.5933 -2.1404
13312SOL    HW240771   5.436   4.131   4.279  0.9697  1.2700  0.2890
13313SOL     OW40772   1.930   3.488   4.913  0.0005 -0.4770 -0.2146
13313SOL    HW140773   1.990   3.516   4.844  0.4838 -1.8051 -0.3717
13313SOL    HW240774   1.968   3.523   4.994  0.4839 -0.5339 -0.4144
13314SOL     OW40775   7.800   2.799   0.258  0.1961  0.1672  0.2845
13314SOL    HW140776   7.722   2.782   0.311 -0.8294  0.7795 -0.9699
13314SOL    HW240777   7.807   2.722   0.201 -0.6646  0.9498 -0.9368
13315SOL     OW40778   3.456   5.406   2.786 -0.0505  0.2725  0.1406
13315SOL    HW140779   3.408   5.324   2.776  1.8867 -0.8311 -0.8461
13315SOL    HW240780   3.548   5.382   2.772  0.6357  2.5386  0.2644
13316SOL     OW40781   3.069   4.508   2.931  0.3411 -0.2502  0.4648
13316SOL    HW140782   2.994   4.483   2.985 -0.5309  0.1845 -0.5190
13316SOL    HW240783   3.031   4.540   2.849  1.5508  0.9708  0.3371
13317SOL     OW40784   5.262   7.254   0.156 -0.0362 -0.1837  0.3101
13317SOL    HW140785   5.243   7.332   0.104 -2.4685 -0.2071  1.0569
13317SOL    HW240786   5.180   7.205   0.157  1.1873 -2.3646  0.5749
13318SOL     OW40787   2.239   3.983   3.752 -0.5052 -0.0040 -0.4312
13318SOL    HW140788   2.206   3.994   3.841 -1.9931 -2.0925 -0.6448
13318SOL    HW240789   2.235   4.070   3.714 -0.5722  0.7863  1.2846
13319SOL     OW40790   2.954   3.782   1.560  0.3173  0.1419 -0.1225
13319SOL    HW140791   2.985   3.853   1.504 -0.3351  0.5699  0.0440
13319SOL    HW240792   3.028   3.722   1.567  0.3169 -0.1061 -1.7423
13320SOL     OW40793   3.869   6.867   0.046 -0.4591 -0.3833  0.1310
13320SOL    HW140794   3.878   6.783   0.092 -1.5476 -0.9411 -0.6477
13320SOL    HW240795   3.847   6.929   0.116  3.2380 -0.0578  1.2228
13321SOL     OW40796   6.308   4.619   4.843  0.3051 -0.4627 -0.4467
13321SOL    HW140797   6.246   4.641   4.774 -0.7947 -0.3991  0.5348
13321SOL    HW240798   6.393   4.651   4.811 -0.3724  0.5518 -1.2667
13322SOL     OW40799   3.459   2.726   7.163  0.3808  0.9518 -0.2692
13322SOL    HW140800   3.484   2.663   7.095  0.4891 -0.7684  1.2998
13322SOL    HW240801   3.523   2.713   7.233 -1.1844  0.8773  1.2185
13323SOL     OW40802   2.186   4.725   3.135 -0.3257 -0.4151 -0.2840
13323SOL    HW140803   2.196   4.637   3.098  1.4744 -0.4949  0.2924
13323SOL    HW240804   2.160   4.710   3.226  1.6350 -0.4579  0.3166
13324SOL     OW40805   5.768   4.875   7.576  0.3205  0.1106  0.5089
13324SOL    HW140806   5.858   4.845   7.585  0.6542  0.6940 -0.6855
13324SOL    HW240807   5.762   4.952   7.633  0.3981 -0.2864  1.0571
13325SOL     OW40808   0.414   1.214   2.380  0.4852 -0.8147 -0.0416
13325SOL    HW140809   0.507   1.210   2.402  0.8867 -3.4421 -1.7644
13325SOL    HW240810   0.385   1.123   2.383 -2.0606 -0.0635  0.3920
13326SOL     OW40811   5.978   0.003   0.227 -0.0928 -0.2792  0.7066
13326SOL    HW140812   6.047   0.009   0.161  0.9455  0.4232  1.8004
13326SOL    HW240813   5.896   0.006   0.177  0.6544 -0.1405 -0.5568
13327SOL     OW40814   5.815   3.036   7.222 -0.1917  0.3434  0.5517
13327SOL    HW140815   5.826   3.007   7.131  0.0913  0.0219  0.6847
13327SOL    HW240816   5.886   3.098   7.237 -1.3635  1.8884 -0.0328
13328SOL     OW40817   7.912   2.915   0.476  0.6810  0.0383  0.2935
13328SOL    HW140818   7.890   2.867   0.396 -2.5508 -0.1442  1.1665
13328SOL    HW240819   7.849   2.988   0.479  1.5816  0.8177  2.0200
13329SOL     OW40820   2.565   4.534   3.722  0.4652  0.2264  0.1612
13329SOL    HW140821   2.623   4.467   3.687  1.3037  1.2424 -0.4630
13329SOL    HW240822   2.575   4.528   3.817  1.0880 -0.0482  0.0802
13330SOL     OW40823   6.569   1.179   4.709 -0.0678 -0.3446  0.0655
13330SOL    HW140824   6.544   1.086   4.709  0.9252 -0.6586  1.7697
13330SOL    HW240825   6.532   1.213   4.791  1.4478  0.1944  0.5589
13331SOL     OW40826   6.351   5.275   0.848 -0.2551 -0.1806  0.1074
13331SOL    HW140827   6.289   5.261   0.776  0.9633  1.6049 -1.4015
13331SOL    HW240828   6.424   5.217   0.828 -0.4472 -0.6076  0.6226
13332SOL     OW40829   4.973   0.585   2.590  0.4869  0.2415  0.0003
13332SOL    HW140830   5.004   0.524   2.657  1.6319  0.0861 -0.6371
13332SOL    HW240831   4.938   0.530   2.520  2.1083  0.2395 -0.8598
13333SOL     OW40832   6.589   4.555   5.087 -0.0730 -0.6461 -0.6888
13333SOL    HW140833   6.594   4.521   4.998 -1.1882  2.5250 -2.1040
13333SOL    HW240834   6.664   4.613   5.095 -0.7472  0.1727 -0.0987
13334SOL     OW40835   7.216   6.536   2.725 -0.5204  0.0122 -0.2452
13334SOL    HW140836   7.209   6.626   2.694 -0.1825 -0.6439 -2.3774
13334SOL    HW240837   7.167   6.484   2.661 -0.9166 -1.3125  1.0750
13335SOL     OW40838   0.744   5.798   4.294  0.3172  0.3245  0.5879
13335SOL    HW140839   0.825   5.776   4.248 -1.0732 -1.0175 -1.4136
13335SOL    HW240840   0.701   5.714   4.309 -1.2625  1.0685  0.4827
13336SOL     OW40841   5.300   1.929   2.571 -0.0122  0.1845 -0.0582
13336SOL    HW140842   5.317   2.021   2.548 -0.9543  0.3216 -0.2296
13336SOL    HW240843   5.237   1.934   2.643  1.3484 -0.2902  1.2285
13337SOL     OW40844   3.404   4.573   6.508  0.0484  0.1209 -0.1545
13337SOL    HW140845   3.495   4.571   6.539 -0.7854 -3.0631  2.7227
13337SOL    HW240846   3.405   4.521   6.428  0.9297  1.1274 -0.8145
13338SOL     OW40847   7.640   4.574   6.930  0.1666 -0.3238 -0.1368
13338SOL    HW140848   7.588   4.530   6.997  2.6791  1.4156  3.2240
13338SOL    HW240849   7.585   4.647   6.900 -0.9562 -1.0709  0.0279
13339SOL     OW40850   7.781   2.935   7.726  0.2995  0.1106  0.0220
13339SOL    HW140851   7.781   3.029   7.746 -0.2813  0.6221 -2.0775
13339SOL    HW240852   7.705   2.901   7.773  1.2118  0.3863  1.8117
13340SOL     OW40853   4.310   4.213   1.060  0.5628 -0.3356 -0.4584
13340SOL    HW140854   4.344   4.142   1.115 -0.3064  0.2010  0.8286
13340SOL    HW240855   4.230   4.240   1.104  0.7025  1.2207 -1.1118
13341SOL     OW40856   6.191   4.854   4.675 -0.2806  0.2708 -0.3191
13341SOL    HW140857   6.208   4.817   4.589 -0.8009 -1.0374  0.1134
13341SOL    HW240858   6.113   4.908   4.664  1.2179  2.3937 -1.2430
13342SOL     OW40859   3.324   1.316   2.310  0.4832  0.4799 -0.2854
13342SOL    HW140860   3.394   1.379   2.328  0.3000  1.4591 -2.6784
13342SOL    HW240861   3.305   1.327   2.217 -0.4939 -2.1988 -0.4957
13343SOL     OW40862   0.064   4.372   6.260 -0.2541 -0.5831 -0.2793
13343SOL    HW140863   0.150   4.402   6.289 -1.3388  0.9778  1.5545
13343SOL    HW240864   0.062   4.390   6.166  1.0865  0.1672 -0.1742
13344SOL     OW40865   4.272   5.446   5.045  0.5759 -1.0782 -0.3974
13344SOL    HW140866   4.324   5.483   4.974  0.1414 -2.5783 -1.5283
13344SOL    HW240867   4.329   5.380   5.085  0.0787 -1.7234 -0.7319
13345SOL     OW40868   3.353   5.276   4.497 -0.0834 -0.2071  0.3347
13345SOL    HW140869   3.323   5.365   4.511  1.9506  0.3877  1.2586
13345SOL    HW240870   3.274   5.222   4.502 -1.0152  1.2498  2.4245
13346SOL     OW40871   5.592   5.315   0.908 -0.5075  0.8259  0.3090
13346SOL    HW140872   5.642   5.238   0.883 -1.8731  0.2499 -0.7853
13346SOL    HW240873   5.606   5.324   1.002  1.4855  0.6108  0.0705
13347SOL     OW40874   0.870   7.623   5.782  0.5371  0.0307 -0.6253
13347SOL    HW140875   0.948   7.568   5.779  0.9261  0.5791 -0.5010
13347SOL    HW240876   0.860   7.646   5.875 -0.0725 -0.4631 -0.5602
13348SOL     OW40877   3.990   4.793   0.244  0.5723 -0.3400 -0.2381
13348SOL    HW140878   3.974   4.739   0.167 -0.5202  0.0811 -0.3178
13348SOL    HW240879   3.905   4.804   0.285  1.2173 -1.0136  1.3622
13349SOL     OW40880   5.895   7.049   1.122  0.2088 -0.1578 -0.6859
13349SOL    HW140881   5.854   6.964   1.140 -0.3945  0.2871  0.1000
13349SOL    HW240882   5.822   7.111   1.121  0.4939  0.1956 -2.4564
13350SOL     OW40883   0.148   7.568   3.928  0.5582 -0.2548  0.2736
13350SOL    HW140884   0.207   7.507   3.882  1.6423 -1.2360  2.7678
13350SOL    HW240885   0.173   7.560   4.020 -2.0597  0.9499  1.1833
13351SOL     OW40886   4.399   4.600   5.490  0.1983  0.2846 -0.2504
13351SOL    HW140887   4.464   4.648   5.541 -0.1012  0.1502  0.2669
13351SOL    HW240888   4.368   4.531   5.549 -1.4771  1.2286  0.0531
13352SOL     OW40889   1.356   1.194   3.027  0.2716 -0.4518 -0.2373
13352SOL    HW140890   1.395   1.107   3.034 -0.6363 -0.9871 -1.3426
13352SOL    HW240891   1.430   1.255   3.033  0.9605 -1.3124  0.1991
13353SOL     OW40892   7.802   5.669   6.649 -0.1862 -0.1745  0.3156
13353SOL    HW140893   7.751   5.690   6.571 -1.5438  1.3231  1.5549
13353SOL    HW240894   7.857   5.596   6.622 -0.8221  0.1109 -1.9546
13354SOL     OW40895   3.482   4.721   2.175  0.3804  0.3551  0.1170
13354SOL    HW140896   3.543   4.757   2.110  0.7840 -0.1875  0.1806
13354SOL    HW240897   3.535   4.660   2.226  0.0392  0.6899  0.8949
13355SOL     OW40898   2.301   0.141   5.773  0.3260  0.1630 -0.1153
13355SOL    HW140899   2.391   0.168   5.751  0.1325  1.2045  0.3054
13355SOL    HW240900   2.263   0.218   5.814 -0.6355 -0.4160  0.0971
13356SOL     OW40901   7.648   0.921   6.975 -0.3975 -0.0546  0.3234
13356SOL    HW140902   7.572   0.906   6.918  0.4919 -1.2868 -0.5936
13356SOL    HW240903   7.667   1.014   6.965 -0.7407 -0.0889 -0.8329
13357SOL     OW40904   1.570   1.568   7.539 -0.0613 -0.6560 -0.1207
13357SOL    HW140905   1.600   1.597   7.625 -0.2184 -0.2375 -0.2052
13357SOL    HW240906   1.519   1.641   7.505 -0.9826 -1.2623 -0.0880
13358SOL     OW40907   6.997   7.690   7.291 -0.5856 -0.0508 -0.3382
13358SOL    HW140908   6.969   7.601   7.272  0.3784 -0.6527  0.9310
13358SOL    HW240909   6.916   7.736   7.314 -0.7557 -1.5678  2.5879
13359SOL     OW40910   4.054   3.033   6.033  0.1385  0.3865  0.4494
13359SOL    HW140911   4.059   3.083   6.115 -1.1463  1.8266 -0.2830
13359SOL    HW240912   3.969   3.058   5.997  0.9980  0.3647 -1.6869
13360SOL     OW40913   2.371   5.723   2.641  0.5745  0.3450  0.0988
13360SOL    HW140914   2.394   5.755   2.554  0.3599 -1.7819 -0.7857
13360SOL    HW240915   2.276   5.725   2.644  0.6000  1.4084  0.7078
13361SOL     OW40916   7.368   6.246   6.470 -0.7125 -0.5927 -0.3478
13361SOL    HW140917   7.365   6.234   6.375  1.2974 -0.3916 -0.4692
13361SOL    HW240918   7.352   6.339   6.483 -2.9823 -0.9238 -0.2989
13362SOL     OW40919   0.722   4.171   0.595 -0.0926 -1.0346  0.2666
13362SOL    HW140920   0.739   4.095   0.540 -0.1244 -2.5417  2.2457
13362SOL    HW240921   0.791   4.169   0.662 -0.2691  0.5057  0.5320
13363SOL     OW40922   7.619   6.696   3.887  0.8578  0.9075  0.0904
13363SOL    HW140923   7.608   6.787   3.914 -1.3917  0.1595  1.9884
13363SOL    HW240924   7.559   6.684   3.814 -1.4561  0.1798  1.9991
13364SOL     OW40925   4.728   6.690   6.155 -0.0070  0.4434 -0.7927
13364SOL    HW140926   4.743   6.636   6.233 -0.3756 -0.4997 -1.3625
13364SOL    HW240927   4.637   6.720   6.165 -0.9132 -1.6736 -2.0116
13365SOL     OW40928   5.440   0.835   6.008 -0.3460  0.0968  0.2063
13365SOL    HW140929   5.348   0.859   6.015  0.0939  1.8096  0.5544
13365SOL    HW240930   5.464   0.858   5.918 -0.3840 -0.8359 -0.0454
13366SOL     OW40931   5.627   1.619   3.339 -0.2377  0.1986  0.1437
13366SOL    HW140932   5.629   1.525   3.318  0.5940 -0.0901  1.4442
13366SOL    HW240933   5.536   1.635   3.364 -0.7943  0.1306 -1.6795
13367SOL     OW40934   3.137   4.680   1.995 -0.2433  0.5923  0.2447
13367SOL    HW140935   3.155   4.604   2.051  0.4856 -0.3887 -1.2711
13367SOL    HW240936   3.220   4.698   1.951 -1.2386  0.1197 -1.9473
13368SOL     OW40937   3.733   4.758   5.666 -0.0997 -0.2513  0.4107
13368SOL    HW140938   3.772   4.693   5.607 -0.0881 -1.1421  1.3729
13368SOL    HW240939   3.800   4.775   5.731 -0.4511  0.0299  0.7062
13369SOL     OW40940   7.872   3.416   2.837  0.4580 -0.3423  0.2399
13369SOL    HW140941   7.838   3.345   2.892 -0.3483 -0.2664 -0.1445
13369SOL    HW240942   7.802   3.481   2.835 -0.2559 -1.0720 -2.2101
13370SOL     OW40943   5.548   0.809   0.627  0.3911  0.0268 -0.2199
13370SOL    HW140944   5.466   0.777   0.666  1.6568 -2.2241  0.7677
13370SOL    HW240945   5.617   0.775   0.683  2.0767  1.3367 -1.3823
13371SOL     OW40946   1.865   2.005   5.534 -0.1629  0.6241  0.1032
13371SOL    HW140947   1.933   2.005   5.466 -0.3649  0.9091 -0.0970
13371SOL    HW240948   1.805   1.936   5.508  0.2043  0.1689  0.4386
13372SOL     OW40949   4.408   6.657   6.189 -0.3808 -0.0659  0.0964
13372SOL    HW140950   4.341   6.712   6.148  0.5921  1.2797  0.2259
13372SOL    HW240951   4.437   6.708   6.265  1.7111  0.0273 -0.7035
13373SOL     OW40952   3.423   6.319   3.379  0.1337  0.0626  1.1627
13373SOL    HW140953   3.503   6.361   3.411  0.5898 -1.7051  2.5054
13373SOL    HW240954   3.453   6.239   3.335 -0.7794  0.4305 -0.1934
13374SOL     OW40955   3.630   1.732   6.422 -0.7003  0.0524  0.3195
13374SOL    HW140956   3.708   1.771   6.461  0.1032  0.5141 -1.6430
13374SOL    HW240957   3.568   1.805   6.414  0.0848  0.5757 -1.5421
13375SOL     OW40958   4.401   5.479   1.029  0.2241  0.0340 -0.4831
13375SOL    HW140959   4.454   5.557   1.010 -0.7735  0.6797 -0.6559
13375SOL    HW240960   4.414   5.423   0.953  1.2899 -0.1719 -0.1696
13376SOL     OW40961   7.165   1.667   1.266 -0.1774  0.1915  0.9361
13376SOL    HW140962   7.143   1.619   1.345  0.4778  0.0208  1.0235
13376SOL    HW240963   7.261   1.675   1.268 -0.0965 -0.2431 -0.0662
13377SOL     OW40964   6.815   3.480   5.825  0.1343 -0.0848 -0.1084
13377SOL    HW140965   6.855   3.482   5.912  0.1972 -0.3275 -0.1291
13377SOL    HW240966   6.805   3.387   5.806  0.6413 -0.0459 -0.5963
13378SOL     OW40967   2.726   2.050   3.747 -0.7501 -0.6563  0.0523
13378SOL    HW140968   2.700   2.013   3.831 -0.8260 -1.4555 -0.3210
13378SOL    HW240969   2.731   1.975   3.687 -0.0994 -0.1833 -0.5083
13379SOL     OW40970   0.799   1.595   1.549 -0.4092 -0.4048  0.2230
13379SOL    HW140971   0.869   1.530   1.547  1.3008  1.2987  1.6466
13379SOL    HW240972   0.829   1.666   1.492 -1.2001  0.1522  0.4722
13380SOL     OW40973   6.527   5.840   0.930  0.5143  0.5036  0.0425
13380SOL    HW140974   6.567   5.801   0.853  1.1815  1.0385  0.1083
13380SOL    HW240975   6.596   5.840   0.996  0.1720  0.7259  0.4080
13381SOL     OW40976   0.382   7.860   4.156 -0.1748 -0.0461  0.0174
13381SOL    HW140977   0.424   7.941   4.127  1.1553 -0.7743 -0.2081
13381SOL    HW240978   0.436   7.830   4.230 -2.2664  0.6722  1.9293
13382SOL     OW40979   3.195   2.778   2.906 -0.4440 -0.4865  0.0598
13382SOL    HW140980   3.249   2.833   2.849 -1.3779  0.4425  0.0539
13382SOL    HW240981   3.107   2.785   2.870 -0.9040 -0.5151  1.1491
13383SOL     OW40982   1.592   2.783   4.603 -0.4726 -0.2187 -0.9446
13383SOL    HW140983   1.587   2.695   4.567  0.2165 -0.3464 -0.7527
13383SOL    HW240984   1.527   2.784   4.673 -0.2773 -0.6761 -0.7515
13384SOL     OW40985   2.115   1.621   5.133 -0.1781 -0.1602 -0.6277
13384SOL    HW140986   2.027   1.656   5.117 -0.0662 -0.5305 -2.2380
13384SOL    HW240987   2.172   1.698   5.128 -0.5871  0.6200  3.3311
13385SOL     OW40988   6.037   5.885   4.868 -0.3251 -0.1460  0.0172
13385SOL    HW140989   6.100   5.850   4.930  0.3787 -0.9602 -1.1152
13385SOL    HW240990   5.960   5.829   4.877 -0.1024 -0.4702 -0.0632
13386SOL     OW40991   7.338   4.336   4.994  0.3019 -0.2578 -0.1880
13386SOL    HW140992   7.336   4.431   4.984  1.1310 -0.2448 -0.2594
13386SOL    HW240993   7.312   4.302   4.908  0.6635 -0.0991 -0.3600
13387SOL     OW40994   2.454   2.595   3.707 -0.4532  0.0706  0.0402
13387SOL    HW140995   2.424   2.661   3.770  0.6106  0.6743 -0.0785
13387SOL    HW240996   2.493   2.527   3.762 -0.1398  0.2747  0.0688
13388SOL     OW40997   4.487   6.159   7.169 -0.2732  0.0066 -0.0276
13388SOL    HW140998   4.492   6.250   7.138 -0.6915 -0.3140 -1.0835
13388SOL    HW240999   4.493   6.166   7.264  0.2097  1.1010 -0.1216
13389SOL     OW41000   4.168   5.093   4.174 -0.0953 -0.6924 -0.1318
13389SOL    HW141001   4.076   5.073   4.187  0.0761 -0.6624  1.3859
13389SOL    HW241002   4.168   5.172   4.120 -0.9959 -0.1848  0.5733
13390SOL     OW41003   7.146   0.364   3.472 -0.1154  0.3612 -0.0258
13390SOL    HW141004   7.119   0.455   3.481 -0.1855  0.3809 -0.4362
13390SOL    HW241005   7.067   0.313   3.489 -0.5655  0.4311 -1.7498
13391SOL     OW41006   7.914   5.217   7.408  0.2364  0.1345 -0.1679
13391SOL    HW141007   7.924   5.122   7.407  1.7017  0.2551  0.4488
13391SOL    HW241008   8.003   5.250   7.418 -0.3458  1.5465  0.5948
13392SOL     OW41009   5.675   0.252   5.641  0.0370  0.5328  0.0583
13392SOL    HW141010   5.634   0.198   5.708 -0.6337  0.4925 -0.3775
13392SOL    HW241011   5.604   0.306   5.607  0.7620  1.9903  0.7594
13393SOL     OW41012   5.544   0.784   3.834  0.5188 -0.4177  0.0208
13393SOL    HW141013   5.506   0.787   3.922 -1.2598 -0.7544 -0.7016
13393SOL    HW241014   5.476   0.818   3.777  1.2340 -1.2247 -1.3688
13394SOL     OW41015   2.804   2.030   0.302  0.0778 -0.3668 -0.0289
13394SOL    HW141016   2.863   2.104   0.318 -0.6370 -0.2599  2.4541
13394SOL    HW241017   2.853   1.953   0.331 -0.7498 -0.3361  1.5418
13395SOL     OW41018   3.912   5.946   2.101  0.1177  0.1979 -0.0407
13395SOL    HW141019   3.888   5.882   2.169 -0.6851 -0.4347 -0.8922
13395SOL    HW241020   3.855   6.021   2.118  0.5899  0.4291  0.5541
13396SOL     OW41021   1.571   3.180   1.555  0.1573 -0.2970  0.0683
13396SOL    HW141022   1.563   3.101   1.609 -0.9411  1.5970  2.9342
13396SOL    HW241023   1.666   3.190   1.542  0.6084 -0.1932  2.8381
13397SOL     OW41024   3.725   6.013   0.921 -0.5164 -0.0024 -0.1420
13397SOL    HW141025   3.725   5.988   0.829 -1.3081 -0.0062 -0.1463
13397SOL    HW241026   3.818   6.024   0.943 -0.3684  1.1084 -1.2354
13398SOL     OW41027   2.967   7.456   6.970  0.1472 -0.5850 -0.1180
13398SOL    HW141028   3.040   7.395   6.974 -0.7953 -1.7132  1.3391
13398SOL    HW241029   2.911   7.422   6.900  0.4049 -0.4495 -0.3909
13399SOL     OW41030   1.565   5.404   7.348 -0.1185 -0.1175 -0.6196
13399SOL    HW141031   1.619   5.478   7.375  0.3550 -0.4713 -0.5697
13399SOL    HW241032   1.622   5.327   7.361  0.2395 -0.2976 -2.8737
13400SOL     OW41033   2.620   5.788   5.928  0.3689  0.1782 -0.0225
13400SOL    HW141034   2.579   5.735   5.997 -0.7494  0.8211 -0.1763
13400SOL    HW241035   2.583   5.876   5.940  0.3652  0.3655 -1.2656
13401SOL     OW41036   0.317   5.233   4.656  0.0785  0.0710 -0.0269
13401SOL    HW141037   0.395   5.187   4.687  0.2424  0.0655 -0.4423
13401SOL    HW241038   0.262   5.242   4.734  1.2772  1.7281  0.6929
13402SOL     OW41039   7.068   7.808   5.353 -0.2365 -0.7456  0.0900
13402SOL    HW141040   7.037   7.725   5.318 -1.3810 -0.3591  0.1476
13402SOL    HW241041   7.084   7.790   5.446 -1.7872 -0.5918  0.4190
13403SOL     OW41042   3.883   3.399   5.020 -0.9961  0.2931 -0.1202
13403SOL    HW141043   3.888   3.395   4.924  0.5824 -0.7355 -0.0278
13403SOL    HW241044   3.970   3.428   5.047 -0.9787 -0.8171  1.0646
13404SOL     OW41045   4.772   6.153   5.057  0.2312  0.0447 -0.4007
13404SOL    HW141046   4.721   6.210   4.999  0.4179 -0.8209 -1.4513
13404SOL    HW241047   4.718   6.143   5.135 -0.9691 -0.3683 -1.2516
13405SOL     OW41048   7.829   6.628   2.650  0.3071  0.1960  0.2755
13405SOL    HW141049   7.907   6.584   2.615  0.4391  0.7937 -0.1903
13405SOL    HW241050   7.828   6.713   2.607 -0.8967  0.0036 -0.0989
13406SOL     OW41051   0.142   0.512   7.296  0.2032  0.5318 -0.6582
13406SOL    HW141052   0.131   0.435   7.352  0.1192 -0.5401 -2.1045
13406SOL    HW241053   0.178   0.579   7.354 -3.6307  0.8046  1.7258
13407SOL     OW41054   1.155   0.450   2.060 -0.2489  0.5184 -0.9347
13407SOL    HW141055   1.196   0.455   1.974  0.8825 -2.5509 -0.6697
13407SOL    HW241056   1.203   0.382   2.106 -2.4779  0.2781  1.2402
13408SOL     OW41057   0.676   0.521   6.696  0.2728  0.9186  0.7860
13408SOL    HW141058   0.591   0.562   6.677  0.9458  1.8959 -0.2916
13408SOL    HW241059   0.734   0.554   6.626  1.2961 -0.4902  0.9342
13409SOL     OW41060   6.578   1.325   5.271  0.0748  0.1320  0.6098
13409SOL    HW141061   6.589   1.277   5.189  2.0843 -0.7613  1.3416
13409SOL    HW241062   6.522   1.268   5.324 -1.6588  0.9464 -0.2708
13410SOL     OW41063   4.658   7.526   4.621 -0.9305 -0.6251 -0.1241
13410SOL    HW141064   4.736   7.552   4.572 -1.2317  1.1971  0.2856
13410SOL    HW241065   4.692   7.476   4.695 -0.0087  1.0231  0.6263
13411SOL     OW41066   6.746   2.538   1.958  0.0245 -0.3273 -0.5564
13411SOL    HW141067   6.790   2.470   1.906  0.1113 -0.2225 -0.6210
13411SOL    HW241068   6.817   2.595   1.987  0.0774 -0.8366  0.3593
13412SOL     OW41069   0.878   6.587   7.161  0.1502 -0.1748  0.4286
13412SOL    HW141070   0.884   6.491   7.154  0.0907 -0.1919  0.6159
13412SOL    HW241071   0.793   6.608   7.121 -0.4319 -0.3248  1.5334
13413SOL     OW41072   3.291   0.333   6.967 -0.4210  0.2561  0.2998
13413SOL    HW141073   3.315   0.329   6.875 -1.3268  0.8072  0.0346
13413SOL    HW241074   3.307   0.424   6.993  0.3501 -0.0145  0.8483
13414SOL     OW41075   5.533   4.416   6.470  0.1271 -0.6057 -0.5623
13414SOL    HW141076   5.449   4.387   6.506  0.1211 -2.1906 -1.7045
13414SOL    HW241077   5.524   4.510   6.460 -1.7622 -0.8060 -1.1953
13415SOL     OW41078   7.188   0.193   4.111  0.0475  0.2155 -0.1558
13415SOL    HW141079   7.175   0.158   4.199  0.5791 -1.0512 -0.5546
13415SOL    HW241080   7.279   0.223   4.110  0.1046  0.0396 -0.3330
13416SOL     OW41081   2.632   2.304   6.563  0.1135 -0.3913 -0.2387
13416SOL    HW141082   2.548   2.344   6.544 -0.4692 -0.1249  2.5083
13416SOL    HW241083   2.694   2.377   6.565  0.4241 -0.5619 -2.0430
13417SOL     OW41084   0.774   3.685   1.689  0.1379 -0.1306  0.6591
13417SOL    HW141085   0.775   3.605   1.636 -1.1461 -0.2507  0.7961
13417SOL    HW241086   0.844   3.673   1.753  0.6161 -0.6961  0.0378
13418SOL     OW41087   4.223   5.415   3.310 -0.6622 -0.8281  0.4335
13418SOL    HW141088   4.257   5.498   3.275  1.9173 -1.7142  0.6346
13418SOL    HW241089   4.138   5.404   3.266 -0.4673  1.2580 -0.5985
13419SOL     OW41090   4.564   3.078   3.308  0.2014  0.3729 -0.3600
13419SOL    HW141091   4.560   3.151   3.246  0.4201  0.7835  0.0984
13419SOL    HW241092   4.635   3.102   3.367 -0.0226 -0.0032  0.0615
13420SOL     OW41093   2.516   0.460   3.102  0.2346  0.5462  0.6952
13420SOL    HW141094   2.427   0.444   3.070 -0.2047  1.3482  1.4786
13420SOL    HW241095   2.553   0.523   3.041  0.3907 -0.0371  0.1777
13421SOL     OW41096   7.313   0.525   5.007 -0.5794 -0.2968  0.3524
13421SOL    HW141097   7.253   0.597   5.023 -0.9679 -0.8131  1.3242
13421SOL    HW241098   7.380   0.532   5.076  0.6320  0.4012 -0.8424
13422SOL     OW41099   5.400   6.848   7.168  0.0260  0.0493  0.3335
13422SOL    HW141100   5.447   6.774   7.130  2.0031  0.9199  0.9575
13422SOL    HW241101   5.321   6.810   7.206 -0.2584 -1.3335 -1.5450
13423SOL     OW41102   6.360   6.027   3.631 -0.1676  0.4398 -0.0815
13423SOL    HW141103   6.316   6.106   3.659 -0.0709  0.0968  1.1156
13423SOL    HW241104   6.376   5.978   3.712  0.2759 -0.5384 -0.7294
13424SOL     OW41105   5.160   5.047   3.803 -0.0690  0.0186 -0.1510
13424SOL    HW141106   5.208   5.006   3.731 -1.0657  0.5822 -1.1798
13424SOL    HW241107   5.227   5.085   3.859  0.7249 -0.1558 -0.9715
13425SOL     OW41108   2.183   3.296   4.883  0.1400  0.4539  0.3081
13425SOL    HW141109   2.221   3.330   4.801  0.3158 -1.6260 -0.5225
13425SOL    HW241110   2.101   3.344   4.892 -0.6343 -0.3016 -1.9392
13426SOL     OW41111   0.276   4.685   4.945 -0.4077  0.1966  0.1781
13426SOL    HW141112   0.192   4.673   4.991 -1.1093 -0.8836 -1.3033
13426SOL    HW241113   0.274   4.775   4.914 -1.6417 -0.1916 -0.9552
13427SOL     OW41114   4.038   0.465   1.893  0.3829  0.3787 -0.1967
13427SOL    HW141115   3.984   0.389   1.916  0.5207  0.6096  0.9354
13427SOL    HW241116   3.976   0.536   1.882  0.3475  0.3684 -0.0707
13428SOL     OW41117   6.184   7.411   1.062 -0.0246  0.2202  0.6384
13428SOL    HW141118   6.117   7.361   1.017  0.0091  1.1485 -0.4879
13428SOL    HW241119   6.237   7.449   0.992  2.5486 -1.5707  1.4764
13429SOL     OW41120   1.179   5.913   0.621 -0.1032  0.5273 -0.6199
13429SOL    HW141121   1.255   5.917   0.563  0.2961  1.3820 -0.0561
13429SOL    HW241122   1.208   5.858   0.694 -0.1172  0.6305 -0.5365
13430SOL     OW41123   3.803   1.550   0.240  0.4918  1.0608 -0.3244
13430SOL    HW141124   3.729   1.571   0.297  0.9256  0.9786  0.2708
13430SOL    HW241125   3.778   1.468   0.197  0.9905  0.0500  1.2390
13431SOL     OW41126   6.693   6.238   4.123  0.2086 -0.2305  0.6747
13431SOL    HW141127   6.644   6.157   4.110  0.0857  0.0057 -0.3495
13431SOL    HW241128   6.639   6.306   4.084  1.5259 -0.0236 -0.8595
13432SOL     OW41129   3.811   6.903   2.886  0.2302  0.0946 -0.0476
13432SOL    HW141130   3.826   6.863   2.971 -0.0775 -0.6257 -0.3208
13432SOL    HW241131   3.895   6.944   2.863  0.2840  0.3824  0.6377
13433SOL     OW41132   3.272   5.798   3.928 -0.4182  0.2173  0.7190
13433SOL    HW141133   3.178   5.782   3.940 -1.1001  2.0478 -1.5269
13433SOL    HW241134   3.291   5.767   3.839  0.5280  1.9794  0.2580
13434SOL     OW41135   5.444   3.634   3.505 -0.3010 -0.5193  0.4022
13434SOL    HW141136   5.499   3.641   3.584 -0.4118  1.3826  0.3677
13434SOL    HW241137   5.506   3.637   3.432 -0.3315 -0.2617  0.3874
13435SOL     OW41138   5.404   6.960   5.118  0.1569  0.0910  0.0875
13435SOL    HW141139   5.406   6.866   5.137 -0.2735 -0.0278 -0.4555
13435SOL    HW241140   5.491   6.979   5.082 -1.0261 -0.9549 -3.7938
13436SOL     OW41141   0.566   5.522   1.238  0.1308  0.3282 -0.0964
13436SOL    HW141142   0.649   5.548   1.198 -0.7231  0.7535 -1.6760
13436SOL    HW241143   0.514   5.487   1.166 -0.9830 -0.1506  0.9036
13437SOL     OW41144   5.232   2.540   5.964  0.3006  0.0910 -0.5458
13437SOL    HW141145   5.309   2.585   5.999  0.7111 -0.0800 -1.2249
13437SOL    HW241146   5.237   2.452   6.001  0.0428  0.2886 -0.0261
13438SOL     OW41147   6.150   4.696   1.312 -0.1077  0.1415 -0.0816
13438SOL    HW141148   6.096   4.663   1.384  0.0887 -0.6861 -0.3049
13438SOL    HW241149   6.088   4.707   1.239 -0.2544  0.7156  0.1204
13439SOL     OW41150   1.520   7.126   1.024 -0.2207 -0.0149  0.2774
13439SOL    HW141151   1.530   7.218   1.000 -2.4371  0.2180  0.0701
13439SOL    HW241152   1.597   7.083   0.986  1.3171  1.8458  1.1390
13440SOL     OW41153   7.755   4.830   7.018  0.5556  0.2941  0.9172
13440SOL    HW141154   7.839   4.824   7.064  0.4793 -1.9923  0.8661
13440SOL    HW241155   7.735   4.739   6.994 -1.4137  0.9396 -0.0118
13441SOL     OW41156   6.455   6.480   1.476  0.3494  0.2382  0.1537
13441SOL    HW141157   6.495   6.539   1.412 -1.4162  0.1373 -1.1012
13441SOL    HW241158   6.404   6.538   1.533  0.0843  0.0987  0.0568
13442SOL     OW41159   2.209   1.952   6.707 -0.6127  0.5131  0.0927
13442SOL    HW141160   2.217   2.045   6.727  1.0977  0.5138 -0.4948
13442SOL    HW241161   2.298   1.919   6.708 -1.2123 -1.2170  0.6385
13443SOL     OW41162   3.714   2.628   3.658  0.2434  0.7938  0.1605
13443SOL    HW141163   3.806   2.645   3.641  0.2321 -0.6930 -1.5906
13443SOL    HW241164   3.668   2.696   3.609  0.3135 -1.8102 -3.9641
13444SOL     OW41165   2.705   2.631   5.026  0.2097  0.0265  0.3806
13444SOL    HW141166   2.696   2.536   5.035  0.0774 -0.0942 -0.8412
13444SOL    HW241167   2.768   2.642   4.955 -1.4888  0.8192 -1.0705
13445SOL     OW41168   3.706   2.023   7.812 -0.0441 -0.3049  0.7675
13445SOL    HW141169   3.644   2.034   7.740 -0.1079 -0.4832  0.7966
13445SOL    HW241170   3.661   2.058   7.889 -0.5271 -1.4148  1.0051
13446SOL     OW41171   7.247   3.846   2.347 -0.3880 -0.2265 -0.2234
13446SOL    HW141172   7.318   3.792   2.314 -0.6692 -1.0352  0.4774
13446SOL    HW241173   7.197   3.789   2.405 -0.9200  0.6649  0.2281
13447SOL     OW41174   1.074   1.359   5.989 -0.1534  0.3682 -0.1856
13447SOL    HW141175   1.152   1.371   5.935  1.0463 -1.2980  1.0378
13447SOL    HW241176   1.043   1.447   6.008  1.4954  1.0751 -0.6589
13448SOL     OW41177   1.120   3.420   4.342  0.3200 -0.3156 -0.0218
13448SOL    HW141178   1.147   3.462   4.424  0.7663 -0.9551  0.1694
13448SOL    HW241179   1.181   3.346   4.332  1.2392  0.6052 -1.6951
13449SOL     OW41180   5.910   7.341   5.822  0.6069  0.3826  0.4811
13449SOL    HW141181   6.005   7.350   5.833  0.7345 -0.3104  0.0023
13449SOL    HW241182   5.883   7.423   5.780  1.1165  0.2653 -0.0887
13450SOL     OW41183   6.759   4.669   6.200  0.0174 -0.2772  0.3621
13450SOL    HW141184   6.818   4.594   6.192  0.4510 -0.0796  1.5540
13450SOL    HW241185   6.796   4.722   6.270 -0.6451  0.7296 -0.0207
13451SOL     OW41186   6.797   6.697   2.586  0.2620  0.8593  0.2983
13451SOL    HW141187   6.823   6.627   2.646 -2.0548 -0.1942  0.1755
13451SOL    HW241188   6.840   6.775   2.621 -0.7264  0.2409  3.2381
13452SOL     OW41189   3.610   7.896   1.434 -0.1289 -0.0034 -0.3461
13452SOL    HW141190   3.644   7.807   1.425  0.3145  0.0364  0.7641
13452SOL    HW241191   3.678   7.944   1.481  0.2184  1.2964 -2.0487
13453SOL     OW41192   1.775   7.540   5.055  0.3093 -0.4992 -0.1289
13453SOL    HW141193   1.867   7.555   5.076  0.5987 -0.5336 -1.3002
13453SOL    HW241194   1.726   7.585   5.124  1.1963  0.7348 -0.2815
13454SOL     OW41195   2.515   6.178   2.206  0.1463  0.1028 -0.1232
13454SOL    HW141196   2.458   6.183   2.129  1.3372  0.9221 -0.9873
13454SOL    HW241197   2.565   6.097   2.193 -1.0578 -0.8484  0.8519
13455SOL     OW41198   4.918   5.482   1.080  0.3555 -0.6166  0.2424
13455SOL    HW141199   4.870   5.479   1.163  1.1032 -0.1588  0.6993
13455SOL    HW241200   4.874   5.551   1.029 -0.3674 -1.1848  0.0815
13456SOL     OW41201   2.207   6.930   0.003  0.8997 -0.1258  0.6130
13456SOL    HW141202   2.232   6.908  -0.087  1.0162  1.2741  0.2798
13456SOL    HW241203   2.170   6.849   0.038 -2.0595  0.0602 -1.7075
13457SOL     OW41204   6.014   1.828   1.283 -0.1778 -0.4020 -0.2051
13457SOL    HW141205   6.001   1.740   1.319 -2.5169  0.2716  0.7760
13457SOL    HW241206   6.086   1.818   1.221  1.6578 -2.3749  2.0408
13458SOL     OW41207   1.697   3.312   2.451 -0.2534 -0.0131  0.4068
13458SOL    HW141208   1.645   3.286   2.375  0.4259 -1.6450  0.4709
13458SOL    HW241209   1.787   3.300   2.424 -0.0048 -0.8508  1.5331
13459SOL     OW41210   3.401   7.730   3.065 -0.1388 -0.3977  0.2664
13459SOL    HW141211   3.430   7.785   3.137  0.0965  2.1126 -1.5983
13459SOL    HW241212   3.311   7.707   3.087  0.4410 -1.0855  2.0910
13460SOL     OW41213   0.809   2.580   2.921 -0.1311 -0.0992  0.8257
13460SOL    HW141214   0.814   2.611   2.830  0.1441  1.1406  1.2472
13460SOL    HW241215   0.733   2.522   2.922  0.3731 -0.8283 -0.3979
13461SOL     OW41216   5.583   7.234   3.263  0.2078 -0.2167 -0.1766
13461SOL    HW141217   5.572   7.199   3.352  1.2967 -0.6636 -0.2015
13461SOL    HW241218   5.671   7.273   3.264  0.2533 -0.2894 -1.0753
13462SOL     OW41219   7.678   0.137   4.140 -0.5724 -0.1564  0.2500
13462SOL    HW141220   7.637   0.190   4.208 -1.1552  2.4648 -1.9750
13462SOL    HW241221   7.605   0.095   4.095 -0.3415 -0.3220  0.0316
13463SOL     OW41222   6.409   3.334   3.551  0.0184  0.0724  0.0409
13463SOL    HW141223   6.335   3.308   3.606  0.0459  1.6645  0.9039
13463SOL    HW241224   6.471   3.262   3.559 -0.1166  0.1079  1.8984
13464SOL     OW41225   2.897   7.440   6.190  0.0515 -0.4692 -0.0353
13464SOL    HW141226   2.938   7.450   6.104  0.9220 -0.9747  0.3139
13464SOL    HW241227   2.832   7.371   6.178  2.1507 -2.6274  0.3681
13465SOL     OW41228   0.157   3.928   1.210  0.5515 -0.5766  0.2574
13465SOL    HW141229   0.099   3.857   1.181 -0.8276  0.7916 -0.4948
13465SOL    HW241230   0.219   3.939   1.138 -0.1713 -0.0585 -0.3064
13466SOL     OW41231   0.750   4.496   6.410 -0.4113 -0.5842  0.1482
13466SOL    HW141232   0.705   4.549   6.344 -0.0832 -1.6830 -0.9999
13466SOL    HW241233   0.841   4.492   6.379 -0.3750 -1.5854  0.3571
13467SOL     OW41234   5.133   0.551   6.048  0.3775 -0.0040 -0.5923
13467SOL    HW141235   5.099   0.634   6.082 -0.4761 -0.5346 -0.1122
13467SOL    HW241236   5.200   0.525   6.111 -0.1648 -0.2447 -0.1033
13468SOL     OW41237   1.755   4.540   2.153 -0.4322  0.3919 -0.2782
13468SOL    HW141238   1.778   4.632   2.169  0.1137  0.4687 -1.3853
13468SOL    HW241239   1.690   4.520   2.220  0.3145  1.2243  0.7317
13469SOL     OW41240   6.463   3.559   7.146 -0.3730 -0.1291  0.4199
13469SOL    HW141241   6.521   3.635   7.152 -1.2937  0.6684 -0.2462
13469SOL    HW241242   6.514   3.492   7.100  0.5243  0.0053  1.2060
13470SOL     OW41243   3.798   3.276   0.511  1.0179  0.3210 -0.4210
13470SOL    HW141244   3.796   3.294   0.605 -0.4498  0.6651 -0.5056
13470SOL    HW241245   3.859   3.203   0.502 -0.2771 -0.9905  1.0246
13471SOL     OW41246   5.333   4.598   3.748 -0.3947 -0.4552  0.2213
13471SOL    HW141247   5.358   4.603   3.656 -3.4705 -2.5241 -0.8552
13471SOL    HW241248   5.385   4.524   3.782  0.0240 -0.3105 -0.0860
13472SOL     OW41249   5.825   2.101   1.102  0.0999 -0.4542  0.1818
13472SOL    HW141250   5.847   2.009   1.083 -2.8074 -1.0201 -0.9057
13472SOL    HW241251   5.874   2.150   1.035  0.4460 -1.3360 -0.2419
13473SOL     OW41252   6.443   3.111   4.907 -0.4823 -0.5884  0.5751
13473SOL    HW141253   6.358   3.067   4.906 -2.0322  2.1764 -1.0871
13473SOL    HW241254   6.470   3.109   4.998 -1.0711 -3.6386  0.8007
13474SOL     OW41255   5.918   7.917   2.366  0.4085 -0.1726 -0.4715
13474SOL    HW141256   5.861   7.883   2.297 -0.8428 -0.1223  0.5213
13474SOL    HW241257   5.893   7.869   2.445 -0.6517  2.1957  0.7333
13475SOL     OW41258   6.845   0.827   2.051 -0.0967  0.0551  0.7653
13475SOL    HW141259   6.929   0.782   2.045 -0.6323 -0.7983 -2.5360
13475SOL    HW241260   6.787   0.764   2.094  0.0852 -0.9239 -0.3809
13476SOL     OW41261   3.731   4.353   1.739 -0.8279 -0.2215 -0.2275
13476SOL    HW141262   3.680   4.427   1.774 -0.4115 -0.0080 -0.0722
13476SOL    HW241263   3.665   4.296   1.700 -1.1254  0.4162 -0.6903
13477SOL     OW41264   1.313   5.917   1.883 -0.6173 -0.0114 -0.0076
13477SOL    HW141265   1.267   5.844   1.843  2.1775 -2.1736  0.4211
13477SOL    HW241266   1.267   5.932   1.966 -0.1580 -2.6699  0.8327
13478SOL     OW41267   2.113   3.183   0.905 -0.3111  0.0517  0.5553
13478SOL    HW141268   2.169   3.113   0.871  0.4352  1.1933 -0.6618
13478SOL    HW241269   2.040   3.188   0.843 -0.5487  0.1177  0.8371
13479SOL     OW41270   5.045   1.928   3.857  0.0314  0.3024 -0.1668
13479SOL    HW141271   4.980   1.939   3.788  0.4508  2.3044 -0.2893
13479SOL    HW241272   5.007   1.862   3.915 -1.8185  0.9464 -0.5760
13480SOL     OW41273   4.576   3.228   6.910 -0.1823  0.0849 -0.0174
13480SOL    HW141274   4.656   3.181   6.887 -0.7796 -1.6445  1.1834
13480SOL    HW241275   4.545   3.265   6.827  0.2239 -1.8635 -1.0950
13481SOL     OW41276   7.790   4.392   2.033 -0.2562  0.0576  0.2656
13481SOL    HW141277   7.874   4.437   2.038 -0.0317 -0.3589  0.3084
13481SOL    HW241278   7.770   4.369   2.123 -0.2672 -0.1129  0.2196
13482SOL     OW41279   4.347   5.198   2.006  0.0110  0.4563  0.1445
13482SOL    HW141280   4.309   5.179   2.092  0.0141 -1.5847 -0.2526
13482SOL    HW241281   4.279   5.247   1.961  0.3446  2.3604  1.5642
13483SOL     OW41282   7.272   2.935   4.075  0.7049  0.6201 -0.1781
13483SOL    HW141283   7.212   2.985   4.129 -1.2762 -0.6815 -1.0625
13483SOL    HW241284   7.235   2.847   4.073  1.3440  0.3334 -2.6500
13484SOL     OW41285   0.106   2.109   5.792  0.1697 -0.4089 -0.0383
13484SOL    HW141286   0.055   2.150   5.722  2.5677  0.7435 -1.2579
13484SOL    HW241287   0.073   2.020   5.797 -4.0293  0.9751  1.4497
13485SOL     OW41288   4.665   2.742   4.297  0.2662 -0.5102 -0.2585
13485SOL    HW141289   4.684   2.766   4.387 -0.8042  1.5166 -0.5157
13485SOL    HW241290   4.584   2.691   4.302 -1.7242  2.4062 -0.2394
13486SOL     OW41291   0.344   1.199   7.063  0.1894 -0.0773 -0.6232
13486SOL    HW141292   0.417   1.187   7.124 -0.0238  1.2698 -0.0735
13486SOL    HW241293   0.295   1.117   7.069  0.1828  0.0132  1.0321
13487SOL     OW41294   1.533   0.676   2.972 -0.6132 -0.3238  0.1451
13487SOL    HW141295   1.622   0.696   3.002 -0.5794 -0.4675  0.1407
13487SOL    HW241296   1.536   0.584   2.944 -1.2665 -1.0201  2.1585
13488SOL     OW41297   3.811   4.453   5.224  0.3748 -0.6857 -0.5711
13488SOL    HW141298   3.904   4.473   5.214  0.2218  0.4936  0.1786
13488SOL    HW241299   3.772   4.479   5.141  0.2565  1.8772  0.1852
13489SOL     OW41300   4.034   2.086   4.501  0.6771  0.2150 -0.0138
13489SOL    HW141301   4.072   2.111   4.585 -0.6514  0.2704  0.5946
13489SOL    HW241302   3.948   2.128   4.500 -0.4433 -1.9061 -0.2065
13490SOL     OW41303   5.059   1.444   5.457 -0.0879  0.3938  1.1369
13490SOL    HW141304   5.072   1.434   5.552  0.5620 -0.7630  0.9405
13490SOL    HW241305   5.076   1.357   5.421 -0.0893  0.8786 -0.0801
13491SOL     OW41306   7.476   5.499   3.623 -0.0463  0.2913  0.0826
13491SOL    HW141307   7.479   5.588   3.588  0.9088 -0.2763 -1.3345
13491SOL    HW241308   7.550   5.495   3.684 -1.4410  1.1338  1.9519
13492SOL     OW41309   1.326   5.169   5.911 -0.4175  0.5245  0.0417
13492SOL    HW141310   1.245   5.121   5.892 -0.2580 -0.3484  1.4272
13492SOL    HW241311   1.311   5.209   5.996  0.7918 -0.1278  0.5986
13493SOL     OW41312   7.426   5.413   0.285  0.1205 -0.1234  0.1832
13493SOL    HW141313   7.439   5.450   0.197 -2.0469  1.2293  0.3703
13493SOL    HW241314   7.365   5.473   0.328  1.2310 -0.6744  2.7027
13494SOL     OW41315   4.895   5.385   5.578  0.3685  0.3569 -0.1215
13494SOL    HW141316   4.805   5.370   5.550  0.9142 -1.9641 -0.8847
13494SOL    HW241317   4.907   5.326   5.653  1.1157  0.9751  0.2589
13495SOL     OW41318   5.584   4.452   2.731 -0.8051 -0.3535  0.2815
13495SOL    HW141319   5.591   4.390   2.804 -2.9646 -0.3775  0.5122
13495SOL    HW241320   5.574   4.537   2.773 -0.9104 -0.2254 -0.0007
13496SOL     OW41321   1.205   5.487   0.210 -0.1570  0.7410 -0.0907
13496SOL    HW141322   1.119   5.516   0.239 -0.4070 -0.7067  0.7240
13496SOL    HW241323   1.266   5.551   0.248 -0.9217  3.0379 -2.4171
13497SOL     OW41324   2.725   0.724   0.199 -0.2008 -0.1048 -1.2359
13497SOL    HW141325   2.698   0.680   0.118  1.3529 -2.0418 -0.7878
13497SOL    HW241326   2.815   0.695   0.213 -0.9654 -1.2997  2.1103
13498SOL     OW41327   2.750   7.322   4.410  0.1104 -0.2669  0.5116
13498SOL    HW141328   2.670   7.292   4.367  0.6390 -0.1850 -0.5648
13498SOL    HW241329   2.726   7.407   4.447 -0.3765 -0.3567  0.4161
13499SOL     OW41330   4.736   6.666   2.558 -0.3654 -0.2996  0.1564
13499SOL    HW141331   4.819   6.709   2.539  0.2269  0.7880  4.2006
13499SOL    HW241332   4.673   6.709   2.499  1.5089  0.4508 -1.4119
13500SOL     OW41333   3.510   6.227   3.028  0.5229  0.0897 -0.0111
13500SOL    HW141334   3.531   6.188   3.112 -0.2627 -1.7730 -0.6258
13500SOL    HW241335   3.440   6.172   2.993 -0.8087  2.2215 -0.8581
13501SOL     OW41336   0.539   4.634   5.278  0.5429 -0.3806  0.2674
13501SOL    HW141337   0.511   4.632   5.187  0.0289  0.7162  0.3953
13501SOL    HW241338   0.463   4.603   5.328  0.9044 -1.2239  0.3264
13502SOL     OW41339   1.984   3.358   7.093  0.1959  0.5648  0.1281
13502SOL    HW141340   1.940   3.333   7.174 -0.4005  0.0124 -0.3598
13502SOL    HW241341   2.000   3.452   7.103  1.9921  0.1543  1.7584
13503SOL     OW41342   0.214   3.446   2.849 -0.1596 -0.2649  0.1917
13503SOL    HW141343   0.120   3.433   2.835  0.1448 -1.1019 -1.2755
13503SOL    HW241344   0.244   3.363   2.887  0.0959 -0.2327  0.0611
13504SOL     OW41345   4.458   2.233   1.390  0.1276  0.4215  0.6214
13504SOL    HW141346   4.397   2.272   1.328  0.6193  1.6021  0.8483
13504SOL    HW241347   4.434   2.140   1.393 -0.1597  0.4226 -1.0133
13505SOL     OW41348   0.740   4.431   2.394  0.1211 -0.6540 -0.4092
13505SOL    HW141349   0.728   4.492   2.321 -1.5229  1.6194  1.5991
13505SOL    HW241350   0.654   4.391   2.405 -0.3461  0.8126  1.6954
13506SOL     OW41351   2.808   1.839   3.127  0.0505 -0.1125 -0.2031
13506SOL    HW141352   2.787   1.872   3.039  0.0634 -0.0440 -0.1805
13506SOL    HW241353   2.835   1.917   3.176 -0.8765  0.0102  0.1343
13507SOL     OW41354   0.319   6.764   6.534  0.0700 -0.0929 -0.7525
13507SOL    HW141355   0.231   6.801   6.525 -0.4014 -1.0116 -0.0447
13507SOL    HW241356   0.310   6.695   6.600  1.6942  1.0215  0.7280
13508SOL     OW41357   6.583   7.176   3.500 -0.4399 -0.2504 -0.1680
13508SOL    HW141358   6.658   7.122   3.524  0.3022  0.9591  0.3466
13508SOL    HW241359   6.591   7.255   3.555 -1.7524  0.1770 -0.5356
13509SOL     OW41360   6.710   7.093   4.454  0.8678 -1.0903  0.3868
13509SOL    HW141361   6.756   7.024   4.405  0.6031 -0.8750 -0.1818
13509SOL    HW241362   6.636   7.048   4.494  1.2884 -1.3394  0.8906
13510SOL     OW41363   2.270   6.831   7.698  0.6085  0.7311 -0.0350
13510SOL    HW141364   2.342   6.883   7.662  1.9910 -1.8407 -1.2480
13510SOL    HW241365   2.211   6.817   7.624  1.2619 -1.0059 -0.2653
13511SOL     OW41366   5.732   6.635   5.202  0.2775 -0.5950 -0.1604
13511SOL    HW141367   5.768   6.668   5.120  0.7718 -0.1129  0.2472
13511SOL    HW241368   5.727   6.712   5.259 -1.4607 -0.6236 -0.2230
13512SOL     OW41369   2.101   2.810   3.241  0.0037  0.2346  0.1626
13512SOL    HW141370   2.193   2.782   3.241 -0.5597 -1.8264  0.3330
13512SOL    HW241371   2.074   2.804   3.332 -0.4903  0.1125  0.0109
13513SOL     OW41372   3.041   4.858   2.533  0.4141 -0.3118  0.4183
13513SOL    HW141373   3.015   4.798   2.463  1.3656 -0.5552  0.2615
13513SOL    HW241374   3.079   4.933   2.488  0.6024 -0.2573  0.6654
13514SOL     OW41375   7.858   3.668   4.116 -0.1027 -0.3450  0.0999
13514SOL    HW141376   7.933   3.728   4.114 -0.1571 -0.2761 -1.6168
13514SOL    HW241377   7.835   3.656   4.024 -0.9613 -1.9316  0.4847
13515SOL     OW41378   5.485   3.163   2.007  0.5759  0.0123  0.1156
13515SOL    HW141379   5.452   3.097   2.067  0.2847 -0.9511 -1.0802
13515SOL    HW241380   5.559   3.122   1.963  1.3404  1.0117  0.4192
13516SOL     OW41381   5.480   0.488   3.294  0.0686  0.3916  0.1754
13516SOL    HW141382   5.477   0.433   3.372 -0.1640 -0.0488 -0.1415
13516SOL    HW241383   5.420   0.446   3.232  0.0169  0.9042 -0.1319
13517SOL     OW41384   4.251   3.185   0.348  0.2480 -0.6717  0.1993
13517SOL    HW141385   4.313   3.232   0.404  2.0914 -1.9041 -0.7440
13517SOL    HW241386   4.173   3.241   0.348  1.7062  1.4861  0.5336
13518SOL     OW41387   4.802   7.800   3.404 -0.5924 -0.4486  0.4404
13518SOL    HW141388   4.755   7.873   3.443 -0.4241 -0.4035  0.5593
13518SOL    HW241389   4.804   7.820   3.310 -1.7808 -1.0009  0.2765
13519SOL     OW41390   1.228   6.249   1.179 -0.4183 -0.2545  0.1621
13519SOL    HW141391   1.246   6.264   1.272  1.0897  0.5131 -0.2218
13519SOL    HW241392   1.290   6.306   1.133 -1.1076 -0.6518 -1.3215
13520SOL     OW41393   5.378   0.789   4.072 -0.5254 -0.2474 -0.4198
13520SOL    HW141394   5.393   0.883   4.076 -0.4199 -0.2765 -0.0552
13520SOL    HW241395   5.438   0.752   4.138  0.2252 -0.6698 -1.3046
13521SOL     OW41396   5.892   7.437   1.402  0.0356  0.0954 -0.3924
13521SOL    HW141397   5.823   7.446   1.337  1.3792  0.7190 -1.7773
13521SOL    HW241398   5.960   7.386   1.358  2.2970  3.0813 -0.6599
13522SOL     OW41399   3.423   3.563   1.830 -0.2316  0.2149 -0.5228
13522SOL    HW141400   3.340   3.546   1.786  0.1400 -1.0557 -0.7698
13522SOL    HW241401   3.490   3.541   1.765  0.3234  1.6650 -0.4882
13523SOL     OW41402   6.303   7.558   2.087 -0.1868  0.4472 -0.1483
13523SOL    HW141403   6.397   7.543   2.073  0.2228  0.3322  2.2810
13523SOL    HW241404   6.260   7.487   2.039  0.9439  0.4027 -1.1653
13524SOL     OW41405   1.775   1.363   0.803  0.2682 -0.4551  0.2718
13524SOL    HW141406   1.787   1.379   0.709 -1.9019  2.0170  0.3254
13524SOL    HW241407   1.777   1.268   0.811  2.4389 -0.7047 -1.9389
13525SOL     OW41408   4.634   5.830   6.027 -0.2346  0.2274  0.0318
13525SOL    HW141409   4.714   5.881   6.042  0.9525 -1.1428 -1.3173
13525SOL    HW241410   4.646   5.751   6.078 -0.3370 -0.3538 -0.8251
13526SOL     OW41411   2.146   5.026   4.301 -0.1254  0.3404  0.1096
13526SOL    HW141412   2.145   4.946   4.249 -0.5127 -0.1101  0.7869
13526SOL    HW241413   2.228   5.069   4.278 -0.2319  0.0944 -0.7707
13527SOL     OW41414   7.622   0.453   7.314 -0.3733  0.1569 -0.1594
13527SOL    HW141415   7.567   0.397   7.369  0.7775 -1.0459 -0.1768
13527SOL    HW241416   7.661   0.516   7.374  1.9528 -1.9786  0.7657
13528SOL     OW41417   6.544   1.200   2.469 -0.2691  0.0338  0.0977
13528SOL    HW141418   6.613   1.211   2.535  0.2216 -2.6956  0.1601
13528SOL    HW241419   6.463   1.220   2.516  0.3174  1.7796  0.4511
13529SOL     OW41420   1.314   3.534   0.777  0.0413 -0.0479 -0.4465
13529SOL    HW141421   1.303   3.589   0.700  0.3229  0.5705 -0.0535
13529SOL    HW241422   1.242   3.558   0.835  0.7018  0.6043  0.1258
13530SOL     OW41423   4.730   4.948   7.068  0.5022 -0.4346  0.6575
13530SOL    HW141424   4.777   4.887   7.124 -0.6680 -0.2965  1.8233
13530SOL    HW241425   4.646   4.962   7.112  0.0653  0.6814 -0.4683
13531SOL     OW41426   7.881   0.776   6.673  0.1450 -0.1340 -0.3510
13531SOL    HW141427   7.880   0.771   6.769  0.0802 -1.2475 -0.4026
13531SOL    HW241428   7.960   0.826   6.653  0.2719 -0.0737  0.2723
13532SOL     OW41429   6.415   4.495   6.162 -0.2071  0.2461  0.7056
13532SOL    HW141430   6.342   4.450   6.120  1.2174 -0.5602 -1.0176
13532SOL    HW241431   6.493   4.458   6.121  1.1365  2.1486  1.4164
13533SOL     OW41432   1.910   1.521   7.781 -0.5647 -0.1539 -0.4234
13533SOL    HW141433   1.968   1.572   7.725 -1.2023  1.8350  0.6329
13533SOL    HW241434   1.822   1.555   7.763 -0.7919  0.5260  1.6980
13534SOL     OW41435   7.030   5.341   3.373  0.1711 -0.0205  0.4063
13534SOL    HW141436   6.976   5.278   3.420  0.8346 -0.1218  1.0600
13534SOL    HW241437   7.065   5.398   3.442 -0.1651  0.8690 -0.1397
13535SOL     OW41438   5.734   5.070   1.191  1.1781  0.0505  0.2617
13535SOL    HW141439   5.721   5.149   1.243  0.7495 -0.1066  0.3990
13535SOL    HW241440   5.664   5.011   1.219  1.8062 -0.5817  0.5316
13536SOL     OW41441   0.044   7.585   1.440  0.1460  0.6466 -0.3509
13536SOL    HW141442   0.078   7.654   1.496  0.7624  0.0079  0.0812
13536SOL    HW241443   0.115   7.567   1.378  0.3100 -0.1323  0.0437
13537SOL     OW41444   5.287   0.708   1.276 -0.4948  0.6452  0.1963
13537SOL    HW141445   5.377   0.705   1.244 -0.5706  2.8994 -0.3733
13537SOL    HW241446   5.234   0.674   1.203 -0.2569  1.0682 -0.1722
13538SOL     OW41447   6.027   2.998   7.521 -0.8817  0.3276 -0.2626
13538SOL    HW141448   6.086   2.926   7.541 -1.8455 -1.0885 -2.2192
13538SOL    HW241449   5.943   2.972   7.559 -2.1914 -1.4348 -3.9335
13539SOL     OW41450   0.284   7.598   4.179  0.5165  0.3300 -0.0557
13539SOL    HW141451   0.326   7.683   4.167 -0.3089  1.1620  2.2901
13539SOL    HW241452   0.215   7.615   4.243 -0.5141 -1.8724 -0.5005
13540SOL     OW41453   2.052   3.562   0.581 -0.0869  1.0181 -0.0305
13540SOL    HW141454   2.001   3.504   0.524  1.1297 -0.3519  0.1963
13540SOL    HW241455   1.989   3.597   0.643 -1.2282  1.5741 -1.4491
13541SOL     OW41456   4.079   4.583   1.281  0.5517 -0.2177 -0.3045
13541SOL    HW141457   4.063   4.577   1.375 -1.1688  0.0439 -0.5534
13541SOL    HW241458   3.992   4.581   1.241  1.2423 -0.2496 -1.8944
13542SOL     OW41459   3.253   5.128   4.744 -0.7899 -0.0244  0.0410
13542SOL    HW141460   3.273   5.046   4.790  2.6657  0.6183 -0.0053
13542SOL    HW241461   3.258   5.195   4.811 -0.0744  0.4725 -0.4935
13543SOL     OW41462   2.331   6.318   2.558  0.3553 -0.4671 -0.0554
13543SOL    HW141463   2.278   6.245   2.591  1.4419 -0.3707  2.0936
13543SOL    HW241464   2.382   6.347   2.634  2.4749  0.3222 -1.6703
13544SOL     OW41465   3.959   5.538   2.246 -0.5361 -0.7347 -0.4466
13544SOL    HW141466   3.936   5.622   2.286  1.0293 -0.3931 -0.1703
13544SOL    HW241467   3.989   5.562   2.158  0.0413 -0.9677 -0.3212
13545SOL     OW41468   1.610   4.239   2.973 -0.0800  0.2669 -0.0718
13545SOL    HW141469   1.612   4.143   2.972 -1.2681  0.2156  0.4067
13545SOL    HW241470   1.517   4.260   2.974  0.1595  1.4578 -1.1953
13546SOL     OW41471   5.923   4.059   1.890 -0.0653 -0.0211  0.3700
13546SOL    HW141472   6.018   4.070   1.896  0.0096 -0.7933  0.7381
13546SOL    HW241473   5.887   4.144   1.917  0.5145  0.0837  0.8294
13547SOL     OW41474   3.160   5.423   7.937  0.2067  0.4352 -0.3612
13547SOL    HW141475   3.249   5.411   7.902  0.1813 -1.5639  0.1321
13547SOL    HW241476   3.105   5.433   7.859  0.6116 -0.4286 -0.7776
13548SOL     OW41477   1.025   0.007   4.035  0.1698 -0.0876  0.1523
13548SOL    HW141478   1.096  -0.050   4.063  1.6425  0.5602 -2.0276
13548SOL    HW241479   0.973  -0.047   3.975  0.8094  0.4152 -0.8835
13549SOL     OW41480   2.671   6.091   0.625 -0.3655  0.2574 -0.3349
13549SOL    HW141481   2.604   6.025   0.644  0.8193 -0.9481 -0.1694
13549SOL    HW241482   2.685   6.136   0.708 -1.5714  1.1472 -0.5757
13550SOL     OW41483   5.997   1.513   6.388  0.0333 -0.1363  0.4734
13550SOL    HW141484   6.054   1.535   6.314  0.8750 -1.5936  0.6481
13550SOL    HW241485   5.920   1.473   6.349  0.6107 -1.1878  0.3527
13551SOL     OW41486   0.231   4.560   7.823 -0.4916 -0.4382  0.9113
13551SOL    HW141487   0.153   4.506   7.808 -0.3105 -1.3563  2.8503
13551SOL    HW241488   0.304   4.500   7.810  0.0398  0.7498 -2.2371
13552SOL     OW41489   7.708   5.735   2.809  0.0312  0.1190 -0.5259
13552SOL    HW141490   7.672   5.715   2.723  0.6346 -1.3642 -0.4737
13552SOL    HW241491   7.646   5.796   2.849 -0.3338  0.6929 -1.9375
13553SOL     OW41492   2.668   0.452   6.939 -0.0460  0.3389  0.0925
13553SOL    HW141493   2.692   0.473   7.030  0.1875  1.7011 -0.2638
13553SOL    HW241494   2.580   0.414   6.947 -0.1213  0.6409  0.8796
13554SOL     OW41495   5.150   3.868   2.436  0.7901 -0.4592 -0.1558
13554SOL    HW141496   5.125   3.775   2.432  0.1352 -0.3113  0.2156
13554SOL    HW241497   5.109   3.907   2.359  2.5128 -0.7805 -1.2902
13555SOL     OW41498   3.501   1.673   1.420  0.8031 -0.3612  0.4067
13555SOL    HW141499   3.511   1.589   1.377 -1.0907 -0.2733 -0.2952
13555SOL    HW241500   3.587   1.692   1.456  1.9483 -1.3389 -1.6873
13556SOL     OW41501   0.714   3.669   3.389  0.7790  0.1951 -0.7291
13556SOL    HW141502   0.713   3.670   3.485  1.7715  0.4012 -0.7107
13556SOL    HW241503   0.636   3.718   3.364  0.5236  0.1612 -0.0277
13557SOL     OW41504   1.429   5.347   5.016  0.0253  0.3775 -0.9227
13557SOL    HW141505   1.411   5.441   5.016  0.1294  0.4130 -2.3411
13557SOL    HW241506   1.372   5.311   5.084  0.1184  1.4832 -0.2387
13558SOL     OW41507   7.278   1.196   0.086  0.6239 -0.0972 -0.4052
13558SOL    HW141508   7.288   1.194  -0.009 -1.2499  0.3913 -0.6474
13558SOL    HW241509   7.245   1.110   0.109 -1.6066  0.6499 -0.5920
13559SOL     OW41510   2.990   1.973   5.163  0.0402  0.2563  0.1709
13559SOL    HW141511   2.926   1.907   5.133  1.4740 -1.5126  0.8255
13559SOL    HW241512   2.937   2.051   5.181 -2.0920 -1.4031  1.5719
13560SOL     OW41513   7.904   5.435   1.088 -0.1103  0.3489 -0.0973
13560SOL    HW141514   7.862   5.356   1.053 -0.0970  0.4829 -0.4128
13560SOL    HW241515   7.861   5.449   1.172 -0.2206  0.0926 -0.1094
13561SOL     OW41516   7.057   3.831   0.157  0.4632 -0.0243 -0.3216
13561SOL    HW141517   7.064   3.833   0.253  0.5642 -0.7947 -0.3103
13561SOL    HW241518   6.976   3.879   0.138 -0.6721 -1.6011  0.2802
13562SOL     OW41519   6.788   3.006   4.268  0.5741  0.2223 -0.1701
13562SOL    HW141520   6.722   2.955   4.221  2.7294 -0.8999 -2.1959
13562SOL    HW241521   6.738   3.071   4.317 -2.0144 -0.7636 -1.3334
13563SOL     OW41522   7.074   5.550   3.909  0.4826 -0.4300 -0.3871
13563SOL    HW141523   7.034   5.587   3.988  2.1035 -1.5736  1.0301
13563SOL    HW241524   7.000   5.518   3.857 -0.6308  0.5760  0.5316
13564SOL     OW41525   1.467   3.738   1.812  0.2534  0.0282  0.1905
13564SOL    HW141526   1.403   3.735   1.740 -0.0581 -1.0253  0.4965
13564SOL    HW241527   1.435   3.807   1.869  0.0668  0.3398 -0.2811
13565SOL     OW41528   1.138   7.679   0.105 -0.0112  0.3708  0.0449
13565SOL    HW141529   1.069   7.735   0.070  0.8010  1.0835 -0.4653
13565SOL    HW241530   1.094   7.624   0.170 -0.7366  2.0633  1.0606
13566SOL     OW41531   1.401   4.289   0.226  0.0089  0.2466 -0.3921
13566SOL    HW141532   1.497   4.286   0.229  0.0660  1.6126 -0.3161
13566SOL    HW241533   1.375   4.287   0.319  0.1239  2.8805 -0.2339
13567SOL     OW41534   4.870   2.160   2.432  0.1329 -0.0811  0.3590
13567SOL    HW141535   4.854   2.102   2.358  0.0628  1.2257 -0.6858
13567SOL    HW241536   4.887   2.101   2.505  1.1975 -1.4284 -0.9033
13568SOL     OW41537   1.325   5.949   4.606 -0.2918  0.4446  0.1588
13568SOL    HW141538   1.269   6.020   4.575 -0.2966  0.9435  1.2730
13568SOL    HW241539   1.289   5.927   4.692  2.0677  1.7517  1.5781
13569SOL     OW41540   0.513   6.354   7.759  0.1306 -0.2027  0.0041
13569SOL    HW141541   0.528   6.370   7.666  2.0652 -0.3857  0.2312
13569SOL    HW241542   0.477   6.266   7.763  0.5649 -0.4127 -0.5436
13570SOL     OW41543   4.624   7.084   1.435  0.0414 -0.3480  0.0318
13570SOL    HW141544   4.680   7.006   1.438 -1.2868 -1.3361  0.7510
13570SOL    HW241545   4.644   7.131   1.516 -0.1490 -0.6976  0.2862
13571SOL     OW41546   6.430   1.787   4.082  0.7387  0.0819  0.6191
13571SOL    HW141547   6.442   1.864   4.138  1.6664 -0.3764  1.0724
13571SOL    HW241548   6.519   1.760   4.059  0.3954 -0.3356 -0.2597
13572SOL     OW41549   4.731   6.441   3.578  0.6595 -0.3369 -0.1544
13572SOL    HW141550   4.735   6.465   3.485 -1.9407  1.4654  0.1150
13572SOL    HW241551   4.735   6.524   3.625 -0.1479 -1.0517  1.2420
13573SOL     OW41552   1.324   5.860   0.112  0.0397 -0.2919  0.5935
13573SOL    HW141553   1.345   5.953   0.122  1.0222 -0.4116 -0.1870
13573SOL    HW241554   1.376   5.831   0.036 -1.2361 -1.1792  0.0165
13574SOL     OW41555   2.938   0.114   3.449 -0.0302 -0.7137  0.1547
13574SOL    HW141556   2.869   0.056   3.482 -0.9094  0.7378  0.9762
13574SOL    HW241557   2.891   0.185   3.405  0.7719  1.2707  2.2814
13575SOL     OW41558   3.448   7.676   3.502 -0.0895 -0.5982 -0.1495
13575SOL    HW141559   3.430   7.731   3.426 -1.5694 -0.2145  0.4511
13575SOL    HW241560   3.449   7.736   3.576  0.0974 -1.1388  0.2964
13576SOL     OW41561   1.924   6.056   6.361  0.0228 -0.7158  0.0023
13576SOL    HW141562   1.953   6.088   6.446  0.7837 -1.0740 -0.1101
13576SOL    HW241563   1.898   6.135   6.313  2.7274 -0.0782 -0.6078
13577SOL     OW41564   4.509   1.214   4.382 -0.6017  0.0825  0.4688
13577SOL    HW141565   4.539   1.305   4.383 -0.4672  0.0348  0.9742
13577SOL    HW241566   4.585   1.164   4.353 -0.3837  0.0331  1.1082
13578SOL     OW41567   5.886   7.014   2.533 -0.3795 -0.0829 -0.8389
13578SOL    HW141568   5.875   6.985   2.624 -2.7325 -0.0612 -1.0466
13578SOL    HW241569   5.944   6.949   2.494 -0.2476 -0.7333  0.3913
13579SOL     OW41570   0.838   1.109   0.685 -0.2020  0.4999  0.0619
13579SOL    HW141571   0.818   1.128   0.593  0.4602  1.7083  0.1433
13579SOL    HW241572   0.754   1.081   0.722  0.0366 -2.6199 -1.4737
13580SOL     OW41573   4.126   2.261   3.634 -0.3033 -0.2385 -0.3880
13580SOL    HW141574   4.051   2.206   3.612 -0.3818 -0.7974  1.1425
13580SOL    HW241575   4.193   2.200   3.664  0.0497  0.3941  0.1611
13581SOL     OW41576   5.526   0.627   4.258 -0.1231  0.0848  0.4115
13581SOL    HW141577   5.464   0.598   4.325 -0.3808 -0.4532 -0.0586
13581SOL    HW241578   5.595   0.561   4.260  1.7389  1.8915  2.6186
13582SOL     OW41579   3.744   5.452   0.032 -0.4051 -0.6141  0.2024
13582SOL    HW141580   3.721   5.497   0.113 -0.6144  0.0922 -0.2472
13582SOL    HW241581   3.835   5.424   0.046 -0.5405 -0.7773  0.8006
13583SOL     OW41582   4.896   1.656   5.476  0.4592  0.3362 -1.3978
13583SOL    HW141583   4.930   1.699   5.555 -1.2373 -1.6204  0.5133
13583SOL    HW241584   4.957   1.584   5.461  0.2194  0.1116 -1.2824
13584SOL     OW41585   1.589   5.252   7.668  0.3195  0.2861 -0.6246
13584SOL    HW141586   1.653   5.232   7.599  1.6830  0.7088  0.4869
13584SOL    HW241587   1.504   5.247   7.623  1.0041 -1.6160 -1.8498
13585SOL     OW41588   7.769   6.629   3.425 -0.3176  0.8455 -0.0800
13585SOL    HW141589   7.800   6.699   3.482 -4.0917  2.2503  0.5491
13585SOL    HW241590   7.773   6.666   3.337  0.6419  0.6501 -0.1206
13586SOL     OW41591   3.457   0.328   4.314  0.0702  0.1953 -0.2209
13586SOL    HW141592   3.525   0.265   4.337  0.1824 -0.2882 -1.7531
13586SOL    HW241593   3.386   0.312   4.376  1.0743  0.2762  0.9956
13587SOL     OW41594   3.073   7.945   6.291  0.4235 -0.6904  0.4430
13587SOL    HW141595   3.073   8.040   6.278  0.7038 -0.7121  0.2851
13587SOL    HW241596   3.047   7.934   6.383 -2.9301 -0.5869 -0.3829
13588SOL     OW41597   1.808   1.115   1.610  0.0427  0.1323 -0.7194
13588SOL    HW141598   1.783   1.102   1.702  0.2375 -0.7678 -0.7911
13588SOL    HW241599   1.867   1.043   1.591 -1.2904 -0.6769 -2.0449
13589SOL     OW41600   1.716   2.847   2.034  0.1126 -0.3420  0.0668
13589SOL    HW141601   1.784   2.787   2.002 -1.0979 -0.6654 -2.0826
13589SOL    HW241602   1.666   2.794   2.096  0.5134 -0.7881  0.0216
13590SOL     OW41603   3.797   7.698   5.486 -0.0579 -0.3120 -0.2295
13590SOL    HW141604   3.855   7.624   5.505 -1.0529 -0.7397  1.2635
13590SOL    HW241605   3.771   7.685   5.395 -0.7170 -2.1701  0.1896
13591SOL     OW41606   0.803   5.064   1.381  0.0183  0.7130 -0.2088
13591SOL    HW141607   0.810   5.112   1.298  1.8637  2.3992  0.8524
13591SOL    HW241608   0.724   5.100   1.422 -0.5590  0.3075 -0.9303
13592SOL     OW41609   7.889   7.337   5.663  0.2527  0.2196  0.6258
13592SOL    HW141610   7.935   7.376   5.588 -0.9106  0.0686 -0.1813
13592SOL    HW241611   7.809   7.388   5.671 -0.5791 -1.0415  0.5035
13593SOL     OW41612   1.497   1.156   6.974  0.5572 -0.5380  0.4870
13593SOL    HW141613   1.431   1.172   7.041 -1.0273  1.4799 -1.4448
13593SOL    HW241614   1.576   1.200   7.007 -0.4443  1.1814  0.6557
13594SOL     OW41615   1.737   7.907   3.846 -0.0160  0.2266  0.2882
13594SOL    HW141616   1.690   7.861   3.915  0.2937 -0.9701 -0.2890
13594SOL    HW241617   1.828   7.880   3.856 -0.0600 -0.4361 -0.9579
13595SOL     OW41618   3.410   1.799   6.747 -0.5379 -0.2125  0.7987
13595SOL    HW141619   3.456   1.724   6.785  0.5826  0.0885  0.0644
13595SOL    HW241620   3.406   1.780   6.653 -3.3737 -0.9979  0.9855
13596SOL     OW41621   0.007   5.346   2.969  0.2613  0.1448 -0.8107
13596SOL    HW141622  -0.032   5.264   2.939 -0.0772 -0.1069  0.2422
13596SOL    HW241623   0.100   5.327   2.976  0.2595  0.0230 -1.1008
13597SOL     OW41624   7.077   2.986   6.425 -0.0100 -0.0892  0.2150
13597SOL    HW141625   7.063   3.037   6.345  1.0422 -0.9557 -0.5602
13597SOL    HW241626   7.143   2.921   6.400  0.5839 -0.1693  1.8869
13598SOL     OW41627   5.946   7.792   5.490 -0.1895 -0.6806 -0.0145
13598SOL    HW141628   5.892   7.762   5.416 -1.4449 -1.6277  1.2329
13598SOL    HW241629   5.914   7.879   5.510 -0.0053 -0.5157 -0.4086
13599SOL     OW41630   5.219   5.056   3.283  0.7315 -0.3414 -0.0994
13599SOL    HW141631   5.215   5.106   3.201  2.5322 -0.9581 -0.6062
13599SOL    HW241632   5.130   5.061   3.318  0.2429  1.0520 -1.4132
13600SOL     OW41633   1.649   5.673   3.943 -0.1248  0.1994 -0.1929
13600SOL    HW141634   1.682   5.653   4.031 -0.8974 -0.1599  0.0269
13600SOL    HW241635   1.671   5.596   3.891  1.1556  0.7901 -0.5626
13601SOL     OW41636   7.476   2.938   5.599  0.6005 -0.0238 -0.2072
13601SOL    HW141637   7.525   2.857   5.613  0.5607 -0.1471 -0.7434
13601SOL    HW241638   7.522   2.983   5.528  0.7353  0.5236  0.2178
13602SOL     OW41639   5.971   0.014   1.236  0.0740 -0.1268  0.4292
13602SOL    HW141640   5.932  -0.056   1.289 -1.3646  1.4278  1.5338
13602SOL    HW241641   5.902   0.040   1.175  0.0464  1.2577  0.9964
13603SOL     OW41642   3.289   4.858   4.506  0.1174 -0.1582  0.5224
13603SOL    HW141643   3.306   4.952   4.501  1.0552 -0.3440 -0.1557
13603SOL    HW241644   3.292   4.828   4.415  1.5775 -1.1086  0.8484
13604SOL     OW41645   7.538   5.007   2.226  0.7912  0.1760 -0.0908
13604SOL    HW141646   7.512   4.959   2.305  1.4251  0.3974  0.2555
13604SOL    HW241647   7.544   5.098   2.254 -1.3273  0.6644 -0.9525
13605SOL     OW41648   0.822   4.161   4.920 -0.0206 -0.3181 -0.1352
13605SOL    HW141649   0.732   4.133   4.932 -1.1831  1.7807 -2.8098
13605SOL    HW241650   0.848   4.123   4.836  1.0984  0.2130 -0.0508
13606SOL     OW41651   7.067   3.031   1.999 -0.3870  0.4816  0.5923
13606SOL    HW141652   7.035   3.037   1.909  0.2169  1.1627  0.4079
13606SOL    HW241653   6.993   2.998   2.049 -0.4484 -0.8084 -0.3062
13607SOL     OW41654   5.143   4.457   3.117  0.0329 -0.0698 -0.2814
13607SOL    HW141655   5.107   4.514   3.049  1.1074 -1.4621 -2.0948
13607SOL    HW241656   5.079   4.387   3.125  0.1302 -0.1460 -0.1804
13608SOL     OW41657   7.448   4.344   5.841  0.0303  0.2714 -0.2378
13608SOL    HW141658   7.450   4.283   5.767  0.2149  1.9770 -1.7076
13608SOL    HW241659   7.363   4.388   5.834  0.1812  0.6743  0.3858
13609SOL     OW41660   0.605   6.040   5.976  0.1741  0.1465  0.0025
13609SOL    HW141661   0.525   5.988   5.984  0.7087 -0.4602  1.9331
13609SOL    HW241662   0.605   6.070   5.885 -1.9017 -0.3779 -0.2235
13610SOL     OW41663   0.412   0.350   1.612  0.6939  0.0710  0.4876
13610SOL    HW141664   0.366   0.426   1.575  0.8310  0.1096  0.3936
13610SOL    HW241665   0.346   0.304   1.664  0.3778 -0.2377 -0.1798
13611SOL     OW41666   3.993   5.750   1.270  0.1152  0.2533 -0.0945
13611SOL    HW141667   4.065   5.812   1.256 -1.3581  2.1552  0.2868
13611SOL    HW241668   3.967   5.764   1.361 -0.1004 -1.1317  0.0687
13612SOL     OW41669   6.255   3.646   5.467  0.2651 -0.1732 -0.3499
13612SOL    HW141670   6.264   3.676   5.557  0.3553 -0.5752 -0.2234
13612SOL    HW241671   6.167   3.673   5.441  1.0580  2.0937 -0.9496
13613SOL     OW41672   0.920   0.773   4.905 -0.2043 -0.5064 -0.3159
13613SOL    HW141673   0.969   0.819   4.973 -0.8897  1.2773 -0.9663
13613SOL    HW241674   0.909   0.684   4.939 -1.1774  0.5181  2.2740
13614SOL     OW41675   7.901   4.718   0.879 -0.5342  0.4913  0.2675
13614SOL    HW141676   7.922   4.729   0.786 -0.3739  3.0911  0.5390
13614SOL    HW241677   7.986   4.701   0.920 -0.7891 -2.2728 -0.1786
13615SOL     OW41678   2.103   0.616   0.060 -0.0724 -0.4899  0.1719
13615SOL    HW141679   2.029   0.573   0.017  0.1570  1.8888 -2.9338
13615SOL    HW241680   2.180   0.568   0.028 -0.0303 -0.0986 -0.3238
13616SOL     OW41681   1.477   3.612   0.068 -0.4892 -0.7357 -0.2173
13616SOL    HW141682   1.432   3.593  -0.014  0.4952 -1.1169 -0.6817
13616SOL    HW241683   1.545   3.545   0.074 -1.1628 -1.3242  1.4068
13617SOL     OW41684   4.504   5.697   0.036 -0.1999  0.8455 -0.1400
13617SOL    HW141685   4.487   5.606   0.009 -2.4046  1.5261 -1.2921
13617SOL    HW241686   4.434   5.715   0.100 -0.5989  2.1246 -0.9200
13618SOL     OW41687   7.052   0.571   3.938  0.2575 -0.3011 -0.2542
13618SOL    HW141688   7.095   0.603   3.859  2.2654 -1.2517  0.3618
13618SOL    HW241689   6.987   0.509   3.906  0.7267 -0.3372 -1.1941
13619SOL     OW41690   0.050   5.852   6.307 -0.1413  0.1732  0.0976
13619SOL    HW141691   0.035   5.758   6.316  0.5223 -0.0224 -0.7915
13619SOL    HW241692   0.100   5.862   6.227  0.6053  1.2084  0.6601
13620SOL     OW41693   0.110   7.323   2.166 -0.2101 -0.3063 -0.0671
13620SOL    HW141694   0.032   7.306   2.112  0.5067 -0.6384 -1.0323
13620SOL    HW241695   0.092   7.407   2.208 -0.5445  0.2776 -1.3177
13621SOL     OW41696   5.638   1.826   7.460 -0.4357  0.4728 -0.3161
13621SOL    HW141697   5.591   1.757   7.508  0.2635  0.0609 -0.2091
13621SOL    HW241698   5.569   1.875   7.415 -0.9702 -0.1413 -0.1879
13622SOL     OW41699   7.167   2.073   3.853 -0.1001  0.1037 -0.9229
13622SOL    HW141700   7.107   2.027   3.795  0.3473 -0.1600 -1.1845
13622SOL    HW241701   7.209   2.139   3.797  1.6032 -1.2690 -1.3782
13623SOL     OW41702   7.159   1.660   0.979  0.6064  0.3675 -0.1726
13623SOL    HW141703   7.081   1.617   0.944  0.0291  0.9706  0.3484
13623SOL    HW241704   7.166   1.627   1.069  1.2936 -0.1346 -0.4066
13624SOL     OW41705   2.402   5.213   1.006 -0.1335 -0.4197 -0.1463
13624SOL    HW141706   2.482   5.163   1.022  1.9139  2.5758  0.0148
13624SOL    HW241707   2.366   5.230   1.093 -0.2997 -0.8051 -0.1390
13625SOL     OW41708   0.540   1.616   5.873 -0.0792  0.6685 -0.1843
13625SOL    HW141709   0.582   1.682   5.819  0.5504 -0.5661 -1.2418
13625SOL    HW241710   0.446   1.636   5.867  0.2077  3.0142  1.6376
13626SOL     OW41711   0.051   5.483   6.551 -0.6132  0.1564  0.1142
13626SOL    HW141712   0.123   5.509   6.494 -1.3689  1.5068 -0.2929
13626SOL    HW241713   0.019   5.401   6.515  0.2031 -0.0359 -0.1809
13627SOL     OW41714   5.986   2.654   1.325  0.3276  0.4320 -0.2802
13627SOL    HW141715   6.067   2.702   1.342 -0.5731  1.8271  0.2507
13627SOL    HW241716   5.933   2.668   1.403 -0.5240 -0.2683 -0.7157
13628SOL     OW41717   5.085   4.760   4.338  0.0866 -0.2166 -0.0602
13628SOL    HW141718   5.066   4.839   4.287 -0.3184 -0.4591 -0.2926
13628SOL    HW241719   5.108   4.792   4.425 -0.5252  0.1419 -0.0257
13629SOL     OW41720   6.303   5.741   5.651 -0.3952 -0.4667  0.2818
13629SOL    HW141721   6.282   5.681   5.722  0.0059 -0.0038  0.8046
13629SOL    HW241722   6.320   5.825   5.694  0.5224 -0.3384 -0.2868
13630SOL     OW41723   5.560   2.510   7.248  0.3812 -0.5832 -0.0445
13630SOL    HW141724   5.514   2.594   7.253 -0.7500 -1.2708  1.5834
13630SOL    HW241725   5.652   2.535   7.238 -0.1362  0.8142 -2.0083
13631SOL     OW41726   7.610   1.593   4.723  0.1140  0.2382 -0.2370
13631SOL    HW141727   7.526   1.632   4.747  0.2628 -0.1399  0.9439
13631SOL    HW241728   7.651   1.570   4.806  1.0888 -0.2175 -0.8232
13632SOL     OW41729   3.471   2.470   2.188 -0.5848 -0.1699 -0.5538
13632SOL    HW141730   3.500   2.472   2.280 -2.3961 -0.7166  0.0626
13632SOL    HW241731   3.390   2.521   2.187 -0.1228  0.5957 -2.0631
13633SOL     OW41732   4.583   6.902   6.367  0.1272  0.4347 -0.0286
13633SOL    HW141733   4.621   6.851   6.438  0.6568  1.3360  0.3610
13633SOL    HW241734   4.657   6.949   6.329 -0.6358  2.8568  1.2643
13634SOL     OW41735   2.839   1.632   4.325  0.0391 -0.0204 -0.1690
13634SOL    HW141736   2.773   1.683   4.278 -0.5248  0.2527  0.8974
13634SOL    HW241737   2.807   1.628   4.415  0.4251 -1.6572 -0.0686
13635SOL     OW41738   7.255   2.853   6.271  0.0266  0.5571  0.1252
13635SOL    HW141739   7.189   2.808   6.218  0.9706 -0.7970  0.0525
13635SOL    HW241740   7.314   2.783   6.301 -0.4788  1.2239  3.0370
13636SOL     OW41741   3.265   3.769   6.670  0.2563 -0.1293 -0.2635
13636SOL    HW141742   3.325   3.731   6.606 -0.8414  0.4199 -1.6801
13636SOL    HW241743   3.224   3.693   6.712  0.6675 -0.5015 -0.5270
13637SOL     OW41744   7.326   6.706   4.906  0.4006  0.6032 -0.1996
13637SOL    HW141745   7.406   6.757   4.922 -0.6193  1.5797  2.2856
13637SOL    HW241746   7.328   6.637   4.972 -0.8821  0.7520  0.0169
13638SOL     OW41747   7.285   3.724   1.781  0.1702 -0.4472  0.0724
13638SOL    HW141748   7.249   3.694   1.865 -1.7433 -0.0921 -0.5611
13638SOL    HW241749   7.374   3.690   1.779  0.4491 -0.0392  2.4720
13639SOL     OW41750   6.472   7.113   7.240 -0.3342 -0.1332 -0.5332
13639SOL    HW141751   6.415   7.141   7.169  1.2051 -0.1243 -1.8205
13639SOL    HW241752   6.434   7.030   7.270  0.4378 -1.5913 -3.2235
13640SOL     OW41753   7.055   2.723   7.841  0.0968  0.5483 -0.4547
13640SOL    HW141754   7.000   2.663   7.892 -0.0134  1.1972  0.2039
13640SOL    HW241755   7.002   2.743   7.763 -0.2608  0.5405 -0.2171
13641SOL     OW41756   7.805   0.011   5.829  0.5318  0.2271  0.6179
13641SOL    HW141757   7.719   0.020   5.869  1.2977  1.4956  2.1347
13641SOL    HW241758   7.823  -0.083   5.830 -0.2266  0.0730  1.6626
13642SOL     OW41759   7.332   5.523   4.453  0.2937 -0.6127  0.6823
13642SOL    HW141760   7.418   5.505   4.416  0.4557 -0.8908  1.1782
13642SOL    HW241761   7.349   5.546   4.544 -0.0715  0.3493  0.5153
13643SOL     OW41762   7.741   2.335   4.124  0.4008 -0.8270  0.2601
13643SOL    HW141763   7.658   2.288   4.123  0.5339 -1.1735  1.9945
13643SOL    HW241764   7.807   2.267   4.111  0.4446 -0.4299 -2.1605
13644SOL     OW41765   0.339   4.348   0.775  0.5646 -0.0338 -0.1035
13644SOL    HW141766   0.390   4.268   0.769  0.3538 -0.1006 -1.2814
13644SOL    HW241767   0.322   4.359   0.869  1.9919 -0.4647  0.2281
13645SOL     OW41768   4.998   2.888   3.074 -0.5450 -0.4454  0.6152
13645SOL    HW141769   5.007   2.801   3.035  1.8244 -0.7108  1.5770
13645SOL    HW241770   5.002   2.948   2.999 -0.3134 -1.1048  0.0941
13646SOL     OW41771   0.396   2.163   4.358  0.1109  0.2845  0.1000
13646SOL    HW141772   0.317   2.177   4.409 -0.6448 -1.3653 -0.5324
13646SOL    HW241773   0.456   2.120   4.420 -0.4476 -0.8192 -0.1000
13647SOL     OW41774   4.923   4.308   4.940  0.2728 -0.1471 -0.1834
13647SOL    HW141775   4.988   4.352   4.885 -0.4677  0.0731 -0.9005
13647SOL    HW241776   4.893   4.234   4.888 -0.2529 -0.0803  0.0174
13648SOL     OW41777   6.522   7.575   4.910  0.0081  0.6661 -0.1375
13648SOL    HW141778   6.544   7.579   4.817 -0.7174  2.6223 -0.2831
13648SOL    HW241779   6.557   7.657   4.946  1.1176 -0.4800  1.5471
13649SOL     OW41780   7.041   1.138   7.594 -0.4780 -0.2182 -0.2274
13649SOL    HW141781   7.133   1.145   7.571  0.8268  0.1227  4.1631
13649SOL    HW241782   7.006   1.070   7.535  2.3176  0.1545 -2.4971
13650SOL     OW41783   5.046   3.410   4.387  0.1362  0.2889  0.3869
13650SOL    HW141784   5.074   3.322   4.412 -3.8953 -0.9047  1.3564
13650SOL    HW241785   5.009   3.400   4.299 -0.4793  0.9643  0.5602
13651SOL     OW41786   7.098   1.053   3.234 -0.0252 -0.1293  0.4533
13651SOL    HW141787   7.022   1.039   3.289  0.9244 -2.9998  1.2288
13651SOL    HW241788   7.080   1.135   3.188 -4.0424 -1.1685 -0.2110
13652SOL     OW41789   0.402   0.456   3.992  0.4449 -0.1244  0.3109
13652SOL    HW141790   0.327   0.503   3.957  0.1670 -0.3369  0.6198
13652SOL    HW241791   0.365   0.398   4.058  0.8388 -0.4672  0.2318
13653SOL     OW41792   3.509   4.896   0.345  0.0324 -0.0080  0.4881
13653SOL    HW141793   3.431   4.876   0.398  0.9031  0.6936  2.1132
13653SOL    HW241794   3.476   4.898   0.255 -1.3161 -2.2414  0.8405
13654SOL     OW41795   5.228   7.407   1.066  0.2554  0.2403  0.2184
13654SOL    HW141796   5.144   7.380   1.030  1.8498 -0.2611 -3.5464
13654SOL    HW241797   5.258   7.331   1.117 -0.9304 -0.0624  0.4967
13655SOL     OW41798   4.865   3.904   1.383 -0.6386  0.3884 -0.2045
13655SOL    HW141799   4.875   3.933   1.473  1.0960  0.2969 -0.3403
13655SOL    HW241800   4.866   3.809   1.388 -0.1039  0.3838 -0.3539
13656SOL     OW41801   7.297   3.819   5.656 -0.2110 -0.4009 -0.3906
13656SOL    HW141802   7.237   3.748   5.680 -1.2615 -0.1404 -2.0489
13656SOL    HW241803   7.295   3.820   5.560 -1.4101  2.8105 -0.4578
13657SOL     OW41804   5.521   0.886   7.386  0.2963  0.3036  0.0446
13657SOL    HW141805   5.538   0.937   7.306 -0.0995  0.6970  0.2051
13657SOL    HW241806   5.426   0.871   7.384  0.0699  1.4348  1.0915
13658SOL     OW41807   1.153   2.310   3.505  0.2839 -0.0377  0.1439
13658SOL    HW141808   1.204   2.247   3.454  0.1354  1.3566 -1.8435
13658SOL    HW241809   1.217   2.375   3.534 -0.2837  1.9297 -2.6878
13659SOL     OW41810   5.040   2.592   3.012  0.4722 -0.1398 -0.0332
13659SOL    HW141811   5.088   2.535   3.072 -0.9680 -0.5934  0.7399
13659SOL    HW241812   4.973   2.536   2.973 -1.6731  1.1812  1.5389
13660SOL     OW41813   0.837   4.016   2.872  0.6864 -0.0297  0.5044
13660SOL    HW141814   0.781   4.019   2.795  0.3834  1.3424  0.7624
13660SOL    HW241815   0.906   4.079   2.855  0.5000  0.4475  1.4293
13661SOL     OW41816   0.930   4.184   4.367 -0.1786 -0.1773  0.0780
13661SOL    HW141817   0.881   4.114   4.411 -0.6633  0.1299  0.0326
13661SOL    HW241818   0.868   4.222   4.305  0.6524 -0.9467 -1.2718
13662SOL     OW41819   6.639   4.234   4.003 -0.1835 -0.2357 -0.4933
13662SOL    HW141820   6.713   4.250   4.061  0.2210  0.9045 -1.2852
13662SOL    HW241821   6.626   4.316   3.957 -1.8387 -0.4691 -0.5182
13663SOL     OW41822   3.016   4.662   2.333 -0.2675 -0.1608 -0.1694
13663SOL    HW141823   3.108   4.658   2.307 -0.4575  3.0129 -1.8269
13663SOL    HW241824   2.991   4.571   2.348  1.8296 -1.7038 -4.3966
13664SOL     OW41825   3.266   3.868   3.644 -0.2743 -0.4597 -0.0432
13664SOL    HW141826   3.282   3.895   3.554  1.9367 -2.0848 -0.2073
13664SOL    HW241827   3.221   3.784   3.636 -0.0454 -0.6217  0.3729
13665SOL     OW41828   0.610   0.837   4.888  0.1965 -0.0270 -0.2374
13665SOL    HW141829   0.609   0.925   4.851  1.1253  0.2047  0.2307
13665SOL    HW241830   0.701   0.825   4.918 -0.1853 -0.7107  0.7048
13666SOL     OW41831   2.138   7.245   7.766 -0.1776  0.1677 -0.5643
13666SOL    HW141832   2.160   7.234   7.859 -0.8899 -1.7068 -0.5844
13666SOL    HW241833   2.045   7.268   7.766 -0.2312 -0.0480 -0.8219
13667SOL     OW41834   2.640   3.156   2.402 -0.2623  0.1511  0.3572
13667SOL    HW141835   2.673   3.218   2.468  0.4905  0.1913 -0.0390
13667SOL    HW241836   2.710   3.153   2.336 -0.9550  0.0242 -0.3781
13668SOL     OW41837   4.640   0.672   3.020  0.3816 -0.0225 -0.0939
13668SOL    HW141838   4.576   0.606   3.046 -0.8823  0.0396 -2.6786
13668SOL    HW241839   4.721   0.623   3.005  0.4885 -0.3773  1.4950
13669SOL     OW41840   6.868   0.973   7.483  0.3163 -0.1887  0.3268
13669SOL    HW141841   6.824   0.987   7.399  1.3144  0.5412 -0.0960
13669SOL    HW241842   6.818   1.026   7.545 -0.8685 -1.2946  0.3663
13670SOL     OW41843   0.258   5.260   0.737 -0.0736  0.0192  0.0084
13670SOL    HW141844   0.217   5.211   0.807  1.3093 -0.5248  0.4682
13670SOL    HW241845   0.185   5.302   0.691 -1.1222 -0.9311  0.7590
13671SOL     OW41846   5.434   1.479   2.231  0.2841 -0.7850  0.0508
13671SOL    HW141847   5.454   1.573   2.233  0.9777 -0.9013 -0.6417
13671SOL    HW241848   5.517   1.438   2.205 -0.3331 -1.4848 -0.8776
13672SOL     OW41849   3.783   5.262   4.433  0.6225  0.1906  0.2484
13672SOL    HW141850   3.878   5.260   4.444  0.7610  2.6075  0.0106
13672SOL    HW241851   3.750   5.303   4.513 -0.1251  0.3745 -0.1441
13673SOL     OW41852   5.170   2.042   6.955 -0.8106  0.0815 -0.4452
13673SOL    HW141853   5.082   2.057   6.920 -0.5156 -1.6360 -2.0893
13673SOL    HW241854   5.188   1.950   6.937  1.0205  0.1768  0.6011
13674SOL     OW41855   2.167   6.385   1.920 -0.1088 -0.2472  0.1102
13674SOL    HW141856   2.155   6.477   1.901  0.6479 -0.0927  0.3507
13674SOL    HW241857   2.126   6.372   2.006  1.5830  0.3313  1.0470
13675SOL     OW41858   6.479   6.114   3.992 -0.2365  0.1232 -0.0264
13675SOL    HW141859   6.474   6.032   3.943 -0.7354 -0.0129  0.2491
13675SOL    HW241860   6.423   6.175   3.944 -0.1210  0.2146 -0.0484
13676SOL     OW41861   6.523   2.529   7.718 -0.7430  0.3345  0.5619
13676SOL    HW141862   6.438   2.491   7.701 -1.5732  1.6173  1.5843
13676SOL    HW241863   6.515   2.566   7.806  0.0212  2.6513 -0.2662
13677SOL     OW41864   0.685   1.716   4.781  0.4925  0.2343 -0.0266
13677SOL    HW141865   0.625   1.775   4.736  0.1746 -0.3867 -0.4326
13677SOL    HW241866   0.655   1.628   4.757  0.3124 -0.1200  1.3909
13678SOL     OW41867   7.155   0.976   5.191  0.3764 -0.2154  0.3767
13678SOL    HW141868   7.097   0.998   5.264 -0.5818 -0.0096 -0.4205
13678SOL    HW241869   7.157   0.881   5.189 -0.1642 -0.2282  0.2511
13679SOL     OW41870   4.758   3.460   4.369 -0.2618 -0.3962  0.1108
13679SOL    HW141871   4.711   3.382   4.398  0.4225 -0.8109  0.1247
13679SOL    HW241872   4.694   3.510   4.319 -0.8384 -0.7365  0.5086
13680SOL     OW41873   5.761   6.214   4.173  0.3660  0.2671 -0.6298
13680SOL    HW141874   5.830   6.164   4.219 -0.1867  1.1571  1.2846
13680SOL    HW241875   5.708   6.147   4.130  2.1674 -0.4705 -1.8307
13681SOL     OW41876   0.411   6.429   0.910  0.3826  0.6770  0.1094
13681SOL    HW141877   0.466   6.494   0.953  0.5871  0.7152 -0.2067
13681SOL    HW241878   0.404   6.459   0.820  0.5310  0.2315 -0.0543
13682SOL     OW41879   2.756   4.659   2.497  0.5699  1.2170  0.2419
13682SOL    HW141880   2.791   4.586   2.547  1.1775  1.5728  0.3440
13682SOL    HW241881   2.812   4.664   2.419 -0.1261  0.9104 -0.2882
13683SOL     OW41882   4.111   1.189   1.553 -0.1751 -0.1045  0.2764
13683SOL    HW141883   4.177   1.214   1.488 -0.5275 -2.6113 -1.2133
13683SOL    HW241884   4.032   1.175   1.502 -1.4755  1.2984  1.8193
13684SOL     OW41885   1.056   4.411   0.718  0.7312  0.3265  0.4235
13684SOL    HW141886   1.046   4.478   0.649  0.4256 -0.2884 -0.1338
13684SOL    HW241887   1.015   4.450   0.795 -0.1575  0.4565 -0.1088
13685SOL     OW41888   7.144   5.872   5.228 -0.1115  0.8956 -0.0059
13685SOL    HW141889   7.237   5.853   5.214  0.3297  2.6182  0.3433
13685SOL    HW241890   7.143   5.953   5.279 -1.7915 -0.6460  2.6397
13686SOL     OW41891   3.377   7.057   5.970 -0.2449  0.2415  0.6447
13686SOL    HW141892   3.286   7.043   5.994 -0.4371  0.6700  0.1832
13686SOL    HW241893   3.410   7.120   6.034  0.2906 -1.3577  2.0042
13687SOL     OW41894   0.238   7.338   6.638  0.1306 -0.4953 -0.3245
13687SOL    HW141895   0.173   7.309   6.702 -2.0362 -0.6078 -2.4013
13687SOL    HW241896   0.231   7.433   6.639 -0.2318 -0.5142 -0.6704
13688SOL     OW41897   1.473   2.360   3.116 -0.2276 -0.1455  0.3181
13688SOL    HW141898   1.477   2.267   3.138 -1.0609  0.3203  2.6285
13688SOL    HW241899   1.541   2.401   3.169  0.2989  0.5690 -0.8585
13689SOL     OW41900   4.449   6.575   3.079 -0.0599 -0.4575  0.0779
13689SOL    HW141901   4.531   6.624   3.069  0.1554 -0.8277 -0.0057
13689SOL    HW241902   4.468   6.510   3.147 -0.4931 -0.1087  0.5385
13690SOL     OW41903   6.207   0.837   5.367 -0.2065 -0.2585 -0.1503
13690SOL    HW141904   6.297   0.837   5.397  0.7931 -3.4877 -2.6265
13690SOL    HW241905   6.168   0.759   5.406 -1.1358 -0.3152 -1.1401
13691SOL     OW41906   1.255   1.441   3.632 -0.4658 -0.1082  0.4222
13691SOL    HW141907   1.189   1.391   3.584 -1.6161  1.1360  0.6611
13691SOL    HW241908   1.331   1.383   3.635 -1.6842 -1.7663  0.5585
13692SOL     OW41909   6.409   4.170   2.188 -0.3134 -0.1047 -0.3990
13692SOL    HW141910   6.438   4.083   2.163 -0.2779  0.8520 -4.3281
13692SOL    HW241911   6.490   4.217   2.209 -0.0710 -0.3628 -0.7438
13693SOL     OW41912   7.098   1.049   0.558  0.3195  0.1147  0.2371
13693SOL    HW141913   7.094   0.958   0.587 -1.7719  0.0363 -0.1744
13693SOL    HW241914   7.106   1.100   0.639 -0.4726 -0.3373  0.6040
13694SOL     OW41915   3.694   0.185   4.406  0.2246  0.0284 -0.2769
13694SOL    HW141916   3.772   0.133   4.426 -0.0735  0.0514  1.0540
13694SOL    HW241917   3.726   0.275   4.403  0.5087 -0.0908 -1.2947
13695SOL     OW41918   2.579   4.452   2.331 -0.1987  0.2045  0.2550
13695SOL    HW141919   2.519   4.508   2.282 -0.5637  0.6856  1.2203
13695SOL    HW241920   2.604   4.504   2.407 -0.3370 -0.8507  1.0427
13696SOL     OW41921   0.900   6.206   7.184 -0.4818 -0.5246 -0.6239
13696SOL    HW141922   0.930   6.217   7.274  0.4563 -0.0673 -0.9755
13696SOL    HW241923   0.813   6.246   7.183 -0.3391 -0.1783 -0.0129
13697SOL     OW41924   4.245   7.899   7.359  0.5887  0.1190 -0.1347
13697SOL    HW141925   4.307   7.968   7.337 -1.1790  1.5294 -0.8929
13697SOL    HW241926   4.182   7.941   7.417 -1.3988 -0.3653 -1.8435
13698SOL     OW41927   1.315   3.186   2.064  0.1542  0.4105 -0.9489
13698SOL    HW141928   1.327   3.280   2.048  1.1982  0.8011  1.5764
13698SOL    HW241929   1.230   3.181   2.108  1.4284  0.7139  1.8082
13699SOL     OW41930   5.588   0.701   7.044  0.4726 -0.5676 -0.3876
13699SOL    HW141931   5.619   0.674   7.130 -0.7768  1.3188  0.7229
13699SOL    HW241932   5.660   0.754   7.008 -0.6540  2.5766  1.5642
13700SOL     OW41933   7.369   3.556   1.262  0.1391 -0.2700  0.0296
13700SOL    HW141934   7.362   3.651   1.258 -0.2967 -0.3299 -1.1140
13700SOL    HW241935   7.404   3.531   1.176  2.8434 -0.9624  1.2157
13701SOL     OW41936   6.072   2.787   7.738  0.7604 -0.7760  0.2395
13701SOL    HW141937   6.013   2.748   7.802  0.4844 -2.3946 -0.9467
13701SOL    HW241938   6.103   2.713   7.686  0.8587  0.5133 -1.6055
13702SOL     OW41939   2.303   2.788   5.870 -0.0666 -0.0454 -0.0703
13702SOL    HW141940   2.301   2.694   5.854 -1.0605  0.0037 -0.2866
13702SOL    HW241941   2.324   2.826   5.785 -2.3037  0.0477 -0.6454
13703SOL     OW41942   7.929   5.399   6.197  0.4262  0.3768  0.2980
13703SOL    HW141943   7.900   5.313   6.227 -1.7543  1.6587  2.1857
13703SOL    HW241944   7.928   5.393   6.101 -0.0937 -1.5243  0.3830
13704SOL     OW41945   0.389   2.759   6.568 -0.0751  0.4484  0.2235
13704SOL    HW141946   0.386   2.851   6.595 -1.3168  0.5987 -0.3463
13704SOL    HW241947   0.400   2.711   6.650  1.2827  1.1178  0.4659
13705SOL     OW41948   7.380   7.804   5.215 -0.3453 -0.6461  0.1634
13705SOL    HW141949   7.324   7.858   5.271  1.2660 -0.7189  1.9335
13705SOL    HW241950   7.445   7.866   5.180 -1.5585 -0.5099 -2.0766
13706SOL     OW41951   4.300   4.713   3.436  0.0882  0.1715  0.3895
13706SOL    HW141952   4.357   4.721   3.359  0.3532 -1.1046  0.4223
13706SOL    HW241953   4.354   4.743   3.509 -0.5068  2.4037 -0.0010
13707SOL     OW41954   1.294   3.506   4.556 -0.2964  0.0846 -0.4778
13707SOL    HW141955   1.354   3.435   4.581 -0.1499 -0.2120 -1.6167
13707SOL    HW241956   1.347   3.562   4.500 -0.4787  0.9947  0.2376
13708SOL     OW41957   2.020   2.165   6.018  0.3819  0.5967  0.2743
13708SOL    HW141958   1.984   2.141   5.933  2.3924 -1.0976 -0.1651
13708SOL    HW241959   1.944   2.191   6.070 -1.0990 -0.1372 -1.4508
13709SOL     OW41960   5.879   4.874   5.964  0.3773  0.2457 -0.5407
13709SOL    HW141961   5.939   4.872   5.889  0.8558 -0.7703 -0.1439
13709SOL    HW241962   5.934   4.859   6.040 -0.3050 -0.1823 -0.1207
13710SOL     OW41963   1.862   2.760   3.135  0.2059 -0.5495  0.4015
13710SOL    HW141964   1.897   2.678   3.101  1.0590 -0.1411  0.2602
13710SOL    HW241965   1.928   2.790   3.197 -1.6438 -1.6692  3.1036
13711SOL     OW41966   4.491   0.317   7.799  0.1388  0.5391  0.1298
13711SOL    HW141967   4.568   0.374   7.796 -0.4027  1.3096  0.6364
13711SOL    HW241968   4.521   0.235   7.759  1.4501  0.5563  1.0027
13712SOL     OW41969   7.170   7.714   5.579  0.4157 -0.6294  0.0939
13712SOL    HW141970   7.229   7.673   5.515  1.8716 -1.3601  1.8067
13712SOL    HW241971   7.158   7.647   5.647  0.3507  0.7041  1.4463
13713SOL     OW41972   0.233   3.657   6.145  0.1378 -0.2138 -0.0097
13713SOL    HW141973   0.168   3.692   6.206  1.1597 -1.0648  1.6455
13713SOL    HW241974   0.182   3.608   6.081 -0.9522  0.3090  0.4326
13714SOL     OW41975   3.243   2.484   5.847 -0.5161  0.0015 -0.4646
13714SOL    HW141976   3.151   2.488   5.822 -1.0089 -0.1076  1.2273
13714SOL    HW241977   3.244   2.509   5.939  0.9689 -1.3684 -0.0623
13715SOL     OW41978   5.696   7.657   2.377  0.0576 -0.5663 -0.4539
13715SOL    HW141979   5.778   7.663   2.425 -0.6644 -1.3648  0.9434
13715SOL    HW241980   5.629   7.645   2.445 -1.3659  1.1793 -1.4492
13716SOL     OW41981   7.840   3.024   7.387 -0.4744  0.9022  0.1404
13716SOL    HW141982   7.813   2.934   7.406  1.5985  0.1830 -0.1119
13716SOL    HW241983   7.759   3.069   7.363 -1.5686 -0.8567  0.4121
13717SOL     OW41984   0.409   7.539   4.484  0.4339 -0.3281 -0.1206
13717SOL    HW141985   0.459   7.611   4.445 -0.1763 -0.1094 -0.5063
13717SOL    HW241986   0.451   7.460   4.450 -0.2572 -0.1407 -1.4715
13718SOL     OW41987   4.841   1.277   4.225  0.3940 -0.0882  0.2348
13718SOL    HW141988   4.792   1.345   4.272  2.0226  0.0814  1.8347
13718SOL    HW241989   4.776   1.211   4.203 -1.0382  1.4567 -0.3526
13719SOL     OW41990   0.617   0.617   2.008  0.3214  0.2675 -0.6934
13719SOL    HW141991   0.676   0.607   1.934 -1.7684  1.8183 -2.7181
13719SOL    HW241992   0.647   0.696   2.053  1.9478 -0.9940  0.5843
13720SOL     OW41993   6.032   1.310   0.934  0.8196  0.0078  0.2141
13720SOL    HW141994   5.980   1.319   1.014  0.3459 -0.3894 -0.0440
13720SOL    HW241995   5.978   1.351   0.866  1.1741  0.2504  0.0760
13721SOL     OW41996   4.105   3.762   5.768 -0.7227 -0.3411  0.7996
13721SOL    HW141997   4.160   3.808   5.704  1.5568 -1.3849  1.8798
13721SOL    HW241998   4.024   3.742   5.721  0.0261  0.8031 -1.0661
13722SOL     OW41999   4.497   3.883   6.914 -0.7859  0.0826 -0.5502
13722SOL    HW142000   4.452   3.800   6.925  1.2972 -0.8791  1.9393
13722SOL    HW242001   4.491   3.902   6.820 -1.0549 -3.0453 -1.2753
13723SOL     OW42002   2.933   4.618   3.631 -0.2840  0.2175 -0.1560
13723SOL    HW142003   2.915   4.554   3.699  0.8320  0.1874  0.1218
13723SOL    HW242004   2.850   4.666   3.621 -0.6360 -0.1676  0.7885
13724SOL     OW42005   4.233   0.328   0.486  0.3461 -0.2644 -0.3862
13724SOL    HW142006   4.261   0.415   0.459 -1.3533  0.5986  0.4434
13724SOL    HW242007   4.260   0.322   0.578 -1.7519  0.4915  0.3567
13725SOL     OW42008   1.662   4.576   6.467  0.7971 -0.6458  0.1700
13725SOL    HW142009   1.729   4.605   6.405  0.9104  1.0595  1.0412
13725SOL    HW242010   1.712   4.546   6.543  0.6085  0.6688  0.8397
13726SOL     OW42011   6.741   7.306   6.636 -0.2064 -0.1792  0.5443
13726SOL    HW142012   6.696   7.223   6.624 -1.6997  0.6079  0.4075
13726SOL    HW242013   6.750   7.342   6.548 -1.2853  0.6278  0.7313
13727SOL     OW42014   4.628   7.420   5.629  0.1620  0.4664 -0.3263
13727SOL    HW142015   4.670   7.427   5.715  0.1165  0.3180 -0.2907
13727SOL    HW242016   4.673   7.484   5.575  0.7778 -0.0293 -0.4196
13728SOL     OW42017   7.204   5.106   2.254 -0.2462  0.3474 -0.2239
13728SOL    HW142018   7.293   5.085   2.284 -0.5293 -0.3185  0.1777
13728SOL    HW242019   7.154   5.026   2.271 -1.5150  1.5096  1.9331
13729SOL     OW42020   6.503   2.258   4.416  0.1920  0.6362 -0.1169
13729SOL    HW142021   6.521   2.317   4.489 -0.1471 -0.2583  0.7227
13729SOL    HW242022   6.408   2.264   4.404  0.2595  0.8618 -0.5698
13730SOL     OW42023   4.765   2.732   2.821  0.9653  0.5622  0.0079
13730SOL    HW142024   4.773   2.801   2.886 -1.5062 -0.9117  2.0597
13730SOL    HW242025   4.791   2.652   2.866 -0.9350 -0.5297 -0.7143
13731SOL     OW42026   6.208   3.063   0.843 -0.2779 -0.7845 -0.0766
13731SOL    HW142027   6.142   3.089   0.778 -0.5648 -0.5752  0.2960
13731SOL    HW242028   6.165   3.078   0.928  0.8903  1.1507  0.2242
13732SOL     OW42029   2.368   2.543   4.648  0.2884 -0.4538 -0.4678
13732SOL    HW142030   2.294   2.604   4.643 -0.8859 -1.8677 -1.0793
13732SOL    HW242031   2.368   2.498   4.564  2.0216 -0.3335 -0.5640
13733SOL     OW42032   3.912   5.025   4.240  0.7087 -0.3288  0.1177
13733SOL    HW142033   3.851   5.001   4.309 -0.3377  1.8059 -0.0083
13733SOL    HW242034   3.865   5.087   4.185  2.0782 -0.6921 -1.5800
13734SOL     OW42035   3.498   1.799   3.297 -0.8111  0.2943 -0.0915
13734SOL    HW142036   3.522   1.819   3.388  0.3754 -0.2594 -0.2583
13734SOL    HW242037   3.575   1.755   3.262 -0.9334  1.2317 -1.6241
13735SOL     OW42038   6.149   7.858   4.289  0.3449  0.1452 -0.2758
13735SOL    HW142039   6.210   7.797   4.329  1.9491  0.9564 -1.3838
13735SOL    HW242040   6.185   7.875   4.202 -2.6527 -1.0289 -1.8897
13736SOL     OW42041   6.676   2.451   7.013  0.2633 -0.2985 -0.0532
13736SOL    HW142042   6.655   2.358   7.020 -0.4231 -0.2653 -1.3009
13736SOL    HW242043   6.609   2.495   7.064 -1.0875 -0.3658 -1.6700
13737SOL     OW42044   2.077   3.088   6.643 -0.4963  0.8186 -0.0324
13737SOL    HW142045   2.121   3.015   6.687 -1.5980  0.3315  0.2934
13737SOL    HW242046   2.010   3.046   6.589 -0.4791  1.5427 -0.6379
13738SOL     OW42047   7.885   4.438   1.487 -0.9116  0.3274 -0.6197
13738SOL    HW142048   7.935   4.407   1.412 -2.1526 -0.4559 -1.1527
13738SOL    HW242049   7.846   4.359   1.525  1.1774  0.4512  2.0151
13739SOL     OW42050   3.093   5.481   3.286 -0.5495 -0.3199  0.2226
13739SOL    HW142051   3.054   5.541   3.222  0.3846  0.5461  0.4449
13739SOL    HW242052   3.130   5.537   3.353  1.4385 -1.0628 -0.1760
13740SOL     OW42053   6.493   7.112   2.487 -0.2528  0.1867  0.3259
13740SOL    HW142054   6.537   7.074   2.412  1.4242 -1.0060  1.8305
13740SOL    HW242055   6.418   7.055   2.502  0.1400 -0.3348  0.3213
13741SOL     OW42056   0.834   3.490   4.371  0.8289 -0.7186 -0.3685
13741SOL    HW142057   0.924   3.458   4.367  0.5038 -1.8078  0.5820
13741SOL    HW242058   0.786   3.422   4.418 -0.6904 -0.5723 -1.6284
13742SOL     OW42059   2.300   4.708   1.060  0.2005  0.2199 -0.7192
13742SOL    HW142060   2.382   4.660   1.043  0.1684 -0.4323  0.8127
13742SOL    HW242061   2.260   4.662   1.133 -0.1213  2.2776  0.4661
13743SOL     OW42062   7.410   2.499   7.054 -0.1145 -0.0768  0.3494
13743SOL    HW142063   7.437   2.431   7.116 -0.4910  0.0025  0.6026
13743SOL    HW242064   7.323   2.472   7.025  0.1416 -0.2200 -0.3029
13744SOL     OW42065   6.109   1.051   6.833 -0.1945 -0.1397  0.0956
13744SOL    HW142066   6.039   1.116   6.823  1.2628  1.1972 -2.6065
13744SOL    HW242067   6.165   1.088   6.902 -0.0546  0.8493 -0.5273
13745SOL     OW42068   7.097   6.064   3.836  0.3267  0.2493 -0.1644
13745SOL    HW142069   7.078   6.105   3.921  0.5223 -1.3158  0.6847
13745SOL    HW242070   7.192   6.065   3.830  0.5343 -2.2249  1.0868
13746SOL     OW42071   2.404   0.222   0.887  0.3078 -0.0116  0.2857
13746SOL    HW142072   2.382   0.178   0.805  0.3098 -0.5077  0.5469
13746SOL    HW242073   2.395   0.315   0.868  1.4682 -0.0583 -0.6279
13747SOL     OW42074   6.258   2.307   5.412 -0.0665  0.0850  0.0457
13747SOL    HW142075   6.170   2.338   5.390 -0.6553 -1.2727  0.3298
13747SOL    HW242076   6.301   2.381   5.454 -1.0924  0.7609 -0.0728
13748SOL     OW42077   1.035   2.799   6.375  0.0482  0.0879  0.3956
13748SOL    HW142078   0.985   2.881   6.375  0.9671  0.6570  0.5734
13748SOL    HW242079   1.074   2.795   6.288  1.6663  0.8925  1.0407
13749SOL     OW42080   5.385   0.432   4.065 -0.0671  0.4397  0.4615
13749SOL    HW142081   5.436   0.358   4.099  1.4484  1.0422 -0.4195
13749SOL    HW242082   5.415   0.507   4.116 -1.9163  0.4267  1.6519
13750SOL     OW42083   4.553   5.429   7.905 -0.2421 -0.0265  0.2683
13750SOL    HW142084   4.561   5.374   7.827 -2.6083  0.4629 -0.4225
13750SOL    HW242085   4.633   5.481   7.906  0.5002 -1.0841 -0.9879
13751SOL     OW42086   5.137   0.980   4.206 -0.1675 -0.0727 -1.0186
13751SOL    HW142087   5.089   0.911   4.161  0.5856  0.0006 -1.9731
13751SOL    HW242088   5.171   1.035   4.135  0.7354  0.2560 -0.3449
13752SOL     OW42089   3.530   0.825   3.715 -0.2105  0.4114 -0.2435
13752SOL    HW142090   3.472   0.822   3.791  0.2651 -0.4596  0.1112
13752SOL    HW242091   3.610   0.782   3.745  0.2696  0.7531 -1.0067
13753SOL     OW42092   0.059   4.007   0.798  0.3420 -0.2353  0.4728
13753SOL    HW142093   0.124   3.978   0.862  0.0057 -2.6045 -0.1467
13753SOL    HW242094   0.107   4.009   0.715 -0.1393 -1.1218  0.1628
13754SOL     OW42095   6.518   3.592   1.606  0.2256  0.2920  0.4928
13754SOL    HW142096   6.504   3.543   1.686 -0.5098  0.6973  0.6159
13754SOL    HW242097   6.613   3.594   1.596  0.3202  0.2008  1.3236
13755SOL     OW42098   7.044   1.032   4.598  0.5015  0.4760 -0.4694
13755SOL    HW142099   6.977   1.098   4.582  0.2657  0.0747 -1.2035
13755SOL    HW242100   6.998   0.960   4.641  0.3756  0.0586 -1.2788
13756SOL     OW42101   2.631   1.206   3.003  0.1249  0.5756  0.8423
13756SOL    HW142102   2.695   1.135   3.004 -0.3764  0.0992  0.1237
13756SOL    HW242103   2.677   1.280   3.043  1.1494  0.2647  0.2823
13757SOL     OW42104   5.916   0.395   5.720  0.3019 -0.5511  0.3637
13757SOL    HW142105   5.848   0.349   5.670  0.5304 -1.2220  0.6660
13757SOL    HW242106   5.909   0.486   5.690 -0.8491 -0.5665  0.5107
13758SOL     OW42107   6.669   6.652   4.283  0.2487 -0.2863 -0.1209
13758SOL    HW142108   6.639   6.629   4.195 -0.0860 -0.4042  0.0239
13758SOL    HW242109   6.598   6.625   4.341  1.0791 -1.6067  0.3329
13759SOL     OW42110   6.053   7.410   0.631 -0.4107 -0.5527  0.4520
13759SOL    HW142111   5.978   7.435   0.686 -0.1619  0.4144  0.3732
13759SOL    HW242112   6.013   7.376   0.551 -0.8165  1.4132 -0.2502
13760SOL     OW42113   3.709   1.324   3.983 -0.7008  0.8019  0.1683
13760SOL    HW142114   3.710   1.330   3.888  0.2006 -3.2243 -0.2921
13760SOL    HW242115   3.616   1.322   4.006 -1.0180 -1.1168 -1.0459
13761SOL     OW42116   1.230   0.891   1.441  0.0825  0.1071  0.1323
13761SOL    HW142117   1.202   0.976   1.407 -0.8720 -0.0921  0.3826
13761SOL    HW242118   1.316   0.908   1.479 -0.0736  0.9540  0.1357
13762SOL     OW42119   6.840   2.430   0.386 -0.0178  1.0436  0.4747
13762SOL    HW142120   6.758   2.479   0.397 -0.4513  0.5718 -0.5186
13762SOL    HW242121   6.815   2.339   0.398  0.2384  0.8468 -0.3970
13763SOL     OW42122   0.126   2.941   4.727 -0.0776 -0.0924 -0.3178
13763SOL    HW142123   0.172   2.869   4.769 -1.0498  0.5136  1.9511
13763SOL    HW242124   0.115   3.007   4.796 -1.0284  1.3502 -1.7589
13764SOL     OW42125   0.469   6.990   6.565 -0.0967 -0.4027  0.5766
13764SOL    HW142126   0.515   6.953   6.489 -0.6048  1.2555 -0.5794
13764SOL    HW242127   0.387   6.942   6.569 -0.5067  0.1773 -0.5584
13765SOL     OW42128   4.617   5.333   1.887 -0.3119  0.4126  0.2687
13765SOL    HW142129   4.648   5.350   1.976 -0.0748  0.9663  0.0843
13765SOL    HW242130   4.548   5.267   1.898  0.0306  0.1387  0.8112
13766SOL     OW42131   5.085   5.367   7.325  0.4957  0.4005  0.1007
13766SOL    HW142132   5.027   5.443   7.319 -0.0499  0.0629  1.0134
13766SOL    HW242133   5.052   5.316   7.398  0.1092 -1.3663 -1.2317
13767SOL     OW42134   1.340   4.294   5.093 -0.3601 -0.0235  0.5544
13767SOL    HW142135   1.273   4.304   5.161 -0.5022  0.3547  0.3582
13767SOL    HW242136   1.406   4.360   5.115 -0.5442  0.2931  0.1616
13768SOL     OW42137   3.884   3.048   0.628  0.0486  0.2542  0.4241
13768SOL    HW142138   3.883   3.038   0.533 -1.4745 -0.2084  0.4644
13768SOL    HW242139   3.815   2.989   0.659  0.5964  0.3169  1.8288
13769SOL     OW42140   0.917   2.909   5.451 -0.5452  0.1226  0.2030
13769SOL    HW142141   0.930   2.949   5.365 -0.5219  0.0761  0.1843
13769SOL    HW242142   0.895   2.981   5.509  1.2233  0.4478  0.5511
13770SOL     OW42143   1.908   1.923   7.297 -0.1097 -0.2223 -0.3834
13770SOL    HW142144   1.940   1.855   7.356 -2.2923  0.1496  1.3478
13770SOL    HW242145   1.897   2.000   7.353  0.0577  0.8897 -1.8118
13771SOL     OW42146   0.266   6.442   0.278  0.8833  0.0379 -0.1122
13771SOL    HW142147   0.311   6.513   0.232  1.0227 -0.1028 -0.1930
13771SOL    HW242148   0.201   6.410   0.215 -0.8148  1.6379  0.7232
13772SOL     OW42149   1.348   6.633   3.827  0.3432 -0.0219  0.5471
13772SOL    HW142150   1.329   6.637   3.921  2.1421 -1.0407  0.9944
13772SOL    HW242151   1.311   6.549   3.799 -0.6222  0.4963  0.2031
13773SOL     OW42152   7.776   2.792   1.986  0.2302  0.5612  0.4731
13773SOL    HW142153   7.757   2.877   2.025  0.8885  1.3896 -0.9718
13773SOL    HW242154   7.785   2.809   1.893  1.3143 -0.9408  0.2707
13774SOL     OW42155   4.291   3.168   4.499  0.3158  0.1769 -0.0351
13774SOL    HW142156   4.344   3.216   4.563  1.0028 -1.8934  1.0638
13774SOL    HW242157   4.351   3.149   4.428 -0.4022  2.3202 -1.2987
13775SOL     OW42158   6.277   1.470   2.014 -0.1304 -0.0154  0.1413
13775SOL    HW142159   6.191   1.489   2.052 -1.4949 -0.0749 -2.6975
13775SOL    HW242160   6.338   1.486   2.086 -2.4144  0.7652  2.0620
13776SOL     OW42161   5.075   0.405   3.075 -0.0661 -0.9900 -0.4510
13776SOL    HW142162   5.168   0.384   3.086  0.1058 -0.6694 -1.2988
13776SOL    HW242163   5.050   0.447   3.158  0.7628 -0.2748 -0.5586
13777SOL     OW42164   7.198   4.620   4.012  0.4685 -0.0705  0.3619
13777SOL    HW142165   7.280   4.668   4.017  1.7477 -2.0657 -0.1692
13777SOL    HW242166   7.174   4.623   3.919 -0.4262  1.0172  0.6043
13778SOL     OW42167   5.475   0.029   0.560 -0.3502  0.0965 -0.1851
13778SOL    HW142168   5.446   0.076   0.482 -1.3174 -0.6167 -0.2632
13778SOL    HW242169   5.564  -0.001   0.539 -0.0879  1.0485 -0.4882
13779SOL     OW42170   1.694   4.963   2.063 -0.3359 -0.4544 -0.2835
13779SOL    HW142171   1.600   4.964   2.048 -0.3279  0.0217 -0.3156
13779SOL    HW242172   1.716   5.053   2.087 -0.0359 -0.7643  0.6423
13780SOL     OW42173   2.089   2.060   7.009 -0.2448 -0.1742  0.0853
13780SOL    HW142174   2.017   1.998   6.998 -1.7211  1.5745 -0.5235
13780SOL    HW242175   2.128   2.068   6.922  1.3032 -1.7264  0.5609
13781SOL     OW42176   6.815   7.275   5.816  0.3641  0.0641 -0.1021
13781SOL    HW142177   6.738   7.301   5.867 -0.1591 -1.1781 -0.2403
13781SOL    HW242178   6.834   7.186   5.844  0.9817 -0.1000 -1.0011
13782SOL     OW42179   3.736   7.124   2.676  0.5482  0.1842  1.0993
13782SOL    HW142180   3.705   7.043   2.636 -0.2393  0.3105  1.4322
13782SOL    HW242181   3.816   7.099   2.723 -0.0597 -0.5462  1.7656
13783SOL     OW42182   4.345   6.556   7.909  0.4480 -0.4276  0.1755
13783SOL    HW142183   4.326   6.638   7.955  1.0548 -0.5358  0.6196
13783SOL    HW242184   4.261   6.532   7.868  0.3052  0.4881 -0.0788
13784SOL     OW42185   4.646   0.616   3.754  0.5039 -0.0126 -0.3107
13784SOL    HW142186   4.676   0.561   3.827 -2.0505 -2.2656 -0.8105
13784SOL    HW242187   4.603   0.555   3.694  1.7814  1.8578 -3.4030
13785SOL     OW42188   4.619   1.912   0.103  0.1651 -0.0391 -0.0030
13785SOL    HW142189   4.661   1.991   0.069 -0.4985  0.2575 -0.1388
13785SOL    HW242190   4.527   1.935   0.112 -0.5489 -1.5149 -2.4323
13786SOL     OW42191   7.055   7.486   7.609  0.2416  0.1336 -0.4803
13786SOL    HW142192   7.072   7.437   7.529  3.4566  1.1753 -0.5614
13786SOL    HW242193   7.077   7.576   7.587  0.1134  0.6289  1.2831
13787SOL     OW42194   7.043   6.469   0.441 -0.5478  0.1639  0.3927
13787SOL    HW142195   6.968   6.471   0.499  0.2548 -0.6582  1.4925
13787SOL    HW242196   7.058   6.561   0.417 -1.3078  0.4305  0.9181
13788SOL     OW42197   4.462   6.709   0.921 -0.0527 -0.2216  0.1978
13788SOL    HW142198   4.554   6.724   0.896 -0.9042  0.5893 -2.9146
13788SOL    HW242199   4.461   6.723   1.016  3.2083 -1.3676  0.5459
13789SOL     OW42200   3.363   1.068   4.157 -0.2175 -0.0899 -0.2751
13789SOL    HW142201   3.336   0.977   4.143  1.2055 -0.7422  0.9980
13789SOL    HW242202   3.283   1.112   4.185 -1.1426 -0.7048 -1.8216
13790SOL     OW42203   5.887   2.950   5.409 -0.0970 -0.2488  0.3116
13790SOL    HW142204   5.866   2.964   5.501  0.8040 -0.6445  0.5877
13790SOL    HW242205   5.929   2.864   5.406  0.4904  0.0483 -0.3686
13791SOL     OW42206   5.481   2.971   6.458 -0.6454 -0.3962  0.3138
13791SOL    HW142207   5.565   2.926   6.453 -0.7769 -0.7846  1.4644
13791SOL    HW242208   5.440   2.937   6.537 -2.1204 -0.6064 -0.5128
13792SOL     OW42209   5.061   7.275   1.321  0.1787  0.5465  0.1856
13792SOL    HW142210   5.022   7.207   1.376  0.7993  1.3286  1.6758
13792SOL    HW242211   5.128   7.230   1.270  0.7052  0.0527  1.2812
13793SOL     OW42212   5.179   7.336   7.696 -0.0641 -0.1803 -0.2337
13793SOL    HW142213   5.233   7.415   7.705 -0.2590 -0.0870  0.1386
13793SOL    HW242214   5.201   7.302   7.609  2.8252 -1.7607  0.9512
13794SOL     OW42215   4.627   7.149   7.099 -0.2803  0.2744 -0.2952
13794SOL    HW142216   4.609   7.185   7.012  0.5527  0.0390 -0.5823
13794SOL    HW242217   4.702   7.090   7.085 -0.4032 -0.0820  0.5075
13795SOL     OW42218   4.337   5.889   4.774 -0.6196  0.3576 -0.1866
13795SOL    HW142219   4.396   5.882   4.699 -1.0104 -1.3090 -0.3738
13795SOL    HW242220   4.352   5.809   4.824 -2.9946 -0.3032 -0.4304
13796SOL     OW42221   7.523   6.558   5.433 -0.2360  0.7385  0.2654
13796SOL    HW142222   7.458   6.491   5.413 -0.4380  0.4257  1.8462
13796SOL    HW242223   7.524   6.614   5.355 -1.7380  0.2347 -0.1546
13797SOL     OW42224   6.377   1.570   5.384  0.0478  0.4388 -0.1327
13797SOL    HW142225   6.383   1.480   5.349  2.3076  0.4578  0.0461
13797SOL    HW242226   6.326   1.617   5.318  1.6098 -0.2412 -1.9391
13798SOL     OW42227   4.109   3.855   1.309  0.4946  0.5530  0.4466
13798SOL    HW142228   4.031   3.897   1.273 -0.0533 -1.0479 -0.3645
13798SOL    HW242229   4.084   3.832   1.399  0.9735  2.3170  1.0653
13799SOL     OW42230   5.487   2.126   1.694 -0.1360  0.4054  0.0084
13799SOL    HW142231   5.458   2.036   1.708 -1.4997  0.7007 -0.7519
13799SOL    HW242232   5.580   2.125   1.714 -0.3508 -0.9393  1.0588
13800SOL     OW42233   1.665   2.631   3.392 -0.3301 -0.6216  0.2900
13800SOL    HW142234   1.577   2.667   3.398 -0.9260 -2.0723  0.5174
13800SOL    HW242235   1.692   2.618   3.483 -0.1754 -0.8858  0.2076
13801SOL     OW42236   4.813   2.230   5.638 -0.6434  0.8362 -0.2428
13801SOL    HW142237   4.809   2.167   5.566 -0.4701 -3.3288  2.9901
13801SOL    HW242238   4.727   2.272   5.637 -1.9136 -1.5827 -0.9841
13802SOL     OW42239   5.568   5.703   4.637 -0.0506 -0.3915  0.0148
13802SOL    HW142240   5.526   5.786   4.660 -0.3334 -0.6268  0.3548
13802SOL    HW242241   5.619   5.679   4.715 -0.5282 -0.8845  0.1850
13803SOL     OW42242   6.107   6.758   2.998  0.2343 -0.1898  0.8133
13803SOL    HW142243   6.016   6.785   3.000 -0.2998 -1.9123  1.6927
13803SOL    HW242244   6.134   6.772   2.907 -0.9040  0.3399  0.5418
13804SOL     OW42245   2.084   0.102   1.396  0.0742 -0.4020  0.1693
13804SOL    HW142246   2.161   0.125   1.344 -0.4616  1.0659 -0.0106
13804SOL    HW242247   2.121   0.069   1.479  0.9367  1.4648  0.5908
13805SOL     OW42248   4.396   1.494   6.838  0.1471  0.0626  0.0675
13805SOL    HW142249   4.416   1.586   6.823 -0.3208  0.0983 -0.3418
13805SOL    HW242250   4.365   1.461   6.753 -0.1494 -0.3483  0.3278
13806SOL     OW42251   2.306   3.683   0.901 -0.2216  0.2146  0.4693
13806SOL    HW142252   2.269   3.602   0.867  1.1316 -0.3671  0.3353
13806SOL    HW242253   2.263   3.696   0.986  0.7894 -1.5786  1.3004
13807SOL     OW42254   6.292   2.379   7.050  0.7732 -0.0962  0.2821
13807SOL    HW142255   6.262   2.396   6.961 -1.0014  0.9346  1.0466
13807SOL    HW242256   6.214   2.350   7.097  2.1587 -3.1882  0.9443
13808SOL     OW42257   5.371   2.088   2.985  0.3335  0.3432  0.1193
13808SOL    HW142258   5.319   2.037   3.047  0.3573 -0.1296 -0.2383
13808SOL    HW242259   5.317   2.164   2.965  0.8107  1.0986  1.5815
13809SOL     OW42260   4.989   6.602   7.091 -0.9466 -0.4610 -0.1774
13809SOL    HW142261   5.056   6.547   7.050 -0.7267 -0.1893 -0.1904
13809SOL    HW242262   5.010   6.691   7.061 -1.2034 -0.3520 -0.0333
13810SOL     OW42263   7.873   6.217   2.193  0.3527  0.0488 -0.1205
13810SOL    HW142264   7.957   6.198   2.234 -0.3645  0.6387  1.7339
13810SOL    HW242265   7.889   6.209   2.099  2.4657  0.1824  0.1922
13811SOL     OW42266   1.648   1.875   4.104  0.5727 -0.2178  0.1484
13811SOL    HW142267   1.599   1.900   4.026  2.2546  0.1072 -0.8446
13811SOL    HW242268   1.641   1.779   4.107 -0.1981 -0.1711  0.0966
13812SOL     OW42269   1.602   4.564   1.934  0.1525  0.4945  0.1875
13812SOL    HW142270   1.669   4.553   2.002  1.7501 -1.8630 -1.6269
13812SOL    HW242271   1.616   4.653   1.902 -0.9679  1.8734  3.1294
13813SOL     OW42272   7.830   1.296   5.316 -0.2418 -0.5453 -0.0846
13813SOL    HW142273   7.811   1.216   5.365  0.8027 -1.6289 -1.3603
13813SOL    HW242274   7.904   1.272   5.260 -0.2241  1.1823 -0.8461
13814SOL     OW42275   7.375   6.285   1.142 -0.4223 -0.0077 -0.2060
13814SOL    HW142276   7.314   6.297   1.215  0.5103  0.0172  0.5890
13814SOL    HW242277   7.363   6.193   1.116 -1.8477  0.3896 -1.0469
13815SOL     OW42278   3.237   0.111   5.894  0.0374  0.2662 -0.1715
13815SOL    HW142279   3.315   0.135   5.943 -1.0308 -0.4337  1.9938
13815SOL    HW242280   3.262   0.034   5.843  0.4538 -0.7331  1.4796
13816SOL     OW42281   5.680   5.583   1.026 -0.0466 -0.1623  0.3591
13816SOL    HW142282   5.774   5.584   1.009 -0.2684 -1.2055 -1.0774
13816SOL    HW242283   5.643   5.530   0.956 -1.5769 -0.8805  1.6414
13817SOL     OW42284   7.580   2.651   4.244 -0.3864  0.5937  0.3766
13817SOL    HW142285   7.634   2.722   4.278 -1.6987  1.0883  1.5389
13817SOL    HW242286   7.638   2.600   4.187  0.7558  2.2079  0.0479
13818SOL     OW42287   4.901   5.260   2.379 -0.4803  0.5097 -0.1294
13818SOL    HW142288   4.956   5.252   2.457 -0.4672 -0.3985 -0.2278
13818SOL    HW242289   4.943   5.328   2.327  0.5475 -0.1580 -0.1965
13819SOL     OW42290   3.325   2.411   7.906 -0.5181 -0.0246  0.8753
13819SOL    HW142291   3.351   2.319   7.900  0.1387  0.2071  0.0275
13819SOL    HW242292   3.251   2.419   7.846 -0.0924  0.1591  0.3667
13820SOL     OW42293   4.998   2.482   4.091  0.5867 -0.5327 -0.2615
13820SOL    HW142294   4.949   2.543   4.036  0.5627 -1.0105 -0.7821
13820SOL    HW242295   4.997   2.400   4.042  0.6215 -0.9516  0.4293
13821SOL     OW42296   6.596   0.507   7.269 -0.2341  1.0471 -0.4063
13821SOL    HW142297   6.633   0.427   7.232 -1.8916 -0.3463  0.7623
13821SOL    HW242298   6.662   0.538   7.330 -1.1234 -1.9103  2.3567
13822SOL     OW42299   0.909   1.470   3.208 -0.6085  0.5862  0.5478
13822SOL    HW142300   0.876   1.398   3.154  2.3805  0.1120 -0.8256
13822SOL    HW242301   0.979   1.509   3.157 -0.7579  3.2285  2.1424
13823SOL     OW42302   1.508   2.082   3.124  0.9984  0.1525  0.9238
13823SOL    HW142303   1.570   2.019   3.088  0.2377  0.2090 -0.5393
13823SOL    HW242304   1.430   2.031   3.143  0.6524  0.5038  0.4640
13824SOL     OW42305   4.903   1.926   2.183  0.1285  0.1250  0.1129
13824SOL    HW142306   4.958   1.873   2.241  1.0678  0.1512 -0.7270
13824SOL    HW242307   4.962   1.953   2.113 -0.7326  0.9700 -0.3013
13825SOL     OW42308   4.627   0.250   1.280  0.6686  0.0058 -0.2159
13825SOL    HW142309   4.590   0.183   1.338  0.6114 -0.8964 -1.2766
13825SOL    HW242310   4.694   0.293   1.333 -2.3070  2.2971  2.1462
13826SOL     OW42311   3.532   6.995   2.122 -0.2743 -0.3436 -0.1293
13826SOL    HW142312   3.465   6.953   2.067 -0.9645  0.3512  0.1682
13826SOL    HW242313   3.547   6.932   2.192 -1.8712  0.1959  0.7479
13827SOL     OW42314   4.829   2.110   0.304 -0.0914 -0.6433  0.4443
13827SOL    HW142315   4.775   2.186   0.283  1.8497  0.9250  0.8684
13827SOL    HW242316   4.857   2.076   0.219  1.0091  0.6443  0.2561
13828SOL     OW42317   5.090   1.552   7.767  0.2395  0.1829  0.6868
13828SOL    HW142318   5.184   1.537   7.758  0.5194  0.3717  2.8131
13828SOL    HW242319   5.067   1.605   7.690  1.2162 -2.3255 -1.4723
13829SOL     OW42320   7.034   2.285   0.203  0.1028 -0.1024 -0.5955
13829SOL    HW142321   6.965   2.336   0.246 -0.3054  0.1942 -1.5721
13829SOL    HW242322   7.018   2.297   0.110  1.2212 -0.3867 -0.8411
13830SOL     OW42323   0.889   0.424   5.864 -0.1403 -0.5927 -0.1676
13830SOL    HW142324   0.869   0.349   5.920 -0.1233 -1.1130 -0.8410
13830SOL    HW242325   0.982   0.414   5.843 -0.3810 -1.0211 -1.1467
13831SOL     OW42326   7.702   6.025   2.615 -0.1066  0.2304 -0.3196
13831SOL    HW142327   7.697   5.939   2.573 -0.8196  1.3559 -2.7751
13831SOL    HW242328   7.784   6.024   2.664 -0.5477 -2.1238  0.4751
13832SOL     OW42329   7.472   7.550   0.564  0.1658  0.3873  0.2445
13832SOL    HW142330   7.525   7.626   0.588 -0.2822  1.1983 -1.2285
13832SOL    HW242331   7.529   7.475   0.579  1.2488  1.1393  0.0120
13833SOL     OW42332   6.243   7.662   1.647 -0.1982  0.0611  0.3027
13833SOL    HW142333   6.270   7.702   1.564  0.4406 -0.5767  0.1928
13833SOL    HW242334   6.147   7.657   1.640 -0.5257  3.2426  1.1145
13834SOL     OW42335   0.894   3.588   4.977 -0.4997 -0.2781  0.0387
13834SOL    HW142336   0.987   3.607   4.969 -0.1995 -0.9403  1.5984
13834SOL    HW242337   0.873   3.536   4.899  0.5822 -0.6766 -0.0031
13835SOL     OW42338   3.216   3.563   0.602 -0.2864 -0.7555  0.4230
13835SOL    HW142339   3.185   3.476   0.628 -0.3072 -0.2820  2.1092
13835SOL    HW242340   3.307   3.548   0.575 -1.4560 -1.9615 -3.4849
13836SOL     OW42341   6.911   4.026   0.835 -0.1152  0.0125  0.1309
13836SOL    HW142342   6.840   4.089   0.849 -0.8303 -0.1701 -2.3033
13836SOL    HW242343   6.948   4.012   0.923 -3.0569  0.1499  1.5203
13837SOL     OW42344   5.696   5.561   3.117  0.2934 -0.2873 -0.4573
13837SOL    HW142345   5.783   5.531   3.146  1.1586  1.5323 -1.0578
13837SOL    HW242346   5.714   5.613   3.039 -1.4527 -0.6173 -1.1029
13838SOL     OW42347   6.735   2.440   5.963 -0.0244 -0.7574  0.0565
13838SOL    HW142348   6.770   2.474   6.045  0.7305 -2.7954  0.6498
13838SOL    HW242349   6.640   2.435   5.977  0.0967 -1.0762  0.8213
13839SOL     OW42350   4.949   1.136   3.967 -0.0190  0.1379 -0.1485
13839SOL    HW142351   4.923   1.209   4.024  0.1011  0.5346 -0.5970
13839SOL    HW242352   4.907   1.155   3.883  1.2692  0.5153 -0.7357
13840SOL     OW42353   0.481   6.865   2.630  0.4177 -0.3460 -0.4631
13840SOL    HW142354   0.500   6.880   2.537 -1.3336  0.2645 -0.7481
13840SOL    HW242355   0.480   6.770   2.640 -0.1331 -0.4261 -1.2334
13841SOL     OW42356   6.600   2.599   1.734  0.0712 -1.0604  0.5090
13841SOL    HW142357   6.616   2.536   1.664  2.1684  0.0487 -0.0861
13841SOL    HW242358   6.651   2.567   1.808 -0.3375 -1.0445  0.7982
13842SOL     OW42359   4.854   4.459   5.361 -0.3097  0.2373 -0.0454
13842SOL    HW142360   4.829   4.426   5.275 -0.6062 -0.8684  0.4419
13842SOL    HW242361   4.831   4.388   5.421 -0.3944  1.1167  0.9827
13843SOL     OW42362   3.246   3.199   5.303  1.0488  0.1438  0.2581
13843SOL    HW142363   3.313   3.243   5.356 -0.1772  0.6475  1.4434
13843SOL    HW242364   3.258   3.234   5.215  1.9163  0.7120  0.5901
13844SOL     OW42365   6.807   1.791   7.519 -0.0949  0.6208 -0.1968
13844SOL    HW142366   6.798   1.881   7.549  1.0734  0.9419 -0.7389
13844SOL    HW242367   6.896   1.765   7.546 -0.7296 -0.6971  0.7631
13845SOL     OW42368   0.954   0.296   3.414 -0.1172  0.5373  0.8743
13845SOL    HW142369   0.951   0.210   3.456  1.3876 -0.4784 -0.9789
13845SOL    HW242370   1.040   0.300   3.373 -0.9461  2.0661 -0.8567
13846SOL     OW42371   3.692   7.728   3.638 -0.6263  0.4252 -0.3925
13846SOL    HW142372   3.786   7.711   3.629 -0.4842  1.4257 -0.8512
13846SOL    HW242373   3.653   7.682   3.563 -0.4539  0.4133 -0.4761
13847SOL     OW42374   3.362   4.235   4.539  0.1741  0.1274 -0.1024
13847SOL    HW142375   3.311   4.284   4.475 -1.4571 -1.6519 -0.2446
13847SOL    HW242376   3.365   4.145   4.505 -0.4020 -0.7949  2.0821
13848SOL     OW42377   1.890   1.218   7.491 -0.2010  0.2480  0.5237
13848SOL    HW142378   1.808   1.173   7.470 -0.9806  1.3054  1.1771
13848SOL    HW242379   1.891   1.222   7.587  0.6012  0.2735  0.5165
13849SOL     OW42380   2.140   6.098   4.071  0.2525 -0.9694  0.1227
13849SOL    HW142381   2.156   6.022   4.015 -2.0163 -0.2229 -1.6766
13849SOL    HW242382   2.171   6.173   4.020 -0.0742 -0.4287  0.7000
13850SOL     OW42383   6.650   4.842   2.018 -0.2384  0.3322  1.3211
13850SOL    HW142384   6.718   4.816   2.079 -1.4263 -1.3713  1.9735
13850SOL    HW242385   6.697   4.868   1.939  1.2273  0.9180  2.3462
13851SOL     OW42386   7.843   0.916   7.162 -0.1111  0.3185  0.4424
13851SOL    HW142387   7.750   0.900   7.145 -0.2450  2.0242 -0.5684
13851SOL    HW242388   7.847   0.936   7.256 -0.1505 -3.5734  1.4577
13852SOL     OW42389   7.550   7.155   0.871  0.2910  0.1945 -0.0583
13852SOL    HW142390   7.609   7.080   0.881  0.9599  0.5654 -1.0454
13852SOL    HW242391   7.517   7.171   0.959 -2.0045 -2.9249 -0.1756
13853SOL     OW42392   0.270   2.257   7.613  0.1772  0.3655  0.0021
13853SOL    HW142393   0.272   2.164   7.590  1.8127  0.6158 -1.0627
13853SOL    HW242394   0.179   2.283   7.600 -0.1758 -0.9347 -0.2837
13854SOL     OW42395   3.305   1.164   4.830  0.0085 -0.0707 -0.2734
13854SOL    HW142396   3.211   1.176   4.813  0.0584 -0.0022 -0.4976
13854SOL    HW242397   3.320   1.208   4.913 -0.2649 -0.5298  0.0250
13855SOL     OW42398   1.360   1.488   2.875 -0.5403 -0.3580 -0.0477
13855SOL    HW142399   1.449   1.475   2.844 -0.1819  0.1514  0.7154
13855SOL    HW242400   1.365   1.471   2.969 -0.8726  1.2817  0.2998
13856SOL     OW42401   7.846   3.763   3.554 -0.1327 -0.1281  0.3848
13856SOL    HW142402   7.791   3.684   3.555  0.0425 -0.2478  1.2114
13856SOL    HW242403   7.787   3.833   3.582 -0.7684  0.3829 -2.0746
13857SOL     OW42404   4.505   7.903   2.657 -0.4673 -0.1223 -0.0745
13857SOL    HW142405   4.479   7.995   2.651 -0.3735 -0.1263 -0.6517
13857SOL    HW242406   4.493   7.869   2.568  0.8392 -0.3104 -0.1971
13858SOL     OW42407   7.253   5.216   6.721 -0.0883 -0.1432 -0.6513
13858SOL    HW142408   7.207   5.137   6.749  0.8644 -1.1717 -1.8229
13858SOL    HW242409   7.258   5.271   6.799 -1.6383 -0.7986 -0.0551
13859SOL     OW42410   3.502   5.640   3.935 -0.5954  0.2559  0.1311
13859SOL    HW142411   3.434   5.698   3.970 -0.6628 -0.2131  0.8143
13859SOL    HW242412   3.501   5.565   3.994 -0.6681 -0.5535 -0.8779
13860SOL     OW42413   5.677   3.877   0.375 -0.5089  0.0778  0.3692
13860SOL    HW142414   5.753   3.920   0.413  0.0234 -0.4996 -0.0088
13860SOL    HW242415   5.617   3.863   0.448  1.0763 -2.2874  1.3320
13861SOL     OW42416   4.448   7.132   0.463 -0.1727 -0.1461 -0.5023
13861SOL    HW142417   4.407   7.070   0.523 -1.4178  2.0876  1.0911
13861SOL    HW242418   4.541   7.110   0.465  0.0301  0.4434  3.1210
13862SOL     OW42419   6.657   7.494   0.219 -0.1918  0.5410  0.1207
13862SOL    HW142420   6.644   7.511   0.126  0.0538 -1.1855 -0.2471
13862SOL    HW242421   6.592   7.550   0.262 -0.4714  1.1776 -1.0797
13863SOL     OW42422   2.650   5.568   4.851  0.0037  0.7959  0.7783
13863SOL    HW142423   2.663   5.549   4.759  0.5759 -0.0257  1.0242
13863SOL    HW242424   2.567   5.526   4.873  1.4564 -1.9491  1.4248
13864SOL     OW42425   3.864   1.947   4.134  0.0684 -0.7452 -0.0621
13864SOL    HW142426   3.780   1.957   4.089 -0.7764 -1.9920  1.1755
13864SOL    HW242427   3.925   1.922   4.064 -0.8120 -0.8839 -0.8083
13865SOL     OW42428   7.215   7.702   4.529 -0.0226  0.0427  0.3621
13865SOL    HW142429   7.228   7.696   4.434  1.3171  3.0852  0.2438
13865SOL    HW242430   7.303   7.691   4.566 -0.4197 -0.3524  1.2150
13866SOL     OW42431   2.925   4.874   4.748  0.0977  0.1092 -0.0254
13866SOL    HW142432   2.963   4.843   4.666 -2.0164 -1.4475 -0.4884
13866SOL    HW242433   2.970   4.823   4.816 -0.0699 -0.5969 -0.4371
13867SOL     OW42434   5.519   4.254   1.745  0.1967 -0.7169  0.1098
13867SOL    HW142435   5.538   4.177   1.691  1.9427 -0.9251  0.9385
13867SOL    HW242436   5.571   4.324   1.706  0.9761 -0.7198  1.0888
13868SOL     OW42437   7.740   7.641   1.043  0.4372  0.0805  0.2221
13868SOL    HW142438   7.741   7.686   1.128  0.6639  0.4685  0.0139
13868SOL    HW242439   7.760   7.709   0.979  0.6974 -0.2947 -0.1050
13869SOL     OW42440   4.185   2.510   4.930 -0.7361 -0.0482 -0.0707
13869SOL    HW142441   4.177   2.445   4.999  1.2993  0.0881  0.3720
13869SOL    HW242442   4.201   2.593   4.977  0.1377  0.1379 -0.6731
13870SOL     OW42443   5.604   2.147   4.714 -0.5419  0.0268  0.5083
13870SOL    HW142444   5.693   2.116   4.698 -0.5019 -0.2095  1.1286
13870SOL    HW242445   5.588   2.212   4.646  0.4087  0.6776  0.8779
13871SOL     OW42446   3.056   2.295   3.537  0.0812  0.8359 -0.2012
13871SOL    HW142447   3.051   2.203   3.511 -0.1749  1.0172 -0.7987
13871SOL    HW242448   3.000   2.302   3.614 -0.5021  0.6511 -0.6086
13872SOL     OW42449   5.868   7.857   7.848  0.3123  0.1077 -0.2287
13872SOL    HW142450   5.803   7.788   7.859  0.7553 -0.4270 -0.9719
13872SOL    HW242451   5.895   7.852   7.757  0.8940  0.7827 -0.1071
13873SOL     OW42452   1.145   2.121   6.140  0.0982  0.6850 -0.0776
13873SOL    HW142453   1.076   2.100   6.203 -2.2195  0.9116 -2.3689
13873SOL    HW242454   1.132   2.214   6.120  0.3995  0.4797 -1.3136
13874SOL     OW42455   7.515   4.786   4.340 -0.2627  0.2456 -0.1863
13874SOL    HW142456   7.462   4.707   4.335 -0.5083  0.3084  1.0838
13874SOL    HW242457   7.489   4.827   4.422  1.0216  0.8107 -0.0362
13875SOL     OW42458   1.659   2.777   6.321 -0.3332 -0.2795  0.2719
13875SOL    HW142459   1.690   2.686   6.328  0.8153 -0.2453 -2.7348
13875SOL    HW242460   1.565   2.772   6.338 -0.3223 -2.0868 -0.0177
13876SOL     OW42461   1.932   5.216   3.658 -0.3007  0.2395  0.2745
13876SOL    HW142462   2.012   5.268   3.668  0.7049 -1.1806 -0.1040
13876SOL    HW242463   1.916   5.217   3.564  0.6136 -1.3628  0.0684
13877SOL     OW42464   4.793   3.232   3.661  0.3947 -0.0818  0.4664
13877SOL    HW142465   4.783   3.215   3.568  0.2879  0.7329  0.3203
13877SOL    HW242466   4.805   3.327   3.667  0.5848 -0.1464  1.2634
13878SOL     OW42467   4.203   6.912   3.524  0.7023 -0.4002 -0.1489
13878SOL    HW142468   4.238   6.975   3.460  0.9730  0.4639  0.8157
13878SOL    HW242469   4.123   6.953   3.556  0.3753 -0.9969 -0.1943
13879SOL     OW42470   2.382   1.829   5.764 -0.8056 -0.1372  0.2336
13879SOL    HW142471   2.380   1.844   5.670 -0.1659  2.3859  0.5599
13879SOL    HW242472   2.296   1.858   5.795 -1.5381 -2.2449  0.3209
13880SOL     OW42473   5.833   1.363   1.156  0.1720  1.0921 -0.3879
13880SOL    HW142474   5.772   1.394   1.088 -1.3068  0.5910  0.6697
13880SOL    HW242475   5.785   1.295   1.203  1.0939  1.5323  1.2691
13881SOL     OW42476   7.114   4.495   3.186  0.0526  0.5206 -1.1407
13881SOL    HW142477   7.198   4.527   3.218 -0.3819  1.1714 -0.6301
13881SOL    HW242478   7.132   4.466   3.096  0.3997  2.4390 -1.7242
13882SOL     OW42479   3.795   3.127   6.353 -0.2473 -0.7482 -0.0917
13882SOL    HW142480   3.887   3.108   6.333  0.6079  0.8553  1.9918
13882SOL    HW242481   3.779   3.212   6.311  0.4641  0.8491  2.6430
13883SOL     OW42482   4.191   3.448   4.304 -0.2401  0.5773  0.3363
13883SOL    HW142483   4.174   3.371   4.358  0.1866  0.5730  0.4680
13883SOL    HW242484   4.184   3.522   4.365  0.5612  0.5476  0.4679
13884SOL     OW42485   2.771   4.646   0.966 -0.3993 -0.0428 -0.1534
13884SOL    HW142486   2.847   4.667   1.021 -0.3709 -3.3465  1.3162
13884SOL    HW242487   2.809   4.605   0.888 -0.5603  2.7636 -1.8521
13885SOL     OW42488   4.855   7.383   5.825  0.0146  0.2943  0.2338
13885SOL    HW142489   4.899   7.455   5.780 -0.8961  0.2418 -0.7962
13885SOL    HW242490   4.925   7.332   5.864  0.9494 -0.1269 -1.8583
13886SOL     OW42491   7.346   3.452   2.908 -0.0682 -0.2417  0.1046
13886SOL    HW142492   7.271   3.447   2.967  0.8671 -0.3489  1.3409
13886SOL    HW242493   7.379   3.362   2.903  0.1896 -0.1351 -0.1483
13887SOL     OW42494   3.093   3.494   0.307 -0.0299  0.5317  0.1757
13887SOL    HW142495   3.062   3.498   0.398 -0.4026  0.1664  0.0688
13887SOL    HW242496   3.177   3.539   0.309  0.0106  0.4477  0.7228
13888SOL     OW42497   2.940   1.084   5.628  0.5283 -0.3077 -0.9084
13888SOL    HW142498   2.980   1.164   5.662  1.7381 -0.8134 -1.0613
13888SOL    HW242499   2.919   1.104   5.537 -0.1053  0.1461 -0.6685
13889SOL     OW42500   3.670   3.076   7.340 -0.2807  0.0474  0.7432
13889SOL    HW142501   3.764   3.076   7.357 -0.0791 -0.0058 -0.3290
13889SOL    HW242502   3.637   2.997   7.384  0.0649  0.3850  1.6350
13890SOL     OW42503   2.280   6.943   2.242  1.0145 -0.1474  0.4736
13890SOL    HW142504   2.287   7.038   2.229  1.4826 -0.0309  1.4780
13890SOL    HW242505   2.344   6.923   2.310 -1.9328 -0.4860  3.4117
13891SOL     OW42506   0.277   3.287   6.526 -0.4035  0.5621  0.8808
13891SOL    HW142507   0.305   3.321   6.611  1.1773  1.6316 -0.0119
13891SOL    HW242508   0.201   3.340   6.503  0.0165  1.2445  1.0241
13892SOL     OW42509   7.260   2.693   2.556 -0.1337 -0.8524  0.1507
13892SOL    HW142510   7.345   2.657   2.530 -0.1860 -0.8167 -0.0736
13892SOL    HW242511   7.196   2.634   2.516 -0.2320 -0.1319 -0.8024
13893SOL     OW42512   4.487   2.498   3.044  0.0358  0.0008 -0.0872
13893SOL    HW142513   4.463   2.406   3.046  1.5473 -0.4214  1.5408
13893SOL    HW242514   4.403   2.545   3.039 -0.7113 -1.4271 -1.9061
13894SOL     OW42515   7.732   5.861   0.455  0.8096 -0.2649  0.1484
13894SOL    HW142516   7.688   5.932   0.500  2.3400  1.3574 -0.8000
13894SOL    HW242517   7.689   5.856   0.370  1.2607  0.1060 -0.1037
13895SOL     OW42518   3.548   1.282   1.480  0.3312 -0.2759 -0.0590
13895SOL    HW142519   3.528   1.327   1.562 -0.9350  0.9006 -0.9695
13895SOL    HW242520   3.643   1.275   1.478  0.3822 -0.2075  1.4389
13896SOL     OW42521   1.363   0.733   2.774  0.2086  0.5146 -0.7157
13896SOL    HW142522   1.282   0.764   2.814 -0.5696 -1.5196 -0.6371
13896SOL    HW242523   1.425   0.726   2.847 -0.1293  0.2009 -0.4609
13897SOL     OW42524   1.560   0.599   4.223  0.0084 -0.4163  0.1187
13897SOL    HW142525   1.517   0.681   4.201  1.1083  0.0714 -0.2900
13897SOL    HW242526   1.526   0.576   4.310 -0.8178  0.1102 -0.0584
13898SOL     OW42527   7.141   0.506   7.586 -0.0120  0.2291  0.2837
13898SOL    HW142528   7.169   0.510   7.494  0.7751 -1.1647  0.4303
13898SOL    HW242529   7.083   0.430   7.590  0.3090  0.0149  1.0193
13899SOL     OW42530   7.667   3.865   5.000 -0.3816 -0.4646  0.0740
13899SOL    HW142531   7.573   3.859   5.020 -0.2652  0.0583  0.8513
13899SOL    HW242532   7.677   3.820   4.917 -1.6782  1.2687 -1.1046
13900SOL     OW42533   0.039   6.121   5.339  0.3275  0.2241  0.9679
13900SOL    HW142534   0.112   6.179   5.316  1.6530 -1.9431 -0.7680
13900SOL    HW242535   0.021   6.139   5.431  1.1406  2.8133  0.6818
13901SOL     OW42536   2.196   1.127   0.608 -0.4437 -0.1849  0.0432
13901SOL    HW142537   2.149   1.167   0.534 -0.7948 -1.0342 -0.2191
13901SOL    HW242538   2.263   1.072   0.566 -0.1969 -0.1428  0.3807
13902SOL     OW42539   6.383   4.512   6.470  0.0472  0.1287 -0.1353
13902SOL    HW142540   6.411   4.510   6.379  1.3593  0.1410  0.2544
13902SOL    HW242541   6.422   4.591   6.506  1.2744 -0.9386  0.9609
13903SOL     OW42542   0.575   2.923   1.501 -0.6480 -0.2901  0.1421
13903SOL    HW142543   0.615   2.999   1.458  2.7116 -2.2754 -0.6605
13903SOL    HW242544   0.507   2.894   1.441  1.2784 -0.6296 -2.0495
13904SOL     OW42545   1.824   5.865   5.171 -0.8548  0.4520 -0.5224
13904SOL    HW142546   1.909   5.900   5.146 -0.6412  0.5431  0.3031
13904SOL    HW242547   1.769   5.875   5.093 -0.0238  0.1034 -1.1581
13905SOL     OW42548   2.041   1.425   2.114  0.2166 -0.5209 -0.4870
13905SOL    HW142549   2.011   1.514   2.096  0.7047 -0.2081  0.2041
13905SOL    HW242550   2.063   1.389   2.028 -2.0673 -0.7613 -1.0238
13906SOL     OW42551   7.717   5.224   7.170  0.2066  0.1248  0.2965
13906SOL    HW142552   7.768   5.228   7.251 -0.1442 -3.0284  0.8082
13906SOL    HW242553   7.780   5.248   7.101  1.3305  0.0098  1.2415
13907SOL     OW42554   5.617   7.508   7.196 -0.2494  0.1461 -0.3114
13907SOL    HW142555   5.704   7.467   7.199  0.5926  1.8458  1.1224
13907SOL    HW242556   5.636   7.602   7.191 -1.9398  0.6774  1.6749
13908SOL     OW42557   7.469   7.708   4.694  0.5642  0.9865 -0.2333
13908SOL    HW142558   7.427   7.660   4.766  2.0311 -1.4159 -0.8660
13908SOL    HW242559   7.506   7.785   4.736 -1.6448  1.5179  0.9002
13909SOL     OW42560   0.801   7.200   7.669 -0.2599  0.0497 -0.1963
13909SOL    HW142561   0.774   7.262   7.601 -0.3045  0.3707  0.1068
13909SOL    HW242562   0.897   7.205   7.669 -0.1711 -1.1900 -1.3645
13910SOL     OW42563   1.863   3.483   1.603  0.2423  0.6739  0.2549
13910SOL    HW142564   1.912   3.531   1.669 -0.3104 -1.9914  2.8400
13910SOL    HW242565   1.771   3.492   1.629 -0.3245  1.8641 -1.8761
13911SOL     OW42566   2.206   6.005   7.575  0.5147  0.0548 -0.2889
13911SOL    HW142567   2.265   6.041   7.508 -0.8400  3.6849  0.2246
13911SOL    HW242568   2.260   5.944   7.624  2.4763 -0.2779 -2.6694
13912SOL     OW42569   1.862   0.565   1.653  0.0509 -0.4472  0.5444
13912SOL    HW142570   1.912   0.550   1.733 -0.1779  0.0408  0.7800
13912SOL    HW242571   1.865   0.481   1.607  2.4600 -0.0278 -0.2301
13913SOL     OW42572   4.161   1.967   6.880  0.3925 -0.7294  0.3509
13913SOL    HW142573   4.121   2.020   6.949 -0.8382 -0.4019 -0.5959
13913SOL    HW242574   4.115   1.883   6.886 -0.0714 -0.5324 -0.3884
13914SOL     OW42575   0.939   3.561   1.489 -0.1264 -0.2436 -0.8316
13914SOL    HW142576   1.000   3.516   1.547  0.0727  1.0949  0.0612
13914SOL    HW242577   0.911   3.495   1.426  1.1231 -1.2513 -0.3623
13915SOL     OW42578   5.168   5.536   0.850  0.5261 -0.7836  0.5791
13915SOL    HW142579   5.075   5.549   0.867  0.6623 -0.1497  0.9225
13915SOL    HW242580   5.201   5.493   0.929  0.3462 -1.9132  0.0456
13916SOL     OW42581   0.071   7.934   3.121 -0.4420 -0.6460 -0.2075
13916SOL    HW142582   0.166   7.941   3.130 -0.6974  0.9867  2.5521
13916SOL    HW242583   0.052   7.970   3.035  1.3033  1.6104  0.2493
13917SOL     OW42584   3.432   0.756   6.163 -0.3744 -0.1811 -0.0136
13917SOL    HW142585   3.426   0.715   6.077  2.2027 -2.4235  0.7189
13917SOL    HW242586   3.449   0.849   6.144 -4.1348  0.3526 -1.7498
13918SOL     OW42587   0.522   1.905   5.317 -0.3544  0.2058 -0.8489
13918SOL    HW142588   0.560   1.952   5.242  0.7057  0.5711 -0.1217
13918SOL    HW242589   0.552   1.815   5.307  1.8469  0.7294  0.3630
13919SOL     OW42590   7.017   1.639   5.593 -0.5568  0.4763 -0.1414
13919SOL    HW142591   7.108   1.645   5.565 -0.7796  0.1272 -0.9706
13919SOL    HW242592   6.968   1.686   5.526 -0.9604  1.0005  0.5041
13920SOL     OW42593   0.370   4.968   0.709  0.1613  0.3065 -0.0219
13920SOL    HW142594   0.286   4.933   0.679  2.4649 -3.9584 -2.5260
13920SOL    HW242595   0.376   5.054   0.668 -1.4700 -0.8508 -3.0497
13921SOL     OW42596   0.950   2.670   7.320  0.2282  0.0695  0.0331
13921SOL    HW142597   0.874   2.677   7.378  0.5373 -0.3321  0.4948
13921SOL    HW242598   0.929   2.727   7.246 -0.9642 -0.7957 -0.3320
13922SOL     OW42599   6.993   1.646   7.097  0.5381  0.7850  0.2983
13922SOL    HW142600   6.898   1.645   7.113  0.5098  0.9046  0.1358
13922SOL    HW242601   7.007   1.575   7.033  0.6012  0.5565  0.5629
13923SOL     OW42602   7.676   2.995   1.241  0.1451  0.3986 -0.2258
13923SOL    HW142603   7.736   3.070   1.240 -0.0662  0.6252  1.5670
13923SOL    HW242604   7.593   3.030   1.208  0.7951  0.2094 -2.2149
13924SOL     OW42605   4.208   1.631   5.676  0.3561 -0.8085  0.0204
13924SOL    HW142606   4.242   1.560   5.622  0.4371 -0.1086 -0.8870
13924SOL    HW242607   4.126   1.597   5.712  0.0903 -1.1594 -0.8790
13925SOL     OW42608   3.728   1.847   4.718  0.0951  0.0610  0.0127
13925SOL    HW142609   3.634   1.835   4.706  0.4452 -1.7965 -1.2166
13925SOL    HW242610   3.744   1.937   4.690 -1.3516  0.4881  0.4928
13926SOL     OW42611   1.815   3.923   5.813 -0.2162 -0.4809 -0.0118
13926SOL    HW142612   1.730   3.958   5.841 -0.3345 -1.5210  1.0320
13926SOL    HW242613   1.808   3.917   5.718  0.0860  2.9278 -0.3662
13927SOL     OW42614   7.345   0.335   3.000  0.3418  0.5434 -0.2774
13927SOL    HW142615   7.336   0.243   2.976  0.8369  0.1355  1.0110
13927SOL    HW242616   7.379   0.378   2.921  0.1195 -0.3762 -0.8784
13928SOL     OW42617   5.346   1.512   7.658  0.3024 -0.2279  0.0546
13928SOL    HW142618   5.366   1.570   7.584 -0.2592 -0.7348 -0.5061
13928SOL    HW242619   5.410   1.441   7.650 -0.4119 -0.8260 -0.5807
13929SOL     OW42620   1.575   6.002   5.095 -0.0459  0.3977 -0.0905
13929SOL    HW142621   1.608   5.967   5.178  1.8892 -0.7790 -1.2722
13929SOL    HW242622   1.593   6.096   5.100 -1.1882  0.5850  1.3207
13930SOL     OW42623   3.060   2.844   6.898 -0.4108 -0.1965  0.0920
13930SOL    HW142624   2.990   2.789   6.863 -0.9050 -0.1463  0.9837
13930SOL    HW242625   3.140   2.807   6.860 -0.7938 -1.1509  0.1912
13931SOL     OW42626   3.158   6.650   1.102 -0.5639  0.1602  0.0422
13931SOL    HW142627   3.133   6.558   1.091  0.6263 -0.2154  0.2825
13931SOL    HW242628   3.231   6.647   1.164  1.2822  0.9852 -1.9796
13932SOL     OW42629   3.713   5.329   4.673 -0.3226 -0.8804  0.2317
13932SOL    HW142630   3.791   5.275   4.685  0.6664 -0.3721 -2.9188
13932SOL    HW242631   3.643   5.266   4.655  0.0763 -1.2485 -0.0615
13933SOL     OW42632   4.487   0.694   5.091 -0.3170 -0.0965 -0.1279
13933SOL    HW142633   4.454   0.707   5.180 -2.2009  3.0738 -1.1069
13933SOL    HW242634   4.485   0.781   5.052  0.6628 -1.3263 -3.2273
13934SOL     OW42635   5.154   4.356   7.113  0.2740  0.3124  0.3317
13934SOL    HW142636   5.163   4.349   7.018 -0.8014  1.9382  0.0573
13934SOL    HW242637   5.202   4.436   7.136 -0.5555  0.6532  0.9511
13935SOL     OW42638   7.118   6.423   1.596 -0.7440 -0.0939  0.3604
13935SOL    HW142639   7.169   6.393   1.671  0.5282 -1.0786 -0.8292
13935SOL    HW242640   7.031   6.385   1.608 -0.5908 -0.1547  1.3532
13936SOL     OW42641   2.149   3.094   5.484  0.1017 -0.1281 -0.3223
13936SOL    HW142642   2.134   3.186   5.463 -1.3819 -0.2732 -0.0408
13936SOL    HW242643   2.210   3.095   5.557  0.0976  0.6377 -0.3261
13937SOL     OW42644   6.847   3.786   4.430 -0.7391  0.3286 -0.0554
13937SOL    HW142645   6.756   3.800   4.457 -0.6849  1.2486 -0.3194
13937SOL    HW242646   6.890   3.870   4.445  1.0942 -1.0408  3.8731
13938SOL     OW42647   1.323   4.270   7.014  0.0210  0.1708 -0.2582
13938SOL    HW142648   1.372   4.284   6.934 -2.1939 -0.8588 -1.8892
13938SOL    HW242649   1.337   4.177   7.036 -0.9051 -0.0570 -0.5749
13939SOL     OW42650   1.118   6.955   5.091 -0.1303  0.5850 -0.0017
13939SOL    HW142651   1.197   6.959   5.037 -0.2418  0.0176 -0.2173
13939SOL    HW242652   1.150   6.936   5.179  0.0034  0.7921 -0.0056
13940SOL     OW42653   6.191   4.113   1.950 -0.7166 -0.7139 -0.1527
13940SOL    HW142654   6.240   4.134   1.871 -1.4485 -0.8003 -0.6395
13940SOL    HW242655   6.233   4.164   2.019 -0.5426 -0.0456 -0.7401
13941SOL     OW42656   3.903   3.669   7.558  0.3162 -0.6934 -0.1904
13941SOL    HW142657   3.922   3.737   7.623  0.0222 -0.0034 -0.8072
13941SOL    HW242658   3.981   3.666   7.504  0.3389 -0.8676 -0.1468
13942SOL     OW42659   0.608   3.110   3.939 -0.5811  0.1507  0.5434
13942SOL    HW142660   0.703   3.122   3.936 -0.4717 -0.7407  0.2447
13942SOL    HW242661   0.595   3.016   3.927 -1.6213  0.5307 -1.9119
13943SOL     OW42662   1.455   7.439   6.252  0.3990 -0.3324  0.9632
13943SOL    HW142663   1.491   7.479   6.331  1.2089  0.6015  0.1438
13943SOL    HW242664   1.475   7.502   6.182  0.5700 -1.5918 -0.1513
13944SOL     OW42665   1.548   7.288   0.634 -0.6256  0.1538 -0.2909
13944SOL    HW142666   1.538   7.299   0.540 -1.8637  0.6662 -0.1195
13944SOL    HW242667   1.550   7.193   0.647  0.1351  0.0779 -0.8696
13945SOL     OW42668   1.430   4.853   1.077 -0.0281 -0.1514  0.3801
13945SOL    HW142669   1.503   4.874   1.135  2.0094 -2.0474 -1.2814
13945SOL    HW242670   1.352   4.881   1.125  1.7159  1.4121  2.5209
13946SOL     OW42671   6.555   1.743   3.761  0.3522 -0.1556  0.3331
13946SOL    HW142672   6.576   1.812   3.698  0.8749 -0.9937 -0.4254
13946SOL    HW242673   6.460   1.734   3.755  0.1826  0.9645  0.9561
13947SOL     OW42674   4.916   0.334   3.306 -0.4281  0.4484 -0.2561
13947SOL    HW142675   4.968   0.258   3.330 -0.5279  0.4325 -0.0952
13947SOL    HW242676   4.831   0.299   3.281 -0.6470  0.5555  0.3365
13948SOL     OW42677   3.128   0.146   5.324 -0.6172  0.2824 -0.0408
13948SOL    HW142678   3.163   0.216   5.378  0.3509  0.6040 -1.0547
13948SOL    HW242679   3.201   0.119   5.268 -1.4045 -0.4840 -0.7396
13949SOL     OW42680   5.856   1.289   6.555  0.2641 -0.1891  0.8243
13949SOL    HW142681   5.790   1.234   6.598  0.6938 -1.0486  0.3995
13949SOL    HW242682   5.893   1.233   6.487  2.2192 -0.1377  1.7646
13950SOL     OW42683   6.279   0.811   6.243 -0.0036  0.1963  0.2206
13950SOL    HW142684   6.258   0.759   6.321  0.0533 -1.0369 -0.5761
13950SOL    HW242685   6.218   0.780   6.176  0.5592  0.6136 -0.4965
13951SOL     OW42686   3.486   5.437   6.640  0.3670 -0.0685  0.7492
13951SOL    HW142687   3.486   5.432   6.545  1.3781  0.5257  0.7104
13951SOL    HW242688   3.407   5.486   6.662  0.0795 -0.2957  0.2303
13952SOL     OW42689   5.112   5.997   2.787 -0.0086  0.2024 -0.2007
13952SOL    HW142690   5.166   6.035   2.856 -0.5948 -2.2142  1.7096
13952SOL    HW242691   5.173   5.942   2.737 -0.0978 -0.0681 -0.0090
13953SOL     OW42692   1.296   6.946   5.997  0.2526  0.6916 -0.0639
13953SOL    HW142693   1.343   6.863   5.992 -1.3033 -0.1633 -1.7712
13953SOL    HW242694   1.233   6.934   6.069 -0.4729  0.0764 -0.7823
13954SOL     OW42695   1.332   0.048   2.947  0.1687  0.5662  0.6428
13954SOL    HW142696   1.323   0.091   3.032 -2.1919  0.3814  0.5568
13954SOL    HW242697   1.304  -0.042   2.962 -0.4447  0.5731 -0.3325
13955SOL     OW42698   3.752   0.304   6.392 -0.3894 -0.1499 -0.1530
13955SOL    HW142699   3.730   0.377   6.451  1.4763  0.3518 -0.0318
13955SOL    HW242700   3.705   0.229   6.428 -1.4350  0.7357  0.3869
13956SOL     OW42701   2.575   3.538   2.301 -0.5529  0.3237  0.0252
13956SOL    HW142702   2.567   3.497   2.387  1.5440 -0.0433  0.1047
13956SOL    HW242703   2.605   3.467   2.244  1.7901  1.3435 -0.1348
13957SOL     OW42704   2.769   1.543   7.501  0.6089 -0.0510  0.7082
13957SOL    HW142705   2.689   1.539   7.553  1.3931  1.3569  2.0959
13957SOL    HW242706   2.767   1.464   7.448 -1.8344  0.0745  0.4958
13958SOL     OW42707   3.408   0.163   6.395 -0.1924  0.0352  0.3899
13958SOL    HW142708   3.341   0.154   6.463  0.4693  0.8145  1.1724
13958SOL    HW242709   3.395   0.252   6.361  1.0267  0.5600  1.2184
13959SOL     OW42710   3.652   0.815   5.832 -0.1617 -0.0678 -0.1604
13959SOL    HW142711   3.708   0.772   5.896 -0.9839 -0.5440  0.2626
13959SOL    HW242712   3.653   0.907   5.857 -0.4907 -0.2529  0.5713
13960SOL     OW42713   7.024   7.928   4.319  0.3605  0.3008  0.2706
13960SOL    HW142714   7.023   7.886   4.233 -0.6884  3.7911 -1.6077
13960SOL    HW242715   7.114   7.959   4.329  0.0375  1.5501 -0.5173
13961SOL     OW42716   3.435   4.944   7.073  0.2839 -0.0926 -0.4299
13961SOL    HW142717   3.352   4.910   7.040  0.6545 -0.2193 -1.2628
13961SOL    HW242718   3.484   4.867   7.102 -0.2554  0.0671  0.9522
13962SOL     OW42719   4.531   0.543   5.808  0.1984  0.6140 -0.5585
13962SOL    HW142720   4.554   0.596   5.731  0.0653 -1.5381 -2.1852
13962SOL    HW242721   4.436   0.553   5.816 -0.0477 -0.4067 -1.7603
13963SOL     OW42722   6.847   1.564   3.077  0.2516 -0.4838  0.3627
13963SOL    HW142723   6.886   1.505   3.013  1.6035 -0.6009  1.2758
13963SOL    HW242724   6.818   1.639   3.025  0.9543 -0.7589 -0.4471
13964SOL     OW42725   0.925   4.744   6.082 -0.7615  0.1449  0.0471
13964SOL    HW142726   0.947   4.806   6.013  0.9350  0.8611  1.1657
13964SOL    HW242727   0.897   4.799   6.155 -0.6430 -0.4865  0.5694
13965SOL     OW42728   1.072   5.130   5.313 -0.2615 -0.0311  0.0278
13965SOL    HW142729   1.042   5.101   5.399  0.0593 -0.6684 -0.0683
13965SOL    HW242730   1.167   5.128   5.319 -0.2290  1.3181  0.1139
13966SOL     OW42731   3.300   0.642   3.139  0.4719  0.2908 -0.4018
13966SOL    HW142732   3.342   0.599   3.065  0.8311  2.7081 -1.6959
13966SOL    HW242733   3.340   0.729   3.142 -1.6157  1.2878  0.8141
13967SOL     OW42734   2.523   5.935   0.972  0.0511  0.1715  0.4106
13967SOL    HW142735   2.481   5.908   1.053 -0.3934 -0.0500  0.1115
13967SOL    HW242736   2.546   6.027   0.986 -1.3890  0.5858  0.2500
13968SOL     OW42737   5.905   7.862   6.643  0.0768  0.8044  0.1716
13968SOL    HW142738   5.995   7.885   6.620  0.8760 -0.9295  1.3745
13968SOL    HW242739   5.905   7.858   6.738 -0.3729 -2.3088  0.1406
13969SOL     OW42740   1.037   3.196   2.687  0.3722 -0.0332  0.3152
13969SOL    HW142741   1.036   3.100   2.687  2.3375 -0.1029 -0.3941
13969SOL    HW242742   1.072   3.220   2.773 -1.6096  0.1385  1.1152
13970SOL     OW42743   0.901   5.884   4.993  0.2539  0.8608 -0.3378
13970SOL    HW142744   0.889   5.976   5.015 -2.4586  0.9797 -1.8696
13970SOL    HW242745   0.901   5.882   4.897  1.1190 -0.6575 -0.3344
13971SOL     OW42746   5.781   5.962   7.885  0.2516 -0.0363  0.0572
13971SOL    HW142747   5.766   5.973   7.979 -0.9901 -0.9225 -0.0153
13971SOL    HW242748   5.717   6.020   7.843  0.6244  0.1589 -0.2520
13972SOL     OW42749   3.292   1.102   2.813 -0.3581  0.5712  0.0612
13972SOL    HW142750   3.207   1.124   2.775 -0.1303  2.3053  0.4601
13972SOL    HW242751   3.274   1.080   2.904 -0.3830  1.0425  0.1736
13973SOL     OW42752   3.124   0.849   5.653 -0.3691  0.2370  0.3303
13973SOL    HW142753   3.060   0.789   5.615 -0.2516 -0.3327  1.0260
13973SOL    HW242754   3.127   0.923   5.591 -1.0613 -0.1227 -0.1424
13974SOL     OW42755   3.273   2.734   2.146 -0.3168  0.5100 -0.3715
13974SOL    HW142756   3.228   2.818   2.144 -2.2889 -0.4827 -0.4176
13974SOL    HW242757   3.310   2.724   2.058  0.7871  1.7257 -0.0692
13975SOL     OW42758   7.738   3.486   5.527  0.7293  0.1839 -0.5776
13975SOL    HW142759   7.816   3.518   5.572 -0.0055  2.6833 -0.9523
13975SOL    HW242760   7.665   3.519   5.579 -0.0974 -0.1349 -1.5001
13976SOL     OW42761   1.498   4.068   3.842 -0.6424 -0.2452  0.4447
13976SOL    HW142762   1.511   4.111   3.926 -0.0794  1.4723 -0.4714
13976SOL    HW242763   1.578   4.087   3.792 -2.2259  1.5574 -1.6007
13977SOL     OW42764   0.717   7.275   2.523  0.7534  0.0025 -0.2154
13977SOL    HW142765   0.768   7.356   2.514 -0.7190  1.1030  0.7784
13977SOL    HW242766   0.772   7.218   2.577  1.3343  0.7987  0.0648
13978SOL     OW42767   2.843   3.237   4.653 -0.2696 -0.0413  0.4601
13978SOL    HW142768   2.920   3.213   4.705  0.0225 -1.9882 -0.7363
13978SOL    HW242769   2.831   3.163   4.593 -2.6205  0.5710  0.0694
13979SOL     OW42770   7.024   3.139   4.213  0.1752  0.2598 -0.8465
13979SOL    HW142771   6.940   3.094   4.222 -1.1313  2.5789 -0.7483
13979SOL    HW242772   7.078   3.101   4.282 -0.7231 -1.3738 -0.9856
13980SOL     OW42773   4.841   5.666   4.140  0.3091 -0.1131 -0.0798
13980SOL    HW142774   4.881   5.605   4.077  1.7344  1.5326 -0.8379
13980SOL    HW242775   4.822   5.612   4.217  1.3826 -1.5427 -0.7729
13981SOL     OW42776   3.688   4.894   3.062 -0.3625 -0.4678 -0.4568
13981SOL    HW142777   3.747   4.851   3.125 -1.4951  0.5126  1.3669
13981SOL    HW242778   3.649   4.822   3.013 -0.7505 -1.4403  1.1964
13982SOL     OW42779   3.625   1.791   4.990 -0.2014 -0.3793 -0.1854
13982SOL    HW142780   3.649   1.824   4.903 -0.3279 -0.9256 -0.4335
13982SOL    HW242781   3.530   1.803   4.995 -0.1894 -0.3154 -0.1072
13983SOL     OW42782   0.864   7.356   5.197 -0.0839 -0.1844 -0.0531
13983SOL    HW142783   0.912   7.349   5.280  0.9123 -0.1539 -0.6077
13983SOL    HW242784   0.819   7.273   5.188  0.5966 -0.5706  0.0458
13984SOL     OW42785   5.017   7.699   7.041 -0.0199 -0.0680  0.4969
13984SOL    HW142786   4.933   7.680   7.000 -0.2370 -0.3311  1.0551
13984SOL    HW242787   5.029   7.629   7.105  1.2576 -0.7944 -0.5093
13985SOL     OW42788   3.862   7.054   6.732  0.2163 -0.0202 -0.0163
13985SOL    HW142789   3.831   7.055   6.641  0.2051  1.0277 -0.0125
13985SOL    HW242790   3.877   7.146   6.753 -1.4163 -0.0563  1.5949
13986SOL     OW42791   6.609   5.459   3.815  0.1823  0.2063 -0.0827
13986SOL    HW142792   6.550   5.440   3.742 -0.2489  1.0364  0.0474
13986SOL    HW242793   6.690   5.488   3.773 -0.6547  2.4565 -0.2425
13987SOL     OW42794   0.977   0.497   7.296 -0.1666 -0.1189  0.1156
13987SOL    HW142795   0.995   0.557   7.224 -1.0803 -1.1635 -1.0149
13987SOL    HW242796   0.939   0.553   7.364  2.9479  1.3328  0.8527
13988SOL     OW42797   5.228   7.047   6.621 -0.1677 -0.1272 -0.2486
13988SOL    HW142798   5.256   7.017   6.707 -2.6530 -0.8285  0.4014
13988SOL    HW242799   5.230   7.142   6.627 -0.0537 -0.1703  0.5049
13989SOL     OW42800   7.152   4.209   4.804  0.6074  0.2993 -0.3735
13989SOL    HW142801   7.103   4.240   4.728  0.9144  2.0173  0.0869
13989SOL    HW242802   7.089   4.215   4.876  0.2728 -1.4573 -0.4770
13990SOL     OW42803   7.536   3.684   3.945 -0.0228 -0.3357  0.2265
13990SOL    HW142804   7.619   3.670   3.900 -0.4501 -0.7534 -0.4577
13990SOL    HW242805   7.474   3.705   3.874  0.1025  3.0197  0.9586
13991SOL     OW42806   1.108   7.091   2.099 -0.4703 -0.5615  0.3325
13991SOL    HW142807   1.031   7.039   2.078 -3.0296  2.8248  0.5237
13991SOL    HW242808   1.140   7.121   2.014  0.6542 -1.8535  0.2637
13992SOL     OW42809   0.596   2.863   2.050 -0.1352 -0.3062 -0.0338
13992SOL    HW142810   0.581   2.787   1.992 -0.8669 -0.5727  0.4878
13992SOL    HW242811   0.591   2.938   1.991  1.5074 -0.6822 -0.7265
13993SOL     OW42812   2.425   2.846   5.643  0.0350 -0.5104  0.1445
13993SOL    HW142813   2.483   2.774   5.616  0.3431 -0.4905  0.7464
13993SOL    HW242814   2.409   2.895   5.562 -0.7249 -1.6384 -0.4170
13994SOL     OW42815   7.075   5.156   1.702 -0.3521  0.2863  0.0881
13994SOL    HW142816   7.134   5.221   1.741  0.6023 -0.5717  0.1041
13994SOL    HW242817   7.060   5.092   1.772 -0.5616  0.0045 -0.2145
13995SOL     OW42818   6.328   4.948   6.067 -0.0020 -0.6450 -0.0661
13995SOL    HW142819   6.393   4.892   6.110  0.7011 -0.3400 -0.7224
13995SOL    HW242820   6.272   4.888   6.019  0.0316 -0.8732  0.1767
13996SOL     OW42821   5.305   0.877   5.365 -0.0582  0.1857  0.0957
13996SOL    HW142822   5.397   0.883   5.389  0.7227 -5.4681  0.0484
13996SOL    HW242823   5.296   0.932   5.288  3.5446  0.2442 -0.4473
13997SOL     OW42824   5.779   0.228   6.021 -0.3224  0.2476  0.7778
13997SOL    HW142825   5.766   0.263   5.932 -1.8515 -1.1176  0.4164
13997SOL    HW242826   5.828   0.147   6.009 -2.1343 -0.9399  0.9182
13998SOL     OW42827   1.084   1.109   4.435 -0.1420 -0.4665 -0.3096
13998SOL    HW142828   1.097   1.030   4.383  0.1390 -0.3831 -0.3675
13998SOL    HW242829   1.012   1.088   4.494 -0.5949 -0.5004 -0.8579
13999SOL     OW42830   5.418   5.630   4.382 -0.1545  0.2116 -0.3119
13999SOL    HW142831   5.460   5.581   4.452  1.2393  0.9943 -0.5780
13999SOL    HW242832   5.489   5.654   4.322 -1.2975 -0.4515 -2.0313
14000SOL     OW42833   0.339   4.328   5.133  0.5650  0.2331 -0.2510
14000SOL    HW142834   0.410   4.382   5.098  0.5573 -0.4002 -1.2796
14000SOL    HW242835   0.260   4.363   5.092  0.2641  0.9586  0.9164
14001SOL     OW42836   6.131   5.049   4.383 -0.1169  0.7357  0.3161
14001SOL    HW142837   6.191   5.110   4.427  0.1674 -0.1496  1.1967
14001SOL    HW242838   6.165   5.043   4.293  1.3593 -0.0201  0.8936
14002SOL     OW42839   5.439   1.609   6.698 -0.3193  0.3730  0.1754
14002SOL    HW142840   5.355   1.650   6.677 -0.5296 -0.2417 -0.2035
14002SOL    HW242841   5.502   1.649   6.638 -0.2436  1.1759  0.7757
14003SOL     OW42842   3.562   4.478   3.356 -0.1580  0.1838  0.1913
14003SOL    HW142843   3.531   4.521   3.435  1.5821  1.3367  0.2923
14003SOL    HW242844   3.647   4.441   3.380 -0.2843 -0.7537 -0.7319
14004SOL     OW42845   1.695   3.341   3.984 -0.1929  0.2128 -0.1789
14004SOL    HW142846   1.777   3.367   3.942 -0.9765  0.7970 -1.4291
14004SOL    HW242847   1.651   3.424   4.003 -1.9028 -0.0633 -2.4897
14005SOL     OW42848   5.340   5.754   7.590 -0.0215  0.1382  0.3324
14005SOL    HW142849   5.433   5.748   7.611  0.3103 -1.5746 -1.4297
14005SOL    HW242850   5.335   5.742   7.495 -2.0533  0.1405  0.3897
14006SOL     OW42851   6.208   3.304   0.015  0.1705 -0.1255  0.0820
14006SOL    HW142852   6.187   3.284  -0.076 -0.0161 -2.3746  0.5642
14006SOL    HW242853   6.125   3.328   0.055 -0.0329 -0.6782  0.0030
14007SOL     OW42854   5.346   0.149   7.303 -0.9017 -0.0715 -0.3063
14007SOL    HW142855   5.278   0.214   7.321  0.2360  1.0382  0.1083
14007SOL    HW242856   5.415   0.197   7.258 -0.1651 -1.0633 -0.2768
14008SOL     OW42857   2.086   2.864   7.718 -0.0555 -0.0423  0.2551
14008SOL    HW142858   2.120   2.790   7.668 -1.4422 -0.6604  0.1714
14008SOL    HW242859   2.051   2.825   7.798 -2.5447  0.1978 -0.6286
14009SOL     OW42860   0.181   5.230   5.927 -0.5629  0.1170  0.9029
14009SOL    HW142861   0.178   5.324   5.909  0.5756 -0.1860 -1.3002
14009SOL    HW242862   0.192   5.224   6.022  0.5391  2.2582  0.9889
14010SOL     OW42863   2.299   0.934   7.917 -0.1579  0.0967 -0.2450
14010SOL    HW142864   2.272   1.025   7.907  0.4783  0.5790  1.8864
14010SOL    HW242865   2.217   0.885   7.920 -0.5886  0.8304  0.3855
14011SOL     OW42866   0.818   2.350   5.251 -0.3119 -0.1866 -0.0726
14011SOL    HW142867   0.817   2.385   5.340 -3.0431 -0.5898  0.1179
14011SOL    HW242868   0.866   2.415   5.201 -1.4902  1.6820  1.0988
14012SOL     OW42869   5.260   1.399   0.087  0.1454  0.2813 -0.0988
14012SOL    HW142870   5.318   1.440   0.023 -0.7434  1.1457 -0.3688
14012SOL    HW242871   5.212   1.472   0.127 -0.7719 -0.4134  0.1071
14013SOL     OW42872   5.849   3.199   2.175  0.0752 -0.4061  0.1412
14013SOL    HW142873   5.814   3.115   2.206 -0.8969 -0.1089 -0.1376
14013SOL    HW242874   5.941   3.198   2.203 -0.4922 -0.5906  2.1561
14014SOL     OW42875   7.115   1.651   7.575  0.0798 -0.7159  0.2981
14014SOL    HW142876   7.206   1.681   7.586  0.7705 -2.8765  1.0271
14014SOL    HW242877   7.112   1.617   7.486  0.1372 -1.0963  0.4403
14015SOL     OW42878   1.752   2.341   5.673  0.1562 -0.1808 -0.1004
14015SOL    HW142879   1.754   2.384   5.758  0.5992  0.5695 -0.4802
14015SOL    HW242880   1.806   2.396   5.617 -2.6599  1.1673 -1.7156
14016SOL     OW42881   1.105   4.092   1.651  0.2912 -0.4488  0.2899
14016SOL    HW142882   1.028   4.145   1.673 -0.2959 -0.6903 -1.0789
14016SOL    HW242883   1.069   4.012   1.613  1.2050 -0.4392 -0.6611
14017SOL     OW42884   7.779   0.531   0.305  0.4151  0.0798 -0.3838
14017SOL    HW142885   7.780   0.469   0.377  2.3747 -0.6000 -0.9373
14017SOL    HW242886   7.826   0.487   0.234  0.1067  1.4218 -1.4867
14018SOL     OW42887   3.197   0.267   0.469  0.1006 -0.0721  0.3308
14018SOL    HW142888   3.112   0.236   0.500 -0.6466  1.5758 -0.0184
14018SOL    HW242889   3.184   0.287   0.376  1.0852 -0.5314  0.0733
14019SOL     OW42890   5.379   0.949   6.695  0.3316  0.1670  0.4048
14019SOL    HW142891   5.398   0.959   6.601  0.4148  0.1350  0.4177
14019SOL    HW242892   5.370   0.854   6.707 -0.1518  0.2035  0.3391
14020SOL     OW42893   3.703   0.617   3.744  0.4440  0.5742  0.2194
14020SOL    HW142894   3.736   0.569   3.820  2.1099  1.8028  0.3280
14020SOL    HW242895   3.700   0.552   3.674 -0.1495 -0.3401  1.0755
14021SOL     OW42896   6.307   0.487   4.683 -0.1761  0.0043 -0.2741
14021SOL    HW142897   6.288   0.397   4.657  0.9014 -0.5025  0.6041
14021SOL    HW242898   6.348   0.479   4.769 -0.4428  1.3713  0.0030
14022SOL     OW42899   0.325   1.069   1.006 -0.6666  0.1686  0.6531
14022SOL    HW142900   0.333   0.974   1.008  0.8117  0.2243 -0.6525
14022SOL    HW242901   0.306   1.090   0.914  1.8047  1.2563  0.3145
14023SOL     OW42902   6.115   6.064   0.020 -0.1515  0.5109 -0.1195
14023SOL    HW142903   6.162   6.126   0.077 -0.5468  1.2090 -0.5412
14023SOL    HW242904   6.079   5.998   0.079 -1.7510  1.9866  0.6210
14024SOL     OW42905   2.645   2.881   6.198 -0.0624 -0.0353  0.2667
14024SOL    HW142906   2.578   2.928   6.247 -0.4240  0.3120 -0.5463
14024SOL    HW242907   2.624   2.898   6.106  0.7514 -0.4666 -0.0077
14025SOL     OW42908   5.613   0.747   2.900  0.0695  0.3714  0.0346
14025SOL    HW142909   5.528   0.746   2.944 -0.1003  0.1017 -0.2863
14025SOL    HW242910   5.677   0.745   2.971 -0.1690  1.6808  0.3163
14026SOL     OW42911   2.257   3.793   1.479  0.6339  0.2136 -0.2869
14026SOL    HW142912   2.333   3.758   1.433  0.4450 -1.0506  0.3215
14026SOL    HW242913   2.219   3.717   1.523  0.0018  1.1316  0.7925
14027SOL     OW42914   2.896   3.277   3.533  0.4256 -0.0038  0.7194
14027SOL    HW142915   2.983   3.317   3.540  0.3627  0.2921 -0.1082
14027SOL    HW242916   2.908   3.187   3.561  0.8989  0.1673  1.0796
14028SOL     OW42917   5.711   1.490   0.943  0.2395 -0.2389  0.1011
14028SOL    HW142918   5.672   1.521   0.861 -0.3267 -0.6872  0.1950
14028SOL    HW242919   5.769   1.561   0.970 -1.1738  0.8666  0.4152
14029SOL     OW42920   7.875   6.572   4.567 -0.5098 -0.6476  0.2231
14029SOL    HW142921   7.837   6.534   4.646 -1.6046  0.5156  0.2961
14029SOL    HW242922   7.969   6.564   4.579 -0.6018  0.6017  2.2476
14030SOL     OW42923   0.899   7.094   1.776 -0.0488 -0.3051 -0.0345
14030SOL    HW142924   0.838   7.024   1.749 -0.1872  0.3016 -1.3574
14030SOL    HW242925   0.986   7.058   1.758  0.0190 -1.0853  1.6458
14031SOL     OW42926   5.033   5.719   5.887 -0.2428  0.1257  0.2399
14031SOL    HW142927   5.103   5.685   5.944 -1.2302 -1.0885  0.7730
14031SOL    HW242928   5.038   5.664   5.808 -1.2282 -0.6549  0.7043
14032SOL     OW42929   2.527   7.450   1.375 -0.7941  0.0845 -0.8693
14032SOL    HW142930   2.503   7.357   1.372  1.8218 -0.7846  1.4779
14032SOL    HW242931   2.617   7.453   1.342 -0.6976  1.7178 -0.5455
14033SOL     OW42932   3.273   2.847   5.957 -0.1527 -1.4248 -0.5421
14033SOL    HW142933   3.309   2.916   6.012  1.4283 -1.5051 -1.4222
14033SOL    HW242934   3.336   2.775   5.963 -1.1187 -2.3198 -0.6623
14034SOL     OW42935   2.439   1.169   5.027 -0.1074  0.5123 -0.2709
14034SOL    HW142936   2.473   1.128   4.948  0.2941 -0.9861  0.6568
14034SOL    HW242937   2.442   1.101   5.094 -0.9533  1.5825  0.9169
14035SOL     OW42938   2.157   3.428   1.191 -0.4540 -0.0241 -0.7665
14035SOL    HW142939   2.082   3.368   1.190 -1.4982  0.9788  2.5178
14035SOL    HW242940   2.120   3.513   1.166 -1.0285  0.8712  2.5962
14036SOL     OW42941   2.272   5.790   4.691  0.0024  0.3295  0.5545
14036SOL    HW142942   2.255   5.696   4.696 -4.3816  0.6361 -2.7552
14036SOL    HW242943   2.204   5.830   4.745 -0.9843  1.5383 -1.4398
14037SOL     OW42944   5.364   5.572   1.897 -0.0053  0.1212 -0.3378
14037SOL    HW142945   5.429   5.505   1.916  1.6905  0.8857 -2.8327
14037SOL    HW242946   5.285   5.523   1.872  0.2384 -0.8591  0.7399
14038SOL     OW42947   3.329   0.028   1.724  0.0721  0.5298  0.1618
14038SOL    HW142948   3.325   0.046   1.630 -0.6124  0.3404  0.1457
14038SOL    HW242949   3.248   0.064   1.759  0.6098  1.1535  0.7882
14039SOL     OW42950   4.862   6.507   5.224 -0.0305  0.3120 -0.1713
14039SOL    HW142951   4.908   6.426   5.243 -0.5215 -0.0686 -0.5687
14039SOL    HW242952   4.808   6.486   5.148 -0.0678  1.0485 -0.3505
14040SOL     OW42953   0.699   0.109   0.880  0.1844  0.3373  0.4004
14040SOL    HW142954   0.756   0.142   0.950 -0.6418 -0.0635  1.2830
14040SOL    HW242955   0.612   0.143   0.902 -0.3797 -1.0554  0.4331
14041SOL     OW42956   3.355   0.559   1.336 -0.4342 -0.7267  0.2754
14041SOL    HW142957   3.433   0.606   1.306  0.5059 -0.4134  2.9467
14041SOL    HW242958   3.291   0.628   1.355  0.2796 -0.5836  2.3793
14042SOL     OW42959   3.152   3.294   0.576  0.0631  0.1939  0.0168
14042SOL    HW142960   3.205   3.245   0.514 -0.5731  0.0688 -0.4427
14042SOL    HW242961   3.063   3.261   0.563 -0.6890  2.5731 -1.4975
14043SOL     OW42962   6.127   2.559   7.573  0.1790  0.4702  0.6305
14043SOL    HW142963   6.093   2.481   7.616  0.1304 -0.1346 -0.4773
14043SOL    HW242964   6.052   2.596   7.526  0.9819 -0.9526 -1.9515
14044SOL     OW42965   1.117   5.814   5.411  0.5019  0.1593  0.1758
14044SOL    HW142966   1.081   5.751   5.474  1.3293  0.7217  1.2385
14044SOL    HW242967   1.079   5.898   5.437 -1.0284  0.0596 -1.5709
14045SOL     OW42968   1.522   0.877   7.050 -0.1133 -0.2554  0.1305
14045SOL    HW142969   1.614   0.902   7.042 -0.0308 -0.5780  0.0699
14045SOL    HW242970   1.476   0.942   6.998 -0.0893  0.9276  1.5178
14046SOL     OW42971   5.134   4.998   6.362  0.6952 -0.1062 -0.6607
14046SOL    HW142972   5.178   5.068   6.410  1.7988 -1.2332  0.0387
14046SOL    HW242973   5.173   4.917   6.396 -0.9267 -1.1017 -1.0443
14047SOL     OW42974   1.534   7.657   5.320  0.0182  0.7634 -0.2199
14047SOL    HW142975   1.600   7.719   5.350 -0.8624  1.2017  0.8788
14047SOL    HW242976   1.458   7.675   5.374 -0.3807 -1.0469 -0.1044
14048SOL     OW42977   7.082   3.716   6.056  0.2373  0.0304 -0.7932
14048SOL    HW142978   7.091   3.771   5.978  0.5622 -0.0767 -0.8332
14048SOL    HW242979   7.154   3.744   6.113 -0.2419  0.3834 -0.3623
14049SOL     OW42980   1.035   2.460   6.671 -0.1044  0.3406  0.1172
14049SOL    HW142981   0.995   2.413   6.744 -0.8361 -1.2485 -1.2395
14049SOL    HW242982   1.004   2.550   6.681 -2.4641 -0.4164  0.2501
14050SOL     OW42983   0.924   2.370   7.146  0.9505 -0.2270 -0.3185
14050SOL    HW142984   0.995   2.310   7.170 -0.9528 -1.6001  2.3778
14050SOL    HW242985   0.946   2.452   7.190  0.5388 -0.8792  1.1494
14051SOL     OW42986   0.509   1.616   3.746  0.1563 -0.1395 -0.3320
14051SOL    HW142987   0.564   1.671   3.690  1.3505 -1.1731 -0.2207
14051SOL    HW242988   0.486   1.542   3.691  0.3179 -0.5574  0.1515
14052SOL     OW42989   1.715   4.121   3.649  0.1600 -0.2369 -0.6354
14052SOL    HW142990   1.783   4.185   3.628 -1.5129  1.5792 -0.8738
14052SOL    HW242991   1.697   4.076   3.566 -0.7230  1.1519 -1.2366
14053SOL     OW42992   4.011   1.839   5.023 -0.1344 -0.2961  0.1226
14053SOL    HW142993   3.970   1.820   5.107  1.4579 -0.1174  0.9944
14053SOL    HW242994   3.996   1.761   4.970  1.8087 -1.9227  1.8080
14054SOL     OW42995   4.108   7.596   3.658 -0.1213 -0.4880 -0.0499
14054SOL    HW142996   4.164   7.662   3.618 -0.0377 -0.5327 -0.0071
14054SOL    HW242997   4.141   7.512   3.624 -1.1923 -0.4297 -1.3150
14055SOL     OW42998   0.935   2.741   0.082 -0.1414 -0.0474 -0.2065
14055SOL    HW142999   0.981   2.658   0.092  1.3758  0.4771 -2.1907
14055SOL    HW243000   0.860   2.720   0.025 -1.1733 -0.4619  1.2315
14056SOL     OW43001   4.027   0.500   4.115  0.0055  0.2801 -0.0524
14056SOL    HW143002   4.072   0.572   4.071  0.1910 -0.0946 -0.4823
14056SOL    HW243003   4.090   0.468   4.180  0.3329 -0.1884 -0.5958
14057SOL     OW43004   1.315   3.183   0.164 -0.7340  0.1587  0.1044
14057SOL    HW143005   1.392   3.240   0.155 -0.8918  0.4281  0.4211
14057SOL    HW243006   1.253   3.216   0.099 -0.2399 -0.6395 -0.7865
14058SOL     OW43007   7.681   6.971   3.752  0.1283 -0.3925  0.0325
14058SOL    HW143008   7.746   6.941   3.816 -1.4880  0.0164  1.9915
14058SOL    HW243009   7.616   7.019   3.805 -1.3948 -0.1806 -1.9151
14059SOL     OW43010   2.350   3.515   5.993 -0.2702  0.5602  0.1521
14059SOL    HW143011   2.369   3.427   6.027 -0.9331 -0.0580 -1.0032
14059SOL    HW243012   2.308   3.499   5.908  2.9768  1.9866 -1.9211
14060SOL     OW43013   1.523   1.481   2.457 -0.0653  0.1600  0.3286
14060SOL    HW143014   1.443   1.476   2.508  1.4711  2.2615  3.2523
14060SOL    HW243015   1.582   1.419   2.499  0.6874  0.6588  0.0332
14061SOL     OW43016   5.798   4.862   4.878  0.3552 -0.0141 -0.1028
14061SOL    HW143017   5.710   4.859   4.841 -0.1110 -0.6329  1.0120
14061SOL    HW243018   5.840   4.937   4.835 -1.3922  1.5587  0.8016
14062SOL     OW43019   1.691   0.699   6.760  0.1085  0.2518 -0.1842
14062SOL    HW143020   1.603   0.736   6.761 -0.4830 -1.1186  1.0227
14062SOL    HW243021   1.679   0.606   6.742  1.4279  0.2499 -1.2623
14063SOL     OW43022   7.804   5.242   4.037 -0.3848 -0.0159 -0.4505
14063SOL    HW143023   7.737   5.308   4.054  0.8954  1.0328  0.6644
14063SOL    HW243024   7.875   5.290   3.996  0.5031 -0.7217  0.2320
14064SOL     OW43025   3.789   2.181   6.525 -0.1800  0.1181  0.4981
14064SOL    HW143026   3.858   2.237   6.560 -0.4507  0.2970  0.7504
14064SOL    HW243027   3.835   2.112   6.479  0.1647  0.3654  0.4680
14065SOL     OW43028   5.602   1.695   0.766 -0.9542 -0.0091  0.6475
14065SOL    HW143029   5.544   1.680   0.691  0.4280  1.0404 -0.7019
14065SOL    HW243030   5.636   1.784   0.753 -0.3754  0.0513  2.3305
14066SOL     OW43031   0.784   0.061   1.585  0.3669 -0.3473  0.3503
14066SOL    HW143032   0.723   0.103   1.645  0.5745 -0.1525  0.4263
14066SOL    HW243033   0.868   0.105   1.601  0.6442 -0.9585  0.6057
14067SOL     OW43034   7.063   2.184   1.209  0.3030  0.4283 -0.1093
14067SOL    HW143035   7.159   2.187   1.210  0.3194  0.0867  0.5927
14067SOL    HW243036   7.037   2.223   1.293 -0.0531 -1.9246  0.9689
14068SOL     OW43037   4.151   2.972   7.021  0.5550  0.2750  0.1473
14068SOL    HW143038   4.176   2.926   6.941 -0.9027 -1.7297  0.7533
14068SOL    HW243039   4.234   2.996   7.062  1.3494  2.0233 -2.2402
14069SOL     OW43040   4.401   6.935   4.544 -0.3679 -0.7797  0.2461
14069SOL    HW143041   4.307   6.939   4.524  0.0140  0.6742 -1.4403
14069SOL    HW243042   4.443   6.989   4.477  1.5485 -0.0308  1.9396
14070SOL     OW43043   2.449   1.729   3.480  0.1784 -0.6044  0.1595
14070SOL    HW143044   2.373   1.776   3.514  0.3579 -0.0211 -0.2255
14070SOL    HW243045   2.494   1.696   3.558  0.1873  0.0859  0.4522
14071SOL     OW43046   5.029   0.324   0.870  0.6366  0.2987  0.4832
14071SOL    HW143047   5.058   0.276   0.948  1.2181  0.4333  0.3543
14071SOL    HW243048   5.021   0.257   0.802  0.2852  0.2048  0.6176
14072SOL     OW43049   6.365   7.532   0.910 -0.1399 -0.9331 -0.3739
14072SOL    HW143050   6.356   7.583   0.829 -0.9682 -0.1825  0.1579
14072SOL    HW243051   6.433   7.468   0.891 -0.6900 -1.1282 -1.8415
14073SOL     OW43052   6.751   2.117   2.326  0.0155 -0.0375 -0.2464
14073SOL    HW143053   6.658   2.096   2.313 -0.1404  0.2122  0.4630
14073SOL    HW243054   6.797   2.035   2.305 -0.4540 -0.5263  0.5679
14074SOL     OW43055   0.257   4.126   5.311 -0.1035 -0.4133  0.3347
14074SOL    HW143056   0.274   4.051   5.253  1.5281  0.1055  0.1020
14074SOL    HW243057   0.295   4.201   5.265 -0.1570  0.2604  1.3698
14075SOL     OW43058   5.489   2.309   2.039  0.0778  0.3854  0.1797
14075SOL    HW143059   5.494   2.379   2.104 -0.8554  0.5493  0.0929
14075SOL    HW243060   5.557   2.247   2.066  0.0494  0.6965  1.0192
14076SOL     OW43061   5.212   2.042   0.897  0.0361 -0.1006 -0.0685
14076SOL    HW143062   5.241   2.044   0.989 -1.9057  2.2614  0.6000
14076SOL    HW243063   5.281   2.088   0.850  1.2593 -1.7008  0.0791
14077SOL     OW43064   5.391   6.878   4.368 -0.3191  0.7273  0.5696
14077SOL    HW143065   5.340   6.806   4.332  0.4136 -0.7325  2.3011
14077SOL    HW243066   5.327   6.935   4.411 -0.7286  0.1348  0.7534
14078SOL     OW43067   6.718   0.910   6.994 -0.2108  0.3636  0.1158
14078SOL    HW143068   6.755   0.822   6.998 -2.0255 -0.5168 -1.1076
14078SOL    HW243069   6.751   0.946   6.912 -0.4372  0.3523  0.0186
14079SOL     OW43070   7.601   6.998   7.527 -0.0673 -0.4967  0.4708
14079SOL    HW143071   7.619   6.923   7.583 -0.3702 -0.7288  0.2564
14079SOL    HW243072   7.568   7.065   7.587  1.3411 -0.1131  0.8471
14080SOL     OW43073   4.981   7.716   0.006 -0.3889 -0.1668  0.6615
14080SOL    HW143074   5.027   7.755  -0.068  1.6810  0.3745  2.1423
14080SOL    HW243075   4.927   7.787   0.040 -0.6675 -0.1664  0.2350
14081SOL     OW43076   0.996   1.638   5.958 -0.3603 -0.1114  0.0617
14081SOL    HW143077   1.042   1.609   5.879 -0.8205 -0.9896  0.0988
14081SOL    HW243078   1.054   1.702   5.998  1.2980 -1.8807  0.6227
14082SOL     OW43079   3.285   2.889   4.596 -0.0286 -0.4888 -0.4143
14082SOL    HW143080   3.240   2.972   4.578 -0.1759 -0.5082 -0.1321
14082SOL    HW243081   3.342   2.877   4.520  0.3190  0.0910 -0.2470
14083SOL     OW43082   3.906   1.752   5.230  0.7505 -0.1010 -0.4792
14083SOL    HW143083   3.817   1.773   5.259  1.0602  0.0561  0.3912
14083SOL    HW243084   3.952   1.727   5.310  1.1943 -1.2826 -1.0645
14084SOL     OW43085   4.259   1.662   3.253 -0.0188  0.0022  0.0196
14084SOL    HW143086   4.244   1.751   3.223  1.3977 -0.0817 -1.0274
14084SOL    HW243087   4.227   1.661   3.343 -0.5844  1.3930 -0.1494
14085SOL     OW43088   6.641   1.479   5.510  0.3012 -0.6465 -0.1622
14085SOL    HW143089   6.634   1.471   5.415 -1.5425  0.9103 -0.2118
14085SOL    HW243090   6.619   1.391   5.543  0.1036 -0.9783 -1.1431
14086SOL     OW43091   4.420   3.009   7.112 -0.3208  0.1613  0.7406
14086SOL    HW143092   4.446   3.063   7.038  2.6252  0.0115  1.5224
14086SOL    HW243093   4.453   2.922   7.091  0.0677 -0.0074  1.9617
14087SOL     OW43094   3.543   7.051   3.733  0.2995 -0.9177 -0.3127
14087SOL    HW143095   3.484   7.001   3.790 -1.4137  1.2283 -0.0542
14087SOL    HW243096   3.563   7.130   3.784 -0.6769  0.7215 -2.3385
14088SOL     OW43097   6.687   2.282   7.676  0.6093  0.5012  0.3540
14088SOL    HW143098   6.699   2.326   7.760  1.9932  1.2350 -0.2026
14088SOL    HW243099   6.646   2.348   7.619 -1.5360 -0.3799  0.7549
14089SOL     OW43100   1.766   1.321   5.413  0.1212 -0.0338  0.1073
14089SOL    HW143101   1.820   1.296   5.488  1.0739 -1.7514 -1.0811
14089SOL    HW243102   1.733   1.238   5.378  1.0435  0.5348 -2.3266
14090SOL     OW43103   6.921   0.432   6.348  0.3138 -0.2157  0.0959
14090SOL    HW143104   6.928   0.429   6.253  1.2063 -1.8180  0.1663
14090SOL    HW243105   6.897   0.522   6.368  0.4418  0.2366 -1.6187
14091SOL     OW43106   4.770   6.458   0.335 -0.3143  0.4635 -0.1130
14091SOL    HW143107   4.705   6.395   0.365  0.2167 -0.4754 -0.8651
14091SOL    HW243108   4.719   6.532   0.302 -0.9985 -0.1468 -0.4490
14092SOL     OW43109   7.671   6.086   5.012 -0.5131 -0.7735  0.2744
14092SOL    HW143110   7.673   6.105   5.106 -0.8626 -0.7812  0.2842
14092SOL    HW243111   7.758   6.053   4.993 -1.5797 -4.9485  1.4954
14093SOL     OW43112   7.279   0.130   6.814  0.0498  0.6367 -0.0813
14093SOL    HW143113   7.333   0.059   6.780  0.8701  0.0831  2.2025
14093SOL    HW243114   7.322   0.156   6.896 -1.6118  2.0679  0.3989
14094SOL     OW43115   2.088   3.269   4.061  0.2677 -0.0164  0.0096
14094SOL    HW143116   2.031   3.342   4.036 -0.2626  0.1020  1.4608
14094SOL    HW243117   2.136   3.247   3.981 -1.5167  0.1490 -1.1615
14095SOL     OW43118   0.919   2.425   2.205 -0.1735 -0.3625 -0.1047
14095SOL    HW143119   0.856   2.356   2.180 -1.5393  1.0973 -0.8920
14095SOL    HW243120   0.971   2.438   2.126  1.0560 -1.4450  0.4928
14096SOL     OW43121   4.925   3.743   4.730  0.1832  0.6359  0.4445
14096SOL    HW143122   4.838   3.704   4.737 -0.2215  1.3070 -0.5954
14096SOL    HW243123   4.952   3.725   4.640  0.9482  0.7889  0.6347
14097SOL     OW43124   2.276   6.607   5.278 -0.3860  0.4707  0.2490
14097SOL    HW143125   2.329   6.540   5.237  0.5609  0.1672  1.8749
14097SOL    HW243126   2.280   6.588   5.372 -1.1990  2.0029  0.6449
14098SOL     OW43127   7.270   4.271   3.346 -0.4313  0.6560 -0.2854
14098SOL    HW143128   7.201   4.224   3.393 -0.6388 -0.7170 -1.8739
14098SOL    HW243129   7.284   4.351   3.397 -1.2887 -0.3159  1.5579
14099SOL     OW43130   6.470   7.779   4.472  0.0273 -0.2277 -0.1338
14099SOL    HW143131   6.539   7.823   4.523 -0.5997  1.1009 -0.3712
14099SOL    HW243132   6.492   7.686   4.475  1.5553  0.1284  0.1969
14100SOL     OW43133   7.158   6.472   3.791  0.0420  0.0159  0.0997
14100SOL    HW143134   7.135   6.453   3.882 -0.3179  1.2349  0.2762
14100SOL    HW243135   7.098   6.541   3.765  0.0727 -0.3945 -1.1125
14101SOL     OW43136   4.329   3.725   1.203 -0.0514  0.2820 -0.2579
14101SOL    HW143137   4.250   3.778   1.215  0.7897  1.7534 -0.8919
14101SOL    HW243138   4.363   3.712   1.292  0.2064  1.6221 -0.1317
14102SOL     OW43139   6.727   7.004   2.952  0.0755 -0.0863 -0.4794
14102SOL    HW143140   6.705   7.023   3.043 -0.8937 -0.4143 -0.6255
14102SOL    HW243141   6.820   7.022   2.945  0.2591 -0.4822  0.6948
14103SOL     OW43142   0.765   0.157   5.984 -0.3413 -0.2713 -0.1127
14103SOL    HW143143   0.801   0.092   6.045 -0.2264  0.9111  1.1228
14103SOL    HW243144   0.690   0.112   5.943  0.6907 -1.7200 -0.4967
14104SOL     OW43145   1.973   6.947   0.771 -0.6572 -0.1366  0.1330
14104SOL    HW143146   2.041   7.013   0.758 -0.4442 -0.6824 -1.7770
14104SOL    HW243147   2.016   6.878   0.821 -0.3242  0.2681  0.4184
14105SOL     OW43148   7.009   5.800   2.299  0.6213  0.2826 -0.2102
14105SOL    HW143149   7.093   5.784   2.341  0.9580  0.3089 -0.8689
14105SOL    HW243150   6.983   5.715   2.264  0.0613  0.1292  0.5297
14106SOL     OW43151   2.480   3.017   6.346  0.5003  0.1112 -0.0121
14106SOL    HW143152   2.485   3.015   6.442  2.4279 -1.0881 -0.0985
14106SOL    HW243153   2.387   3.034   6.328  0.0781  0.2735  2.0593
14107SOL     OW43154   7.821   0.289   7.659 -0.1426 -0.3304  0.0192
14107SOL    HW143155   7.736   0.252   7.680 -0.8964  0.9211 -0.7330
14107SOL    HW243156   7.808   0.383   7.661  0.9513 -0.1241 -1.1863
14108SOL     OW43157   6.943   7.237   3.625  0.8680  0.2565  0.2164
14108SOL    HW143158   6.925   7.309   3.686 -1.2276 -0.4790  0.5706
14108SOL    HW243159   7.024   7.197   3.658  0.8073  1.0452  1.3929
14109SOL     OW43160   3.221   0.801   4.085  0.3293  0.2063  0.6861
14109SOL    HW143161   3.163   0.744   4.136 -1.7896  0.5337 -1.2023
14109SOL    HW243162   3.264   0.743   4.023 -1.4106  0.4731 -0.8642
14110SOL     OW43163   2.637   3.952   4.073 -0.2113 -0.1795 -0.3967
14110SOL    HW143164   2.628   3.990   3.986 -0.8752  0.1648 -0.1817
14110SOL    HW243165   2.672   3.864   4.057  1.3957  0.5081 -0.8841
14111SOL     OW43166   4.996   0.926   5.412 -0.5968  0.3001  0.1182
14111SOL    HW143167   5.091   0.920   5.405 -0.4969 -2.7280  2.1245
14111SOL    HW243168   4.964   0.888   5.331 -0.0446 -0.7618  0.3836
14112SOL     OW43169   4.372   7.885   2.988 -0.2338  0.0681 -0.1779
14112SOL    HW143170   4.319   7.896   2.909  0.9809  0.5303 -0.9608
14112SOL    HW243171   4.315   7.836   3.048 -2.8912  3.5027  0.4161
14113SOL     OW43172   6.803   6.853   4.809  0.2384  0.4328 -0.1022
14113SOL    HW143173   6.710   6.855   4.785 -0.0100  1.3664  0.8782
14113SOL    HW243174   6.843   6.797   4.742 -0.9998  0.1175 -0.6190
14114SOL     OW43175   0.984   0.594   7.658 -0.0739 -0.0912 -0.1555
14114SOL    HW143176   0.938   0.653   7.599 -0.2595 -0.6480 -0.5800
14114SOL    HW243177   0.915   0.558   7.714  0.1946  0.9722  0.8898
14115SOL     OW43178   3.788   3.480   3.915  0.5957  0.7869  0.0412
14115SOL    HW143179   3.867   3.519   3.953  0.8592  0.3876 -0.0921
14115SOL    HW243180   3.815   3.392   3.889  0.1477  0.7062 -0.1549
14116SOL     OW43181   5.223   3.990   6.051 -0.0525 -0.4843  0.4566
14116SOL    HW143182   5.186   4.067   6.093 -0.7911  0.3555 -1.5872
14116SOL    HW243183   5.275   4.025   5.978  0.3378 -1.8810  0.0263
14117SOL     OW43184   3.446   0.655   5.899 -0.5540  0.1907 -0.4176
14117SOL    HW143185   3.510   0.584   5.905 -0.6927 -0.1119 -1.9343
14117SOL    HW243186   3.496   0.727   5.859 -0.7693  0.4681 -0.1856
14118SOL     OW43187   1.421   6.005   0.483  0.3299  1.0984 -0.3307
14118SOL    HW143188   1.499   5.981   0.533 -0.3888  0.3686  0.4879
14118SOL    HW243189   1.441   5.979   0.393  1.3029  1.5977 -0.2705
14119SOL     OW43190   5.085   2.935   2.282  0.5814 -1.0175  0.1976
14119SOL    HW143191   5.073   2.846   2.248 -1.4023 -1.0705  0.9012
14119SOL    HW243192   5.149   2.926   2.352 -1.2304 -2.3578  1.7815
14120SOL     OW43193   3.057   6.668   4.474  0.1984 -0.0291 -0.1512
14120SOL    HW143194   3.023   6.579   4.474 -2.3239  0.8381  0.9059
14120SOL    HW243195   2.988   6.720   4.516  2.2818  2.1631  0.7929
14121SOL     OW43196   0.923   5.058   4.484  0.2208  0.0241 -0.0482
14121SOL    HW143197   0.866   5.135   4.492  1.1261  0.5983  1.2743
14121SOL    HW243198   1.010   5.094   4.466  0.8869 -0.5836  1.7178
14122SOL     OW43199   0.837   1.698   2.184  0.3026 -0.1029  0.0079
14122SOL    HW143200   0.803   1.748   2.110 -0.8138 -0.7171  0.0858
14122SOL    HW243201   0.881   1.762   2.239  0.1710  0.5381 -0.6191
14123SOL     OW43202   4.114   6.060   1.788 -0.2271 -0.1798  0.5655
14123SOL    HW143203   4.034   6.008   1.800  0.6233 -1.3260  1.5847
14123SOL    HW243204   4.185   5.996   1.795  0.8115  0.9057  0.2846
14124SOL     OW43205   5.790   4.649   0.009 -0.3628  0.0832 -0.4579
14124SOL    HW143206   5.862   4.704  -0.021  0.3551 -0.7273 -0.2543
14124SOL    HW243207   5.775   4.677   0.099  0.3640 -0.4133 -0.1756
14125SOL     OW43208   7.076   3.771   2.820  0.2092  0.4302  0.7471
14125SOL    HW143209   7.059   3.792   2.912 -1.5310  0.9299  0.3549
14125SOL    HW243210   7.106   3.853   2.781  0.1936  0.4167  0.7061
14126SOL     OW43211   0.592   5.501   0.624 -0.2744 -0.1495  0.3348
14126SOL    HW143212   0.509   5.529   0.663 -0.7278 -0.0082 -0.6908
14126SOL    HW243213   0.644   5.581   0.619 -0.1816 -0.1841  0.7162
14127SOL     OW43214   0.122   6.439   4.912 -0.2268  0.4609  0.2443
14127SOL    HW143215   0.052   6.449   4.977 -0.1718  1.0157  0.2243
14127SOL    HW243216   0.203   6.459   4.959  0.0119 -0.9413  0.4661
14128SOL     OW43217   0.697   7.858   1.880 -1.0765 -0.1620  0.6118
14128SOL    HW143218   0.740   7.904   1.952  2.0046 -0.6572 -0.7303
14128SOL    HW243219   0.642   7.924   1.839 -1.3896  0.6397  2.2153
14129SOL     OW43220   5.290   6.789   5.489 -0.1783 -0.3352  0.5386
14129SOL    HW143221   5.253   6.749   5.410 -1.7246  0.3290  0.9011
14129SOL    HW243222   5.232   6.763   5.560 -1.5231  2.7655  0.7374
14130SOL     OW43223   0.142   1.749   0.307 -0.0567  0.2455  0.3803
14130SOL    HW143224   0.198   1.692   0.255  0.6472  2.1741 -1.1070
14130SOL    HW243225   0.202   1.786   0.373 -0.2610  0.0710  0.6634
14131SOL     OW43226   7.010   0.086   7.495  0.2862 -0.0787 -0.0786
14131SOL    HW143227   6.945   0.110   7.430  1.0178 -0.1406 -0.8510
14131SOL    HW243228   7.004   0.154   7.562  0.7516  1.0100 -1.1041
14132SOL     OW43229   6.180   2.115   3.365 -0.5632 -0.1763 -0.1113
14132SOL    HW143230   6.129   2.105   3.285 -0.9135  1.8963 -0.2107
14132SOL    HW243231   6.269   2.134   3.335 -0.4272 -0.5688  0.0279
14133SOL     OW43232   4.050   2.158   5.432 -0.0924  0.1214 -0.1263
14133SOL    HW143233   4.023   2.091   5.494 -0.5804 -0.1764 -0.6432
14133SOL    HW243234   4.115   2.115   5.376 -0.9515 -0.1559 -0.9261
14134SOL     OW43235   3.753   3.627   3.253 -0.2218 -0.1844 -0.1427
14134SOL    HW143236   3.713   3.695   3.307 -0.2506 -0.1389 -0.2207
14134SOL    HW243237   3.775   3.672   3.171  0.0598 -0.1878 -0.0724
14135SOL     OW43238   5.255   6.273   0.342 -0.6958 -0.4385  0.2561
14135SOL    HW143239   5.301   6.327   0.407 -1.2371  0.7857 -0.3448
14135SOL    HW243240   5.168   6.312   0.337 -0.1694  0.6072 -2.4280
14136SOL     OW43241   1.098   6.844   6.732  0.2500 -0.8060 -0.2241
14136SOL    HW143242   1.184   6.860   6.694 -0.4110  0.5694 -1.2285
14136SOL    HW243243   1.060   6.774   6.679 -0.2516  0.3901 -1.5207
14137SOL     OW43244   0.140   6.427   5.536  0.1344 -0.4674  0.4454
14137SOL    HW143245   0.224   6.396   5.504  1.0023  2.7085 -0.7705
14137SOL    HW243246   0.145   6.417   5.631  0.9754 -2.2846  0.2430
14138SOL     OW43247   0.666   2.279   2.295 -0.3577  0.1201  0.2795
14138SOL    HW143248   0.604   2.302   2.365  1.6192  0.5061  2.0053
14138SOL    HW243249   0.637   2.330   2.220 -0.6936  2.2937  1.7887
14139SOL     OW43250   7.157   6.172   5.079  0.0306 -0.4055 -0.0715
14139SOL    HW143251   7.181   6.221   5.000  1.7607  3.3339  2.4726
14139SOL    HW243252   7.207   6.091   5.073  2.1026  0.8886 -1.6800
14140SOL     OW43253   3.946   5.747   2.871  0.4421 -0.4703 -0.1292
14140SOL    HW143254   3.963   5.715   2.959  0.6656 -1.1083 -0.4022
14140SOL    HW243255   4.028   5.788   2.844  0.3597 -0.2355 -0.0283
14141SOL     OW43256   5.432   6.098   7.067 -0.2245  0.1534 -0.0255
14141SOL    HW143257   5.414   6.136   6.981 -1.5936  0.7251  0.4762
14141SOL    HW243258   5.351   6.111   7.116 -0.2784 -2.1973  0.6280
14142SOL     OW43259   5.988   5.665   0.433  0.8395  0.1295  0.0279
14142SOL    HW143260   6.040   5.636   0.508  1.5237  1.8266  0.2368
14142SOL    HW243261   5.993   5.592   0.371  0.1990 -1.3337  1.6186
14143SOL     OW43262   7.484   1.404   3.363  0.1333  0.0802 -0.0034
14143SOL    HW143263   7.464   1.441   3.449  0.8060  3.7305 -1.2773
14143SOL    HW243264   7.579   1.416   3.354  0.5519 -2.7535 -0.2756
14144SOL     OW43265   0.250   2.426   5.397 -0.1192  0.1153 -0.2365
14144SOL    HW143266   0.190   2.393   5.329  0.0067  0.5906 -0.5811
14144SOL    HW243267   0.328   2.372   5.389 -0.7095 -0.8982  0.5995
14145SOL     OW43268   0.923   7.646   6.484  0.0610 -0.0417  0.5251
14145SOL    HW143269   0.928   7.580   6.415 -1.6712 -1.1115  1.3612
14145SOL    HW243270   0.851   7.703   6.457  0.4356  0.5022  0.6579
14146SOL     OW43271   5.707   1.796   2.040 -0.0330  0.9375  0.1317
14146SOL    HW143272   5.802   1.808   2.044 -0.0344  0.8249  0.5240
14146SOL    HW243273   5.690   1.774   1.949  0.3950  0.3344  0.1906
14147SOL     OW43274   0.134   3.203   3.703 -0.4714 -0.2089 -0.3493
14147SOL    HW143275   0.211   3.169   3.750 -1.3130 -1.8100 -0.0618
14147SOL    HW243276   0.072   3.224   3.773 -0.7238 -0.0332 -0.6290
14148SOL     OW43277   4.612   4.996   6.808 -0.2563  0.3416  0.1873
14148SOL    HW143278   4.635   4.957   6.892 -2.3682  1.2257  1.2481
14148SOL    HW243279   4.569   4.926   6.759 -3.7039  1.0200  1.9407
14149SOL     OW43280   3.368   2.963   0.563 -0.3880  0.0613 -0.4841
14149SOL    HW143281   3.445   2.979   0.617  0.6386 -0.8679 -1.6221
14149SOL    HW243282   3.361   3.041   0.508 -0.5276  0.3300 -0.0939
14150SOL     OW43283   3.150   5.906   7.574 -0.4944  0.0939  0.0930
14150SOL    HW143284   3.118   5.954   7.497 -2.8328  1.5627  1.8373
14150SOL    HW243285   3.071   5.886   7.624  0.9539 -0.6420  2.2099
14151SOL     OW43286   0.123   7.790   5.258  0.3545  0.1239 -1.1424
14151SOL    HW143287   0.212   7.755   5.250  0.5837  0.7637 -1.4735
14151SOL    HW243288   0.070   7.733   5.203 -0.1212 -2.4582  1.6974
14152SOL     OW43289   1.945   4.104   3.185  0.1231 -0.3851  0.0216
14152SOL    HW143290   2.009   4.117   3.255  0.5063 -1.3171 -0.1352
14152SOL    HW243291   1.903   4.189   3.175  1.7311  0.4347 -0.2446
14153SOL     OW43292   5.559   6.674   1.472  0.4652  0.1017  0.1920
14153SOL    HW143293   5.480   6.645   1.516 -0.4568 -1.1627 -2.1282
14153SOL    HW243294   5.629   6.622   1.511 -0.2708 -0.7292  0.4410
14154SOL     OW43295   1.562   2.518   6.612  0.0691 -0.5396  0.3520
14154SOL    HW143296   1.617   2.491   6.686  0.2851 -1.6476 -0.1846
14154SOL    HW243297   1.624   2.534   6.541 -0.0025  2.0211  0.7850
14155SOL     OW43298   4.585   5.856   5.775  0.3372  0.5662  0.6349
14155SOL    HW143299   4.598   5.887   5.865 -2.4274 -1.3266  1.8321
14155SOL    HW243300   4.523   5.918   5.737 -0.3368  0.0590  0.8850
14156SOL     OW43301   3.421   6.963   2.526 -0.2647  0.0819  0.6620
14156SOL    HW143302   3.376   7.044   2.549  0.7241  0.4905  1.1976
14156SOL    HW243303   3.448   6.926   2.610  0.5144 -0.0883  0.3446
14157SOL     OW43304   5.983   6.434   3.493 -0.0000 -0.6172  0.3751
14157SOL    HW143305   5.933   6.399   3.566 -2.0364  1.1217 -0.0944
14157SOL    HW243306   6.043   6.497   3.533  0.3818 -1.2015  0.7347
14158SOL     OW43307   6.955   1.100   1.970  0.4242 -0.2435  0.0436
14158SOL    HW143308   6.889   1.031   1.976  0.8341 -0.5808  0.8524
14158SOL    HW243309   7.031   1.056   1.931  0.8298 -0.3711  0.9573
14159SOL     OW43310   4.606   7.670   3.955  0.1207  0.4777  0.0423
14159SOL    HW143311   4.537   7.618   3.996 -0.8770  0.5597 -1.4427
14159SOL    HW243312   4.682   7.611   3.953  0.0665  0.3192  1.5286
14160SOL     OW43313   2.799   4.936   0.538  0.1367 -0.3217  0.0333
14160SOL    HW143314   2.831   4.846   0.529  0.2109 -0.2157 -0.9309
14160SOL    HW243315   2.763   4.941   0.627 -1.6539 -1.8779 -0.5337
14161SOL     OW43316   7.020   5.736   5.009  0.6237 -0.2794  0.0436
14161SOL    HW143317   7.052   5.780   5.087 -0.7254 -0.5675  0.7866
14161SOL    HW243318   7.001   5.807   4.948  0.9229 -0.0078  0.2604
14162SOL     OW43319   6.192   3.381   6.039  0.0417 -0.3034 -0.2543
14162SOL    HW143320   6.269   3.414   6.086 -1.3477  1.3290  1.0088
14162SOL    HW243321   6.128   3.452   6.045 -2.2825 -2.3404  0.4671
14163SOL     OW43322   6.323   3.993   5.241  0.4248  0.5364 -0.1202
14163SOL    HW143323   6.234   3.983   5.207  0.9739  1.2134 -1.8440
14163SOL    HW243324   6.310   4.017   5.333 -1.1832  0.7180 -0.3621
14164SOL     OW43325   0.116   3.482   2.444 -0.3623  0.5197  0.1563
14164SOL    HW143326   0.129   3.536   2.522 -2.0934  1.2261  0.0025
14164SOL    HW243327   0.042   3.425   2.466 -0.3355  0.1536 -0.6661
14165SOL     OW43328   7.196   4.039   4.025 -0.1232 -0.1626 -0.3314
14165SOL    HW143329   7.251   4.102   3.980 -0.1850  0.4959  0.4964
14165SOL    HW243330   7.109   4.079   4.027 -0.6414 -1.1747 -1.5920
14166SOL     OW43331   0.217   5.890   2.422  0.1103 -0.8306  0.3014
14166SOL    HW143332   0.287   5.860   2.480 -0.7665  0.3494  2.0981
14166SOL    HW243333   0.191   5.812   2.373  0.4752 -2.0930  1.9966
14167SOL     OW43334   4.106   7.726   7.919  0.9653  0.7150 -0.0507
14167SOL    HW143335   4.201   7.735   7.927  1.2224 -1.0870 -0.6251
14167SOL    HW243336   4.085   7.771   7.837  1.2385  1.4838  0.2836
14168SOL     OW43337   4.207   6.735   0.793 -0.0947 -0.5408  0.4743
14168SOL    HW143338   4.246   6.771   0.714  1.2946 -0.4698  1.1465
14168SOL    HW243339   4.282   6.708   0.846 -1.0221 -3.8317  0.3033
14169SOL     OW43340   1.306   2.661   0.148  0.5737  0.2115  0.1063
14169SOL    HW143341   1.276   2.649   0.238  0.1054 -0.9603 -0.1780
14169SOL    HW243342   1.249   2.728   0.112 -2.1069 -2.2096 -0.5373
14170SOL     OW43343   0.534   5.485   4.849 -0.3661 -0.4653  0.3044
14170SOL    HW143344   0.560   5.403   4.889  0.7613 -0.2071  0.1323
14170SOL    HW243345   0.605   5.507   4.789 -0.5489  0.7239  0.4788
14171SOL     OW43346   7.744   1.368   2.632 -0.0897 -0.5128  0.7518
14171SOL    HW143347   7.674   1.416   2.590 -1.3570 -0.4532  2.7891
14171SOL    HW243348   7.794   1.435   2.680 -0.8036 -0.9531  2.1658
14172SOL     OW43349   3.934   5.531   6.547 -0.2103  0.0520  0.0238
14172SOL    HW143350   3.941   5.618   6.587 -0.5897 -0.4907  1.3342
14172SOL    HW243351   4.010   5.525   6.489 -0.6472  1.5774 -0.7616
14173SOL     OW43352   6.290   3.952   6.485 -0.5613  0.6042  0.2713
14173SOL    HW143353   6.327   4.025   6.535  0.1584  0.7341 -0.4241
14173SOL    HW243354   6.339   3.952   6.403 -1.2561 -0.0278 -0.1583
14174SOL     OW43355   4.187   5.916   2.839 -0.2017 -0.1089  0.7811
14174SOL    HW143356   4.266   5.963   2.866  1.3604 -0.5727 -2.5171
14174SOL    HW243357   4.121   5.985   2.829  0.3227  0.5463  1.6368
14175SOL     OW43358   1.714   1.709   7.244  0.2668  0.2996  0.0702
14175SOL    HW143359   1.785   1.757   7.285  0.5807  0.6039 -0.8084
14175SOL    HW243360   1.738   1.617   7.255  0.0649  0.3479  1.0377
14176SOL     OW43361   5.501   3.967   7.561  0.0062  0.4749  0.2575
14176SOL    HW143362   5.477   3.946   7.471  0.5860 -1.7323  0.5741
14176SOL    HW243363   5.516   4.062   7.560 -0.8739  0.6406 -1.7357
14177SOL     OW43364   3.208   6.578   6.357  0.0799  0.2690  0.0508
14177SOL    HW143365   3.268   6.509   6.385  0.2504  0.8656  1.1836
14177SOL    HW243366   3.132   6.568   6.414  0.1376  1.0562  0.2751
14178SOL     OW43367   4.195   5.384   4.645 -0.2543 -0.1781 -0.7850
14178SOL    HW143368   4.240   5.407   4.726 -1.8615 -1.8004  0.6727
14178SOL    HW243369   4.260   5.398   4.576  1.2146  1.1028  0.7844
14179SOL     OW43370   3.111   6.509   2.432  0.0820  0.4649 -0.3066
14179SOL    HW143371   3.019   6.519   2.453  0.2489 -0.8185  1.2183
14179SOL    HW243372   3.152   6.589   2.467 -0.1602  0.0064  1.0779
14180SOL     OW43373   4.085   5.319   6.679 -0.2952 -0.7759  0.5099
14180SOL    HW143374   4.058   5.309   6.770 -1.6583 -0.1396  0.2042
14180SOL    HW243375   4.029   5.389   6.645 -0.7997 -1.9480 -1.1967
14181SOL     OW43376   0.997   4.453   1.467 -0.5188  0.0514  0.3117
14181SOL    HW143377   1.045   4.380   1.505 -2.0030 -0.3631  1.5257
14181SOL    HW243378   1.063   4.505   1.421  0.6585 -1.7063 -0.0417
14182SOL     OW43379   2.567   6.448   1.160  0.1372  0.2341 -0.3197
14182SOL    HW143380   2.530   6.420   1.244 -0.4027 -2.5011 -1.3854
14182SOL    HW243381   2.490   6.468   1.106  0.3848 -0.3914 -0.9151
14183SOL     OW43382   5.076   6.346   2.261 -0.0665  0.5905 -0.4100
14183SOL    HW143383   5.118   6.268   2.298  0.1505  1.1165  0.4903
14183SOL    HW243384   4.983   6.325   2.258  0.0943 -0.0494 -1.0553
14184SOL     OW43385   4.108   7.452   0.829  0.1355 -0.3001  0.6928
14184SOL    HW143386   4.089   7.545   0.816  0.5071 -0.0050  2.0220
14184SOL    HW243387   4.194   7.452   0.873  0.8111 -1.3426 -0.5501
14185SOL     OW43388   2.678   5.977   2.123 -0.2082  0.2108 -0.2833
14185SOL    HW143389   2.765   5.977   2.083  0.2935 -3.1808  0.5181
14185SOL    HW243390   2.694   5.966   2.216 -1.4894 -0.4705 -0.1223
14186SOL     OW43391   7.031   5.571   2.140  0.2135  0.3950  0.8609
14186SOL    HW143392   6.951   5.535   2.104  1.4698 -1.3760 -0.3021
14186SOL    HW243393   7.063   5.505   2.201  1.8264  0.0732 -0.2460
14187SOL     OW43394   4.656   4.796   4.907 -0.2859 -0.5975  0.1802
14187SOL    HW143395   4.729   4.781   4.847 -0.8858 -1.6968 -0.3135
14187SOL    HW243396   4.589   4.734   4.878 -0.7843 -0.7796  1.6721
14188SOL     OW43397   2.964   5.673   0.699  0.3581  0.0021 -0.1338
14188SOL    HW143398   2.885   5.703   0.744  0.5367  1.5253 -0.7544
14188SOL    HW243399   2.969   5.728   0.621  2.4044  0.4349  0.2383
14189SOL     OW43400   4.951   1.598   7.530 -0.0388  0.1319 -0.4019
14189SOL    HW143401   5.005   1.611   7.451 -1.5434  0.5980 -1.4006
14189SOL    HW243402   4.912   1.512   7.518 -0.5168  0.3365 -0.3224
14190SOL     OW43403   4.427   6.808   3.873 -0.3931 -0.6422 -0.1233
14190SOL    HW143404   4.430   6.758   3.791  0.6471 -1.8256  0.5900
14190SOL    HW243405   4.482   6.758   3.933 -1.4058  0.0089  1.4141
14191SOL     OW43406   4.836   2.192   1.388 -0.3414 -0.0781  0.4023
14191SOL    HW143407   4.804   2.152   1.469  0.1221 -2.4371 -0.4840
14191SOL    HW243408   4.781   2.156   1.319  0.3870  0.5000 -0.5193
14192SOL     OW43409   1.085   7.120   6.698  0.5291  0.3894  0.4293
14192SOL    HW143410   1.092   7.027   6.720 -0.3185 -0.5974 -2.8792
14192SOL    HW243411   1.173   7.155   6.715  1.9430 -1.8964 -1.4309
14193SOL     OW43412   1.188   1.853   1.027 -0.1463 -0.3899 -0.0796
14193SOL    HW143413   1.173   1.759   1.036 -1.4198 -0.4488 -2.1421
14193SOL    HW243414   1.114   1.893   1.073  0.1754 -0.4000  0.4501
14194SOL     OW43415   6.362   0.110   5.578 -0.1745  0.0725  0.1931
14194SOL    HW143416   6.427   0.057   5.624  0.5377  0.1841 -0.6748
14194SOL    HW243417   6.306   0.144   5.648  0.4389 -0.3552  0.9155
14195SOL     OW43418   1.532   0.374   6.452 -0.0878  0.2822 -0.3708
14195SOL    HW143419   1.451   0.324   6.442 -0.1355  0.5193 -1.2320
14195SOL    HW243420   1.517   0.454   6.402  0.9240  0.0256 -1.1046
14196SOL     OW43421   2.495   0.843   5.564 -0.9325  0.0588 -0.0911
14196SOL    HW143422   2.585   0.846   5.594 -0.8806  0.9589 -0.3187
14196SOL    HW243423   2.447   0.798   5.634 -0.5980  1.0333  0.7720
14197SOL     OW43424   5.710   5.212   4.958  0.3825 -0.0369 -0.3529
14197SOL    HW143425   5.624   5.244   4.982  0.0865 -0.9433 -0.1451
14197SOL    HW243426   5.729   5.143   5.021  0.9809 -0.2816 -0.7796
14198SOL     OW43427   2.505   3.133   2.686 -0.4539  0.1874 -0.4310
14198SOL    HW143428   2.491   3.043   2.657 -0.3846 -0.0201  0.1628
14198SOL    HW243429   2.424   3.156   2.731 -0.5721  0.5138 -0.8113
14199SOL     OW43430   5.060   5.895   1.282 -0.1097  0.0131 -0.1953
14199SOL    HW143431   5.131   5.936   1.331  0.3241  0.9390 -1.5535
14199SOL    HW243432   4.983   5.907   1.339  0.8298 -1.3068  1.4410
14200SOL     OW43433   0.909   5.312   2.921  0.0016 -0.4118 -0.3275
14200SOL    HW143434   0.959   5.379   2.967 -0.7721  0.8224 -1.1989
14200SOL    HW243435   0.818   5.329   2.945 -0.2844 -0.5829 -1.2241
14201SOL     OW43436   6.934   0.178   1.109 -0.1198  0.2010  0.3355
14201SOL    HW143437   6.970   0.262   1.138  0.8990 -0.5027  1.1682
14201SOL    HW243438   6.934   0.123   1.187 -0.1865 -0.7755 -0.3355
14202SOL     OW43439   4.130   7.561   4.699 -0.4138 -0.4238  0.6752
14202SOL    HW143440   4.120   7.475   4.659  1.0889 -0.1833 -0.3031
14202SOL    HW243441   4.223   7.566   4.720 -0.0744  1.6596 -0.9931
14203SOL     OW43442   5.767   2.636   2.523 -0.7082  0.0109  0.3592
14203SOL    HW143443   5.760   2.671   2.434 -1.8926  0.1954  0.5081
14203SOL    HW243444   5.845   2.679   2.560  0.0817 -0.4514 -0.7436
14204SOL     OW43445   0.219   4.293   7.515 -0.0845 -0.0630 -0.1163
14204SOL    HW143446   0.269   4.296   7.596  0.5986 -0.7906 -0.4959
14204SOL    HW243447   0.179   4.206   7.514  0.3107 -0.2468 -0.7848
14205SOL     OW43448   1.695   2.834   3.761 -0.4404 -0.1349 -0.2829
14205SOL    HW143449   1.704   2.748   3.721 -2.2292  0.1262 -1.3870
14205SOL    HW243450   1.685   2.817   3.854 -1.6354 -1.2284 -0.5844
14206SOL     OW43451   1.748   3.970   3.424 -0.4354  0.4159  0.1411
14206SOL    HW143452   1.826   3.915   3.415 -0.7256  0.0190 -0.0357
14206SOL    HW243453   1.754   4.033   3.352 -0.5615  0.0203 -0.2227
14207SOL     OW43454   5.112   6.589   2.167 -0.0843  0.1916  0.2149
14207SOL    HW143455   5.188   6.560   2.115 -0.8899  0.4029 -1.1280
14207SOL    HW243456   5.093   6.515   2.224 -0.1339 -0.7089 -0.9189
14208SOL     OW43457   7.458   5.776   3.004 -0.0678  0.4955 -0.7360
14208SOL    HW143458   7.395   5.709   2.979 -0.3328  0.0165  1.1164
14208SOL    HW243459   7.416   5.859   2.979 -0.7656  0.0941 -0.8983
14209SOL     OW43460   3.188   2.633   7.256  0.2212  0.1790  0.0847
14209SOL    HW143461   3.269   2.667   7.218  0.4709  0.3573  0.7451
14209SOL    HW243462   3.153   2.707   7.306  0.3086 -0.2586  0.8124
14210SOL     OW43463   1.001   2.469   0.105 -0.1461 -0.2366 -0.0941
14210SOL    HW143464   0.918   2.425   0.086  0.2887 -0.6875 -0.9780
14210SOL    HW243465   1.062   2.436   0.039  0.4760  0.8621 -0.0977
14211SOL     OW43466   4.004   1.443   4.539  0.0369 -0.5472 -0.0468
14211SOL    HW143467   3.951   1.405   4.609 -0.9968 -0.1607 -0.6115
14211SOL    HW243468   4.018   1.534   4.567 -0.8868 -0.2210 -0.6210
14212SOL     OW43469   1.784   2.071   3.280  0.2322  0.2901 -0.3482
14212SOL    HW143470   1.820   2.108   3.200 -0.9279  0.1097 -0.9771
14212SOL    HW243471   1.731   2.141   3.317  0.3165  0.1873 -0.0324
14213SOL     OW43472   5.450   3.548   3.849 -0.2048  0.4839 -0.4197
14213SOL    HW143473   5.417   3.566   3.938 -1.1108  0.5733 -0.7638
14213SOL    HW243474   5.446   3.632   3.805  1.8885  0.8242 -0.0559
14214SOL     OW43475   2.709   2.368   5.932 -0.7727  0.0787  0.6660
14214SOL    HW143476   2.691   2.330   5.846 -0.6551 -0.2480  0.7828
14214SOL    HW243477   2.766   2.304   5.974 -0.7959  0.2589  0.9704
14215SOL     OW43478   7.297   6.958   3.092  0.2335  0.7067 -0.6768
14215SOL    HW143479   7.281   6.993   3.179 -2.0627 -0.6292 -0.4626
14215SOL    HW243480   7.391   6.943   3.088  0.3079  0.1284  1.8498
14216SOL     OW43481   7.850   4.922   2.690  1.4511  0.5118 -0.0390
14216SOL    HW143482   7.937   4.888   2.711  1.2475  0.7706  1.2893
14216SOL    HW243483   7.790   4.855   2.723  1.1046  1.1471  0.6391
14217SOL     OW43484   0.524   2.913   1.066  0.7526 -0.1449  0.8859
14217SOL    HW143485   0.560   2.843   1.010 -0.2261  0.5205 -0.6309
14217SOL    HW243486   0.477   2.970   1.006  1.6679  1.9657  2.0449
14218SOL     OW43487   6.748   6.778   7.263  0.2355  0.5603  0.3823
14218SOL    HW143488   6.674   6.811   7.212  0.0504 -0.6471 -0.1540
14218SOL    HW243489   6.822   6.780   7.203 -0.2926 -2.2935 -0.5093
14219SOL     OW43490   2.796   4.937   1.696 -0.0245 -0.2463 -0.2696
14219SOL    HW143491   2.800   5.014   1.638  3.4660  0.9543  1.2883
14219SOL    HW243492   2.708   4.938   1.732 -1.1682  0.9830 -2.8517
14220SOL     OW43493   6.654   0.011   5.103  0.4004  0.2874  0.0693
14220SOL    HW143494   6.610   0.000   5.187 -0.0421  2.6839  0.2138
14220SOL    HW243495   6.584   0.030   5.041  0.5207 -3.0031 -1.2850
14221SOL     OW43496   7.338   3.969   6.334 -0.1392  0.3270  0.6430
14221SOL    HW143497   7.341   3.875   6.318 -1.3991  0.3371  0.2147
14221SOL    HW243498   7.389   4.007   6.262 -0.3945  0.0166  0.2915
14222SOL     OW43499   5.142   7.479   2.980 -0.3771  0.1893  0.6250
14222SOL    HW143500   5.212   7.501   3.042  1.0341 -2.0199 -0.0784
14222SOL    HW243501   5.134   7.384   2.985 -2.1772  0.2289 -0.5767
14223SOL     OW43502   3.947   0.030   7.709 -0.0364  0.2377  0.0225
14223SOL    HW143503   3.979   0.101   7.765 -2.3758  2.3433 -1.1150
14223SOL    HW243504   3.879  -0.013   7.761 -0.1115  0.2370 -0.0763
14224SOL     OW43505   7.260   0.495   4.295 -0.1259 -0.1435  0.2330
14224SOL    HW143506   7.174   0.462   4.271 -0.7738  0.3344  1.7750
14224SOL    HW243507   7.272   0.574   4.243  0.0609 -1.0061 -1.0977
14225SOL     OW43508   1.839   3.240   1.822  0.8620 -0.1165 -0.1983
14225SOL    HW143509   1.906   3.212   1.885  1.5441 -0.7374 -1.1872
14225SOL    HW243510   1.838   3.335   1.830  2.0931 -0.0694 -0.3953
14226SOL     OW43511   7.927   6.895   3.877  0.3535  0.0742 -0.1521
14226SOL    HW143512   7.984   6.897   3.800  0.9871  2.1879  0.3172
14226SOL    HW243513   7.982   6.929   3.948 -1.1446  1.1009  0.5564
14227SOL     OW43514   3.133   6.396   7.277  0.0093 -0.2529 -0.2345
14227SOL    HW143515   3.191   6.473   7.277  0.4994 -0.6141  0.2835
14227SOL    HW243516   3.191   6.323   7.257 -0.2959 -0.6019  0.1522
14228SOL     OW43517   5.974   0.387   2.050  0.6956 -0.2783  0.1716
14228SOL    HW143518   5.967   0.321   1.982 -1.1602 -0.6287  0.6361
14228SOL    HW243519   6.006   0.339   2.127 -0.3161 -0.5935  0.4124
14229SOL     OW43520   1.853   4.459   5.221  0.0625  0.3794  0.4006
14229SOL    HW143521   1.943   4.465   5.253  0.5879 -2.7599 -0.1124
14229SOL    HW243522   1.821   4.375   5.253 -2.0741  0.6035 -0.8999
14230SOL     OW43523   5.735   2.814   4.181 -0.1284  0.1306 -0.0761
14230SOL    HW143524   5.769   2.895   4.144 -1.1507  0.0937 -1.1830
14230SOL    HW243525   5.641   2.818   4.163 -0.4009 -0.6819  1.0739
14231SOL     OW43526   0.338   0.333   4.234 -0.4617 -0.0488 -0.1635
14231SOL    HW143527   0.303   0.281   4.306 -1.3362  0.7355  0.0064
14231SOL    HW243528   0.402   0.391   4.275  0.7384 -1.1733 -0.4012
14232SOL     OW43529   2.325   2.578   3.469  0.0913  0.1475 -0.0982
14232SOL    HW143530   2.389   2.580   3.397  0.2132 -1.8944 -0.0944
14232SOL    HW243531   2.378   2.561   3.547 -0.3277 -0.5478  0.0439
14233SOL     OW43532   6.052   4.528   1.868  0.3854  0.1493  0.2455
14233SOL    HW143533   6.065   4.623   1.861 -0.2776  0.3281  1.2315
14233SOL    HW243534   6.093   4.505   1.951  0.5021 -0.4197  0.0295
14234SOL     OW43535   7.046   0.677   2.785 -0.1377 -0.2074 -0.1318
14234SOL    HW143536   7.106   0.687   2.712  0.1879 -0.3488  0.1134
14234SOL    HW243537   7.102   0.679   2.863 -0.3599 -1.1043  0.0681
14235SOL     OW43538   4.424   4.343   7.793  0.4498 -0.5398 -0.2212
14235SOL    HW143539   4.515   4.316   7.778 -0.1993 -3.0620 -0.1583
14235SOL    HW243540   4.373   4.286   7.736 -1.1048  1.2542 -0.7191
14236SOL     OW43541   6.814   0.681   4.294 -0.0636 -0.1372 -0.7327
14236SOL    HW143542   6.781   0.746   4.356 -1.1656 -1.1780 -0.1784
14236SOL    HW243543   6.862   0.732   4.229 -1.5071  1.3249 -0.7279
14237SOL     OW43544   0.512   5.165   0.249 -0.2993  0.1113  0.1353
14237SOL    HW143545   0.589   5.221   0.242  1.6041 -2.3375  0.1019
14237SOL    HW243546   0.492   5.164   0.343  0.5810 -0.2924  0.3265
14238SOL     OW43547   0.822   1.558   5.698  0.2718  0.1295  0.1793
14238SOL    HW143548   0.798   1.640   5.740  2.0381  0.3525  0.8656
14238SOL    HW243549   0.906   1.578   5.655  0.9278 -1.3985  0.6908
14239SOL     OW43550   3.394   5.139   2.492 -0.2297 -0.0671 -0.0173
14239SOL    HW143551   3.396   5.159   2.586 -2.2548  1.4147 -0.1941
14239SOL    HW243552   3.348   5.055   2.486 -0.7330  0.1778  0.3070
14240SOL     OW43553   3.241   6.935   0.441 -0.6184 -0.2625 -0.8550
14240SOL    HW143554   3.194   6.863   0.398 -1.8356  0.8367 -1.4535
14240SOL    HW243555   3.235   7.007   0.378 -2.0651  1.2619  0.9177
14241SOL     OW43556   6.662   1.756   0.913  0.6096  0.4941 -0.0788
14241SOL    HW143557   6.698   1.719   0.994  3.0737  0.3219 -1.1557
14241SOL    HW243558   6.707   1.840   0.904  0.1365  0.6443 -1.1186
14242SOL     OW43559   3.824   5.534   2.577 -0.1716 -0.5622 -0.3742
14242SOL    HW143560   3.913   5.545   2.543 -0.0422 -0.8478 -0.1344
14242SOL    HW243561   3.793   5.452   2.538  0.6865 -1.9506  1.6412
14243SOL     OW43562   1.185   7.848   4.302  0.0374 -0.3982 -0.1817
14243SOL    HW143563   1.225   7.813   4.223 -0.7428 -0.5207 -0.5285
14243SOL    HW243564   1.252   7.907   4.338 -0.1093  0.7383 -1.6675
14244SOL     OW43565   0.931   3.416   7.761 -0.2594 -0.0165  0.5057
14244SOL    HW143566   0.873   3.342   7.777  1.0867 -1.1566  0.3277
14244SOL    HW243567   0.874   3.486   7.730 -1.4936 -1.1773  0.1029
14245SOL     OW43568   4.081   7.761   2.481  0.9504  0.0584  0.3577
14245SOL    HW143569   4.037   7.799   2.557  0.7251  1.1300 -0.2742
14245SOL    HW243570   4.014   7.710   2.437  1.0560 -0.4858  0.8066
14246SOL     OW43571   5.095   1.165   7.081  0.1269 -0.1591  0.3180
14246SOL    HW143572   5.121   1.107   7.010  0.9994  1.0544 -0.3973
14246SOL    HW243573   5.001   1.150   7.090 -0.2063  0.3088 -1.7606
14247SOL     OW43574   5.245   0.348   1.578 -0.0735  0.7945  0.2849
14247SOL    HW143575   5.312   0.327   1.644  1.1897 -1.9038 -1.6735
14247SOL    HW243576   5.169   0.297   1.604  0.3536 -0.0973 -0.1473
14248SOL     OW43577   6.207   0.901   3.354 -0.0425  0.3119  0.2186
14248SOL    HW143578   6.136   0.838   3.363  1.2546 -1.3822 -0.8695
14248SOL    HW243579   6.258   0.892   3.435  0.3074 -0.2824 -0.0606
14249SOL     OW43580   4.438   4.714   6.173 -0.2997 -0.6299  0.2725
14249SOL    HW143581   4.408   4.803   6.192 -1.0306 -0.2258 -2.3986
14249SOL    HW243582   4.498   4.724   6.100 -0.6182 -2.3556 -0.2714
14250SOL     OW43583   1.801   5.859   1.521 -0.0903 -0.3427  0.2462
14250SOL    HW143584   1.791   5.838   1.428 -0.3105 -1.3296  0.4772
14250SOL    HW243585   1.724   5.910   1.543 -0.4885 -0.8663  0.0848
14251SOL     OW43586   4.637   5.998   4.752  0.0528  0.1645  0.5131
14251SOL    HW143587   4.646   6.090   4.728  0.0383  0.1964  0.6312
14251SOL    HW243588   4.572   5.964   4.691  0.9489 -0.0672 -0.3584
14252SOL     OW43589   6.808   6.863   4.364  0.0133 -0.5185  0.1488
14252SOL    HW143590   6.757   6.785   4.342 -1.1109 -0.0036  0.8160
14252SOL    HW243591   6.898   6.831   4.375 -0.4599 -1.7494  0.5738
14253SOL     OW43592   2.080   0.043   2.348 -0.0160  0.1324 -0.1956
14253SOL    HW143593   2.105  -0.026   2.288  1.6017  0.1406  0.4238
14253SOL    HW243594   2.112   0.014   2.433  1.5809  2.0426 -0.0723
14254SOL     OW43595   4.459   1.231   6.898 -0.3293 -0.0363  1.1609
14254SOL    HW143596   4.403   1.303   6.868 -0.7849 -0.3613  1.2119
14254SOL    HW243597   4.517   1.271   6.963  1.1070  0.8047 -0.5868
14255SOL     OW43598   1.660   3.157   2.837  0.0187 -0.1072 -0.3894
14255SOL    HW143599   1.738   3.123   2.794 -0.3939 -0.8111 -0.5882
14255SOL    HW243600   1.691   3.232   2.887  1.1497 -1.4344  0.9664
14256SOL     OW43601   1.607   1.905   6.464 -0.3373 -0.1284  0.3881
14256SOL    HW143602   1.629   1.816   6.491 -0.2423  0.0352  0.8735
14256SOL    HW243603   1.683   1.936   6.416  0.0102  0.0075  1.0101
14257SOL     OW43604   2.880   5.686   1.306  0.0735 -0.2796  0.0897
14257SOL    HW143605   2.875   5.640   1.390 -1.2906 -0.3024  0.0082
14257SOL    HW243606   2.791   5.715   1.288  0.1140 -1.2008 -1.8695
14258SOL     OW43607   7.249   7.065   6.207  0.0284  0.4841 -0.2738
14258SOL    HW143608   7.327   7.049   6.260  0.8309 -0.5883 -1.7133
14258SOL    HW243609   7.203   7.136   6.252  1.3279  0.4722  1.1293
14259SOL     OW43610   2.436   3.196   1.520 -0.6268  0.1384 -0.0061
14259SOL    HW143611   2.352   3.161   1.551 -1.4834 -0.7964 -3.0906
14259SOL    HW243612   2.412   3.274   1.470  0.1964 -0.7028 -1.7737
14260SOL     OW43613   6.276   1.748   2.134 -0.3140  0.5355  0.2709
14260SOL    HW143614   6.226   1.830   2.128  1.0144  1.4160  0.7164
14260SOL    HW243615   6.212   1.684   2.165 -1.3502  1.4397  0.0866
14261SOL     OW43616   1.279   3.171   7.180  0.0873 -0.5937 -0.1891
14261SOL    HW143617   1.322   3.086   7.175  0.7775 -0.3130  0.7119
14261SOL    HW243618   1.329   3.219   7.246 -1.7022 -0.3301  1.0460
14262SOL     OW43619   4.910   2.883   6.727 -0.3907 -0.3927 -0.6195
14262SOL    HW143620   4.979   2.849   6.671  0.3508 -1.4764  0.8854
14262SOL    HW243621   4.934   2.974   6.743  0.6437 -0.7302 -0.1933
14263SOL     OW43622   3.472   7.604   7.079  0.0987 -0.4525  0.1281
14263SOL    HW143623   3.435   7.519   7.105 -1.0601  0.0591  0.2322
14263SOL    HW243624   3.536   7.624   7.146  2.9151 -2.7917 -1.6266
14264SOL     OW43625   3.564   6.233   5.486  0.3553 -0.4400 -0.9137
14264SOL    HW143626   3.588   6.294   5.557  1.3644 -1.1209 -0.6325
14264SOL    HW243627   3.515   6.285   5.424 -0.0768  0.3086  0.0384
14265SOL     OW43628   1.533   3.019   5.283  0.5320 -0.0495 -0.1473
14265SOL    HW143629   1.593   3.079   5.239  0.9851 -0.9368 -0.7653
14265SOL    HW243630   1.585   2.978   5.352 -0.0704  1.0434  1.0132
14266SOL     OW43631   1.611   5.014   6.607  0.4820 -0.1392 -0.7077
14266SOL    HW143632   1.608   4.953   6.681  0.3354 -0.2831 -0.8308
14266SOL    HW243633   1.626   5.100   6.647 -0.1943 -0.1282 -0.4630
14267SOL     OW43634   7.356   7.086   6.948  0.3825 -0.2079  0.1309
14267SOL    HW143635   7.373   7.069   7.040  0.0705 -0.8200  0.0839
14267SOL    HW243636   7.268   7.123   6.945  0.9722  1.2473  0.2103
14268SOL     OW43637   4.540   3.766   3.962  0.6158 -0.4026 -0.0776
14268SOL    HW143638   4.449   3.778   3.933 -0.0420 -0.3157  1.8753
14268SOL    HW243639   4.591   3.767   3.881 -0.9885  0.7056 -1.1459
14269SOL     OW43640   1.638   0.944   4.783  0.1620  0.1409 -0.0018
14269SOL    HW143641   1.652   0.879   4.714  1.7427  0.9368 -0.4880
14269SOL    HW243642   1.544   0.962   4.780 -0.0455 -0.9794 -0.8897
14270SOL     OW43643   2.257   6.613   7.050 -0.3145 -0.2008 -0.0261
14270SOL    HW143644   2.245   6.533   7.101  1.1491 -0.3297  0.1463
14270SOL    HW243645   2.328   6.593   6.990 -1.0188  0.4481 -1.1005
14271SOL     OW43646   3.246   0.646   2.438  0.2307  0.1141 -0.0652
14271SOL    HW143647   3.277   0.699   2.365  1.3093  1.3737  1.2171
14271SOL    HW243648   3.323   0.596   2.466  0.7330  1.8434  1.9685
14272SOL     OW43649   7.941   1.791   1.315  0.0210  0.0799  0.2402
14272SOL    HW143650   7.923   1.840   1.396  3.0801  1.3025  0.3234
14272SOL    HW243651   7.958   1.702   1.345  0.3764  0.3489  0.8801
14273SOL     OW43652   6.007   2.906   3.203 -0.4950  0.8688  0.4335
14273SOL    HW143653   6.023   2.874   3.115  1.7768  0.1338  1.0293
14273SOL    HW243654   5.992   2.827   3.255 -0.6980  1.2051  0.8975
14274SOL     OW43655   1.888   5.328   1.895  0.3871 -0.9187 -0.2644
14274SOL    HW143656   1.887   5.320   1.800  0.6395  1.2677 -0.5070
14274SOL    HW243657   1.965   5.381   1.914 -1.6104  1.8244  0.7824
14275SOL     OW43658   0.740   5.215   3.828 -0.0282  0.4988 -0.1851
14275SOL    HW143659   0.782   5.158   3.893 -2.9653 -0.5377  1.0037
14275SOL    HW243660   0.745   5.303   3.865 -0.8648  0.0455  1.0661
14276SOL     OW43661   4.476   7.438   0.488 -0.0057 -0.2751 -0.8905
14276SOL    HW143662   4.550   7.434   0.549 -0.7472 -0.5164  0.0123
14276SOL    HW243663   4.468   7.349   0.454  1.2907  0.1500 -2.4648
14277SOL     OW43664   7.281   1.282   5.346 -0.0812  0.0272 -0.4285
14277SOL    HW143665   7.346   1.213   5.336  0.0579 -0.0065  0.5799
14277SOL    HW243666   7.241   1.265   5.431 -0.0095  1.2115 -0.1371
14278SOL     OW43667   5.055   7.729   3.898  0.1921  0.0602  0.4713
14278SOL    HW143668   5.006   7.647   3.900 -1.0974  0.7810  3.1927
14278SOL    HW243669   5.138   7.708   3.939  0.2661 -0.1039  0.2393
14279SOL     OW43670   6.631   7.485   2.731  0.7041 -0.1748 -0.4604
14279SOL    HW143671   6.543   7.520   2.722 -0.0133 -2.0684 -1.5516
14279SOL    HW243672   6.652   7.494   2.824 -0.8313 -0.0843 -0.1051
14280SOL     OW43673   0.965   0.868   6.908  0.2838  0.4006 -0.4412
14280SOL    HW143674   0.903   0.933   6.940 -0.7281 -0.6516 -0.2136
14280SOL    HW243675   0.926   0.836   6.827 -0.4599 -1.5969  0.6358
14281SOL     OW43676   2.624   1.216   5.393  0.8416  0.4728 -0.2722
14281SOL    HW143677   2.694   1.162   5.429  0.6666  1.1908  1.2309
14281SOL    HW243678   2.554   1.154   5.372  0.3952  0.1172  2.0083
14282SOL     OW43679   4.485   6.051   3.453  0.2967 -0.3833 -0.4551
14282SOL    HW143680   4.459   5.973   3.502 -1.9153  1.5763  1.7641
14282SOL    HW243681   4.418   6.060   3.385 -0.1247  0.1458  0.0145
14283SOL     OW43682   7.469   5.500   2.832  0.0899 -0.6192 -0.1949
14283SOL    HW143683   7.393   5.524   2.885 -0.8162 -0.0899 -1.6797
14283SOL    HW243684   7.543   5.505   2.892 -1.3158 -4.3104  2.2010
14284SOL     OW43685   6.021   7.381   5.290 -0.0357 -0.4131  0.0022
14284SOL    HW143686   6.075   7.309   5.321  1.2221 -0.3333 -1.8377
14284SOL    HW243687   6.066   7.460   5.321 -0.7083 -0.3667  0.9115
14285SOL     OW43688   5.848   1.569   5.408  0.2408 -0.0453 -0.5374
14285SOL    HW143689   5.894   1.633   5.354  0.4434  0.4724  0.2429
14285SOL    HW243690   5.801   1.621   5.473  1.1694 -0.7117  0.7113
14286SOL     OW43691   3.832   3.854   6.222  0.4158 -0.0252 -0.4792
14286SOL    HW143692   3.869   3.923   6.167  1.1668  2.0994  2.4694
14286SOL    HW243693   3.744   3.886   6.245  0.8748  0.1697  1.1358
14287SOL     OW43694   7.177   0.312   2.629 -0.5447 -0.0487  0.0265
14287SOL    HW143695   7.251   0.329   2.570  0.6350  0.5280  1.5924
14287SOL    HW243696   7.199   0.229   2.671 -1.1995 -0.2802 -0.0838
14288SOL     OW43697   0.895   0.892   0.022  0.5184 -0.2430  0.0458
14288SOL    HW143698   0.849   0.835   0.083 -0.6503  1.4368  0.7899
14288SOL    HW243699   0.842   0.971   0.017 -0.2953 -0.7901 -4.2997
14289SOL     OW43700   0.665   0.452   1.591 -0.0762 -0.7995  0.2056
14289SOL    HW143701   0.684   0.439   1.498 -0.7715  2.3714 -0.4947
14289SOL    HW243702   0.579   0.412   1.603 -0.7232  0.1939 -0.9489
14290SOL     OW43703   6.217   1.559   7.175  0.3247  0.3810 -0.1127
14290SOL    HW143704   6.185   1.574   7.086  0.2897 -0.7563 -0.3036
14290SOL    HW243705   6.301   1.515   7.163 -0.0049 -0.4069  0.4204
14291SOL     OW43706   3.727   6.408   7.604 -0.4710  0.0432 -0.4905
14291SOL    HW143707   3.665   6.384   7.535 -1.5163 -0.4543  0.5953
14291SOL    HW243708   3.805   6.356   7.586 -0.1474  1.0314 -2.1559
14292SOL     OW43709   1.384   6.665   4.726  0.4067  0.0080 -0.3076
14292SOL    HW143710   1.348   6.754   4.723  1.6082  0.5003 -0.7085
14292SOL    HW243711   1.389   6.638   4.635  1.0646 -0.0495 -0.2553
14293SOL     OW43712   7.050   6.689   0.083 -0.4435 -0.0273  0.0312
14293SOL    HW143713   6.972   6.712   0.033  0.2789  1.0376 -0.6574
14293SOL    HW243714   7.029   6.714   0.173 -1.4219 -1.1235  0.1294
14294SOL     OW43715   7.782   7.357   1.660 -0.1192 -0.0438 -0.6102
14294SOL    HW143716   7.805   7.450   1.667 -0.7115 -0.0153  1.4306
14294SOL    HW243717   7.694   7.356   1.622  0.3720  0.1423 -1.8071
14295SOL     OW43718   0.043   0.421   0.128  0.5657 -0.1802 -0.2292
14295SOL    HW143719   0.014   0.330   0.133 -0.0530  0.0348  0.1301
14295SOL    HW243720   0.041   0.442   0.035  0.6649 -0.5198 -0.3091
14296SOL     OW43721   2.409   5.913   5.001 -0.0406 -0.3995  0.0130
14296SOL    HW143722   2.461   5.959   4.935  0.5220 -1.4073 -0.2568
14296SOL    HW243723   2.408   5.822   4.973 -1.5653 -0.4962  0.2749
14297SOL     OW43724   5.633   1.001   7.183 -0.0226  0.2332 -0.3117
14297SOL    HW143725   5.681   0.929   7.141  2.1515  1.0696  0.6001
14297SOL    HW243726   5.668   1.080   7.143 -1.2479  0.8754 -0.1687
14298SOL     OW43727   6.364   0.649   6.828 -0.0355  0.1610  0.0357
14298SOL    HW143728   6.400   0.700   6.900  0.9343 -1.7524  0.9997
14298SOL    HW243729   6.289   0.699   6.798  0.9702  2.2100  0.7599
14299SOL     OW43730   6.216   0.172   6.519  0.0777  0.0289  0.3855
14299SOL    HW143731   6.285   0.238   6.507  0.3005 -0.3273 -0.3406
14299SOL    HW243732   6.138   0.224   6.539  0.2424  0.5270 -0.2079
14300SOL     OW43733   6.881   6.307   3.272  0.7848  0.1904  0.1025
14300SOL    HW143734   6.947   6.371   3.247  1.0959  0.2178  0.9934
14300SOL    HW243735   6.907   6.276   3.359  0.7416 -1.2635 -0.3605
14301SOL     OW43736   0.878   5.270   0.005 -0.6443 -0.2854  0.0966
14301SOL    HW143737   0.914   5.355  -0.019  0.0089 -0.7934 -0.7547
14301SOL    HW243738   0.942   5.206  -0.026 -0.1739 -1.0469  2.4040
14302SOL     OW43739   5.234   0.526   6.515  0.0653  0.0016 -0.6384
14302SOL    HW143740   5.234   0.443   6.467  3.1980 -0.7818  0.4881
14302SOL    HW243741   5.268   0.589   6.452  1.6429 -0.4886 -0.3319
14303SOL     OW43742   6.374   2.180   0.375 -0.1180 -0.3239  0.1486
14303SOL    HW143743   6.443   2.147   0.318  0.7362 -0.8193  1.4360
14303SOL    HW243744   6.379   2.275   0.366  0.5598 -0.3658  0.0307
14304SOL     OW43745   2.237   0.616   4.965 -0.3523  0.1157  0.0672
14304SOL    HW143746   2.195   0.579   5.042  0.4708 -1.3131 -0.1309
14304SOL    HW243747   2.234   0.546   4.899  2.2605 -0.0818  0.0402
14305SOL     OW43748   5.869   6.635   0.650 -0.4385 -0.7195 -0.0180
14305SOL    HW143749   5.876   6.639   0.555 -0.1637 -1.4792 -0.0360
14305SOL    HW243750   5.949   6.677   0.682 -2.7748  4.4968  0.0131
14306SOL     OW43751   2.297   2.906   4.502  0.0235 -0.1656 -0.3853
14306SOL    HW143752   2.238   2.929   4.430  0.5334  1.0688 -0.4247
14306SOL    HW243753   2.340   2.988   4.525  0.0143 -0.5755  1.2085
14307SOL     OW43754   7.173   7.894   6.475  0.4547 -0.0690  0.2490
14307SOL    HW143755   7.249   7.868   6.528 -0.1351  3.2551  3.0581
14307SOL    HW243756   7.111   7.822   6.486  1.4839 -0.7912  1.7527
14308SOL     OW43757   5.440   4.005   6.222 -0.1626 -0.5009 -0.0489
14308SOL    HW143758   5.389   3.999   6.303  0.4702  0.5243  0.4566
14308SOL    HW243759   5.377   3.988   6.152 -0.7158 -1.4458  0.6576
14309SOL     OW43760   3.583   0.650   1.241 -0.1717  0.3836  0.3476
14309SOL    HW143761   3.647   0.718   1.220 -1.6269  1.1810 -1.8056
14309SOL    HW243762   3.576   0.599   1.161 -0.2378 -1.4196  1.4573
14310SOL     OW43763   5.158   7.560   0.785 -0.0918 -0.3139  0.0857
14310SOL    HW143764   5.129   7.648   0.763 -1.6171 -0.5714  0.8846
14310SOL    HW243765   5.234   7.573   0.841 -0.7349  0.5319  0.7936
14311SOL     OW43766   6.935   4.338   4.656 -0.4680 -0.0515 -0.5666
14311SOL    HW143767   7.006   4.402   4.659  0.2824 -0.8150  2.9096
14311SOL    HW243768   6.882   4.364   4.581  1.7774  2.4231 -1.4398
14312SOL     OW43769   3.853   6.840   6.939 -0.0551 -0.9243 -0.2216
14312SOL    HW143770   3.838   6.891   6.859  2.0734 -0.3373 -0.3124
14312SOL    HW243771   3.798   6.882   7.005  0.3130  0.4172 -0.7230
14313SOL     OW43772   0.585   4.217   7.746  0.4416  0.6256 -0.0244
14313SOL    HW143773   0.597   4.281   7.676 -0.5351  0.6175 -0.2244
14313SOL    HW243774   0.583   4.133   7.701  0.2677  0.5823  0.0629
14314SOL     OW43775   3.591   1.091   1.085  0.0036 -0.1883  0.3758
14314SOL    HW143776   3.558   1.151   1.018 -0.9273  0.3317  1.2793
14314SOL    HW243777   3.553   1.122   1.167  1.3395 -0.6393  1.2132
14315SOL     OW43778   0.846   5.771   1.904  0.1887  0.1504 -0.4135
14315SOL    HW143779   0.917   5.738   1.850  0.0260 -0.0099 -0.5332
14315SOL    HW243780   0.855   5.724   1.987  2.2613  2.5605  0.8329
14316SOL     OW43781   2.154   1.396   7.076 -0.3860  0.0467 -0.8506
14316SOL    HW143782   2.190   1.388   7.165 -0.9759  1.8172 -0.3991
14316SOL    HW243783   2.229   1.418   7.021 -0.5024  2.8496 -0.0653
14317SOL     OW43784   3.007   6.143   5.133  0.2233  0.0651 -0.2273
14317SOL    HW143785   2.942   6.165   5.199  1.9006  0.0916  1.4786
14317SOL    HW243786   3.016   6.048   5.139 -1.3704 -0.2950 -2.1981
14318SOL     OW43787   7.551   3.839   1.666 -0.3616  0.2255  0.0001
14318SOL    HW143788   7.563   3.805   1.754 -0.2247 -0.5911 -0.3209
14318SOL    HW243789   7.530   3.762   1.613  3.7162 -0.0710 -1.5262
14319SOL     OW43790   6.000   0.585   2.267 -0.4150  0.3546  0.2543
14319SOL    HW143791   5.934   0.654   2.256 -1.1145 -0.3228  0.0763
14319SOL    HW243792   6.063   0.601   2.197 -0.9005  0.4639 -0.1662
14320SOL     OW43793   7.872   5.630   1.650  0.4082  0.2178 -0.1141
14320SOL    HW143794   7.904   5.542   1.629 -1.7511 -0.2345 -1.9590
14320SOL    HW243795   7.936   5.664   1.712  1.6402 -2.4237  0.2435
14321SOL     OW43796   2.071   5.987   5.197  0.3338 -0.5465 -0.2286
14321SOL    HW143797   2.122   6.057   5.157  1.1047 -1.4593 -0.9028
14321SOL    HW243798   2.099   5.987   5.289 -0.7830  0.9731  0.1479
14322SOL     OW43799   2.401   5.382   1.344 -0.3902 -0.5818  0.1151
14322SOL    HW143800   2.473   5.402   1.284 -0.5457 -0.6917 -0.1076
14322SOL    HW243801   2.425   5.428   1.425  0.4206 -1.4088  0.3673
14323SOL     OW43802   6.525   5.430   1.012 -0.1688 -0.1081  0.6989
14323SOL    HW143803   6.573   5.481   0.947  1.8192 -1.2143  1.2082
14323SOL    HW243804   6.475   5.367   0.960 -0.7671  0.7802  0.1676
14324SOL     OW43805   1.801   1.443   5.700 -0.6567  0.4526  0.0739
14324SOL    HW143806   1.771   1.478   5.784  2.6486  0.2694  1.4976
14324SOL    HW243807   1.802   1.348   5.712  1.2016  0.4808  0.4323
14325SOL     OW43808   5.859   7.544   0.765  0.1669  0.0102 -0.1842
14325SOL    HW143809   5.892   7.632   0.780 -1.2452  0.5937 -0.3063
14325SOL    HW243810   5.765   7.557   0.747 -0.2755 -1.6034  0.8067
14326SOL     OW43811   2.665   6.792   1.876  0.3030  0.3434 -0.0884
14326SOL    HW143812   2.703   6.860   1.932 -0.0020 -1.3989  2.4160
14326SOL    HW243813   2.584   6.768   1.920 -0.6205 -0.2795 -2.0182
14327SOL     OW43814   2.508   0.758   6.411  0.6723 -0.7988 -0.1558
14327SOL    HW143815   2.542   0.844   6.387 -1.3939 -0.6314 -3.0639
14327SOL    HW243816   2.428   0.776   6.460  1.7597 -1.1393  1.8083
14328SOL     OW43817   2.307   1.666   7.437  0.1713  0.1607 -0.1814
14328SOL    HW143818   2.318   1.761   7.433 -0.1300  0.1792 -0.7183
14328SOL    HW243819   2.265   1.650   7.521 -0.9868  0.6366 -0.6507
14329SOL     OW43820   6.437   1.081   5.745 -0.1103  0.5937  0.3139
14329SOL    HW143821   6.426   0.986   5.746 -1.1393  0.6786 -0.3832
14329SOL    HW243822   6.526   1.096   5.775  0.5177 -0.6651 -0.8234
14330SOL     OW43823   5.158   0.675   3.951  0.1652  0.8978 -0.1679
14330SOL    HW143824   5.162   0.643   3.861 -1.5517  0.7269 -0.2122
14330SOL    HW243825   5.250   0.690   3.975  0.6027  2.2040 -2.3790
14331SOL     OW43826   5.905   6.359   1.387  0.1056 -0.4333  0.5674
14331SOL    HW143827   5.974   6.294   1.399 -1.3241 -1.9701  0.8692
14331SOL    HW243828   5.910   6.382   1.295  1.6262  0.2502  0.7795
14332SOL     OW43829   7.940   0.248   4.071  0.2502  0.1449  0.2200
14332SOL    HW143830   7.985   0.228   4.153  2.1058 -1.1982 -1.0403
14332SOL    HW243831   7.855   0.207   4.080  0.4814 -0.1202  1.3998
14333SOL     OW43832   0.994   1.652   5.413 -0.6119 -0.3357  0.0803
14333SOL    HW143833   0.988   1.744   5.389 -0.9446  0.3094  2.3430
14333SOL    HW243834   1.049   1.651   5.491  0.2619 -2.2050 -0.5064
14334SOL     OW43835   2.512   1.264   6.668 -0.5253 -0.2414 -0.0391
14334SOL    HW143836   2.511   1.320   6.746  0.2694 -0.4169  0.1084
14334SOL    HW243837   2.488   1.322   6.596 -1.1079 -0.0396  0.3157
14335SOL     OW43838   7.364   2.751   7.359 -0.1120  0.1238 -0.1642
14335SOL    HW143839   7.350   2.660   7.385  1.1737 -0.2201 -0.6035
14335SOL    HW243840   7.317   2.803   7.424 -1.3347 -0.8618 -0.2299
14336SOL     OW43841   1.779   0.973   0.159 -0.0824 -0.2174  0.1445
14336SOL    HW143842   1.737   0.977   0.245  2.5988  0.8855  1.5326
14336SOL    HW243843   1.872   0.986   0.178  0.9119 -2.1453 -2.7316
14337SOL     OW43844   3.812   5.969   5.066  0.5314 -0.0745  0.3231
14337SOL    HW143845   3.773   5.905   5.125  0.0039  0.6998  0.8463
14337SOL    HW243846   3.809   6.051   5.115  2.2003  0.1531  0.0980
14338SOL     OW43847   3.029   5.176   1.748  0.2905 -0.1813 -0.0775
14338SOL    HW143848   2.986   5.136   1.672 -1.4224  1.1314  0.1515
14338SOL    HW243849   2.967   5.163   1.820  1.9096 -1.4533  1.1736
14339SOL     OW43850   3.903   4.750   3.171  0.1346  0.0884  0.1422
14339SOL    HW143851   3.949   4.667   3.163  1.6017  0.8957 -0.1577
14339SOL    HW243852   3.954   4.801   3.234 -1.3785  0.3748  1.2084
14340SOL     OW43853   4.157   0.157   5.562 -0.2361  0.6827  0.1612
14340SOL    HW143854   4.219   0.084   5.556  1.1894  1.9160 -1.0764
14340SOL    HW243855   4.078   0.125   5.519  0.9339  0.3604 -1.9110
14341SOL     OW43856   0.704   1.819   5.750  0.2149  0.0545 -0.1799
14341SOL    HW143857   0.636   1.882   5.727 -0.8413  0.1824  2.8519
14341SOL    HW243858   0.753   1.862   5.820  1.4170 -1.2970 -0.1544
14342SOL     OW43859   3.891   7.627   1.159  0.6534  0.4804  0.1816
14342SOL    HW143860   3.797   7.610   1.152  0.8827 -0.8096 -0.1422
14342SOL    HW243861   3.913   7.599   1.249  1.0957 -1.4307 -0.4625
14343SOL     OW43862   2.894   0.191   3.064 -0.5018 -0.6125 -0.1797
14343SOL    HW143863   2.951   0.207   2.988 -0.7330  3.5463  0.3038
14343SOL    HW243864   2.947   0.137   3.123  1.1412 -0.7029 -1.6498
14344SOL     OW43865   5.046   6.276   6.188  0.5301 -0.8891 -0.5540
14344SOL    HW143866   4.981   6.257   6.120  0.7422 -1.3909 -0.6167
14344SOL    HW243867   5.130   6.264   6.144  0.6872  0.8725 -0.7973
14345SOL     OW43868   0.379   7.805   6.581 -0.3103  0.2946  0.0566
14345SOL    HW143869   0.440   7.876   6.559  0.4704 -1.1978 -3.3366
14345SOL    HW243870   0.296   7.848   6.596  0.5198  2.0431 -0.1436
14346SOL     OW43871   7.675   7.722   0.617  0.6062  0.4774  0.3541
14346SOL    HW143872   7.659   7.752   0.528 -3.2435  0.1839  0.8013
14346SOL    HW243873   7.646   7.793   0.673 -1.6826 -1.1037  1.3371
14347SOL     OW43874   7.168   6.462   5.929  0.7153  0.2808 -0.1187
14347SOL    HW143875   7.138   6.428   5.845  0.1603  0.2092  0.0993
14347SOL    HW243876   7.120   6.545   5.939 -0.6449 -0.5814  0.9479
14348SOL     OW43877   6.505   2.054   0.140  0.1497 -0.1148 -0.3486
14348SOL    HW143878   6.501   1.965   0.173 -0.6420  0.1771  0.3971
14348SOL    HW243879   6.452   2.053   0.060 -0.3594 -0.1965 -0.0191
14349SOL     OW43880   1.689   7.918   1.858  0.9708 -0.3725 -0.0376
14349SOL    HW143881   1.644   7.885   1.936 -1.6967 -0.1493 -1.3663
14349SOL    HW243882   1.741   7.992   1.890 -1.3667  0.7746  1.3289
14350SOL     OW43883   3.405   7.633   0.418  0.3600 -0.4661 -0.0103
14350SOL    HW143884   3.312   7.639   0.440  0.4629 -0.2111  0.3500
14350SOL    HW243885   3.406   7.588   0.333 -0.1358  0.2711 -0.4141
14351SOL     OW43886   5.684   3.539   4.123 -0.2752  0.4876  0.1246
14351SOL    HW143887   5.714   3.449   4.136  0.9547  0.9490  0.5926
14351SOL    HW243888   5.593   3.538   4.152 -0.1303 -0.4926  0.5951
14352SOL     OW43889   6.465   7.658   7.518 -0.0784 -0.0122 -0.0678
14352SOL    HW143890   6.539   7.676   7.576 -0.0325  1.1575 -0.4492
14352SOL    HW243891   6.408   7.735   7.528 -0.9750 -0.6493 -0.1874
14353SOL     OW43892   4.102   3.084   7.831  0.3502 -0.0128 -0.2123
14353SOL    HW143893   4.188   3.068   7.870  0.7981  0.0336 -1.1450
14353SOL    HW243894   4.081   3.003   7.785  0.9718  0.7576 -1.9226
14354SOL     OW43895   4.067   0.844   1.997 -0.3960  0.1941 -0.3683
14354SOL    HW143896   4.044   0.931   2.028 -0.7668  0.0525 -0.2365
14354SOL    HW243897   4.153   0.827   2.035 -0.4083  0.4234 -0.2346
14355SOL     OW43898   1.948   0.387   4.580  0.1021 -0.2503  0.2470
14355SOL    HW143899   1.936   0.322   4.649 -0.0814 -0.7805 -0.2672
14355SOL    HW243900   2.039   0.416   4.589  0.5544 -1.4510 -0.2303
14356SOL     OW43901   7.710   1.757   5.766  0.0300 -0.4713  0.0855
14356SOL    HW143902   7.696   1.842   5.808 -0.5908 -0.6865  0.3154
14356SOL    HW243903   7.664   1.764   5.682  3.1892  0.8126 -1.7043
14357SOL     OW43904   7.670   5.824   6.302 -0.0445  0.6984 -0.0082
14357SOL    HW143905   7.747   5.768   6.307 -0.1544  0.2086 -2.7557
14357SOL    HW243906   7.698   5.906   6.343  1.5378  0.1165  0.1358
14358SOL     OW43907   6.424   3.438   0.668 -0.0329  0.1513 -0.3630
14358SOL    HW143908   6.505   3.387   0.664 -0.7795 -1.0466 -1.3087
14358SOL    HW243909   6.387   3.417   0.754 -0.0548 -0.4947 -0.5212
14359SOL     OW43910   0.333   4.116   1.308 -0.2662 -1.2169  0.0448
14359SOL    HW143911   0.278   4.055   1.259  0.3174 -1.1136 -0.7604
14359SOL    HW243912   0.422   4.083   1.295  0.0727 -0.1233 -0.5288
14360SOL     OW43913   2.563   5.430   4.589 -1.0889  0.7157  0.4859
14360SOL    HW143914   2.517   5.489   4.529 -1.3678  1.3426  1.2929
14360SOL    HW243915   2.553   5.344   4.550 -0.3484  1.2379 -0.9186
14361SOL     OW43916   5.221   5.029   7.701 -0.2138 -0.0520 -0.2863
14361SOL    HW143917   5.200   4.941   7.668 -0.5027  0.1436 -0.6352
14361SOL    HW243918   5.271   5.013   7.781 -1.3435 -0.5371  0.3517
14362SOL     OW43919   1.613   6.771   2.764 -0.7023 -0.2082  0.7482
14362SOL    HW143920   1.693   6.741   2.806  0.9790  0.7650 -1.5438
14362SOL    HW243921   1.619   6.867   2.767 -1.2245 -0.1228 -0.3991
14363SOL     OW43922   5.898   2.086   4.739  0.1504  0.5403 -0.4644
14363SOL    HW143923   5.927   2.091   4.648  0.8978  2.7041 -0.1706
14363SOL    HW243924   5.955   2.146   4.786 -1.3476  0.8179  1.1326
14364SOL     OW43925   7.565   6.767   3.067 -0.0774  0.0716 -0.1501
14364SOL    HW143926   7.658   6.771   3.091  0.3600  2.1200 -1.8787
14364SOL    HW243927   7.549   6.674   3.051  1.9604 -0.2341 -0.7881
14365SOL     OW43928   0.329   5.709   0.167 -0.1367 -0.1163 -0.0927
14365SOL    HW143929   0.276   5.648   0.114 -0.6898 -0.4165  0.7930
14365SOL    HW243930   0.394   5.653   0.210  0.3032  0.1275 -0.4305
14366SOL     OW43931   1.050   1.269   3.832 -0.3097 -0.3453 -0.3165
14366SOL    HW143932   1.124   1.313   3.790  0.2744 -0.4215  0.5958
14366SOL    HW243933   1.087   1.187   3.865 -1.1831 -1.1356 -1.2370
14367SOL     OW43934   5.948   5.151   2.677 -0.0996  0.7170 -0.0405
14367SOL    HW143935   5.904   5.191   2.752  0.5571  0.1090  0.6852
14367SOL    HW243936   5.936   5.057   2.690 -1.8517  0.6328 -1.8560
14368SOL     OW43937   1.441   2.705   4.289  0.3847 -0.3358  0.3937
14368SOL    HW143938   1.510   2.740   4.346 -1.6202  1.6197  1.8099
14368SOL    HW243939   1.418   2.778   4.232 -0.1092 -1.1418 -0.4469
14369SOL     OW43940   2.629   3.616   0.407 -0.2056 -0.0840  0.7368
14369SOL    HW143941   2.722   3.632   0.422 -0.2582  0.7739  0.2266
14369SOL    HW243942   2.623   3.521   0.391  1.1213  0.2690 -2.6447
14370SOL     OW43943   4.686   5.632   4.459 -0.4391 -0.0734  0.4368
14370SOL    HW143944   4.654   5.649   4.548 -1.9420 -0.6570  0.0373
14370SOL    HW243945   4.607   5.633   4.404  0.0389 -2.4921 -0.4478
14371SOL     OW43946   5.093   5.585   5.639 -0.0928 -0.6079 -0.3485
14371SOL    HW143947   5.136   5.585   5.554 -0.9085  0.7431 -0.7931
14371SOL    HW243948   5.019   5.525   5.628 -0.9914  0.5691 -1.0624
14372SOL     OW43949   5.208   5.386   1.073  0.0572  0.1235 -0.1853
14372SOL    HW143950   5.116   5.401   1.095  0.6534 -0.8563  3.8120
14372SOL    HW243951   5.256   5.454   1.121  1.4878  1.1724 -2.8846
14373SOL     OW43952   7.525   4.101   4.750  0.6648 -0.3418  0.3493
14373SOL    HW143953   7.529   4.096   4.655  0.3150  1.1352  0.2340
14373SOL    HW243954   7.506   4.012   4.778  0.9990 -0.8425 -0.9388
14374SOL     OW43955   4.108   3.007   3.643  0.7993 -0.6971  0.2332
14374SOL    HW143956   4.189   3.046   3.609  1.1259  0.1997  1.9474
14374SOL    HW243957   4.044   3.021   3.573  1.4372  1.0948 -0.0348
14375SOL     OW43958   2.299   5.477   4.724 -0.0974  0.5357  0.4226
14375SOL    HW143959   2.368   5.511   4.668 -1.5977  1.6576 -0.8443
14375SOL    HW243960   2.344   5.446   4.802  2.1362 -1.5440 -1.5326
14376SOL     OW43961   2.798   0.835   1.577 -0.1438 -0.5007 -0.6946
14376SOL    HW143962   2.793   0.749   1.619 -0.4048 -0.5069 -0.7369
14376SOL    HW243963   2.716   0.878   1.601 -0.2587 -0.4761 -1.1334
14377SOL     OW43964   4.839   4.238   3.955 -0.0512 -0.7058  0.3661
14377SOL    HW143965   4.750   4.266   3.977  0.9056  2.9862  0.1961
14377SOL    HW243966   4.895   4.305   3.995  2.4410 -0.9566 -2.4283
14378SOL     OW43967   0.152   0.598   5.134 -0.1488  0.0023  0.1317
14378SOL    HW143968   0.118   0.626   5.049 -1.6026  1.5611  1.1583
14378SOL    HW243969   0.240   0.564   5.115  0.4376  2.3019 -1.7361
14379SOL     OW43970   1.142   7.917   0.827  0.1954 -0.2009  0.2767
14379SOL    HW143971   1.050   7.897   0.843 -0.0332  0.3492 -0.2852
14379SOL    HW243972   1.144   8.012   0.811  0.5888 -0.4533 -1.4059
14380SOL     OW43973   1.825   6.493   1.175 -0.0159  0.4517  0.5938
14380SOL    HW143974   1.891   6.563   1.175  0.1606  0.2900  0.2778
14380SOL    HW243975   1.749   6.532   1.133 -0.0489  0.5727  0.7638
14381SOL     OW43976   5.827   0.702   1.065 -0.7497  0.3625 -0.3495
14381SOL    HW143977   5.773   0.754   1.006  0.1461  4.4350  2.0439
14381SOL    HW243978   5.916   0.734   1.050 -0.2823  0.2780  1.9172
14382SOL     OW43979   7.716   4.656   3.895  0.5852  0.0960  0.2960
14382SOL    HW143980   7.717   4.711   3.974  0.8429  0.7904 -0.1832
14382SOL    HW243981   7.690   4.716   3.825 -0.3787 -0.6818 -0.0332
14383SOL     OW43982   2.999   7.456   0.490 -0.1912 -0.4229 -0.0979
14383SOL    HW143983   2.951   7.393   0.545  1.3936 -1.1001  0.5467
14383SOL    HW243984   2.951   7.456   0.407 -0.3476 -2.3602 -0.0475
14384SOL     OW43985   0.226   1.006   3.221 -0.0445  0.0098 -0.2825
14384SOL    HW143986   0.163   1.078   3.226  0.2867  0.2714  0.3053
14384SOL    HW243987   0.192   0.941   3.282  0.5181  0.3740  0.4373
14385SOL     OW43988   6.542   7.188   5.315 -0.1870 -0.6712  0.3430
14385SOL    HW143989   6.462   7.229   5.284 -1.1874 -2.1396  0.8958
14385SOL    HW243990   6.548   7.105   5.268  0.8468 -0.7312  0.5384
14386SOL     OW43991   3.870   4.755   4.834 -0.3313 -0.5300 -0.2117
14386SOL    HW143992   3.902   4.741   4.923  2.2813 -0.4772 -1.0564
14386SOL    HW243993   3.914   4.835   4.805 -2.3369  0.3277 -1.0594
14387SOL     OW43994   3.610   4.209   0.210 -0.1607  0.6542 -0.4372
14387SOL    HW143995   3.612   4.287   0.267  0.4228  1.6952 -1.8390
14387SOL    HW243996   3.587   4.137   0.270  1.1051  1.5768  1.2527
14388SOL     OW43997   2.354   7.459   2.384  0.0478  0.0115  0.2439
14388SOL    HW143998   2.298   7.435   2.458 -0.8304  0.4667 -0.2529
14388SOL    HW243999   2.376   7.551   2.400 -1.0141  0.4332 -0.5706
14389SOL     OW44000   3.893   4.660   7.915  0.4046  0.6306 -0.1446
14389SOL    HW144001   3.945   4.646   7.837 -0.6563  0.7856 -0.8993
14389SOL    HW244002   3.838   4.582   7.923  0.9061  0.3561  0.7786
14390SOL     OW44003   7.360   3.416   2.341 -0.0460  0.2793  0.4550
14390SOL    HW144004   7.302   3.352   2.300  0.9550  0.2637 -1.0113
14390SOL    HW244005   7.407   3.367   2.408 -0.4803 -0.1157  0.4733
14391SOL     OW44006   7.002   2.861   3.085 -0.3641  0.4763 -0.0434
14391SOL    HW144007   6.909   2.840   3.073 -0.2078  0.2850 -1.0106
14391SOL    HW244008   7.031   2.893   2.999  0.4539  0.5676  0.2558
14392SOL     OW44009   6.247   7.512   4.925  0.1803 -0.0071 -0.4381
14392SOL    HW144010   6.338   7.539   4.942  0.9693 -3.4586  1.8831
14392SOL    HW244011   6.252   7.459   4.846 -0.2370  1.2390 -1.3446
14393SOL     OW44012   5.960   5.588   0.880  0.8970 -0.3348 -0.6433
14393SOL    HW144013   5.950   5.516   0.818 -1.8020  0.3367 -1.0951
14393SOL    HW244014   5.977   5.545   0.964  1.4251 -1.3881 -1.2663
14394SOL     OW44015   1.930   5.350   5.588 -0.1990 -0.2025  0.1045
14394SOL    HW144016   1.916   5.303   5.670  0.5494  1.0613  1.0011
14394SOL    HW244017   1.995   5.297   5.541  0.4471 -0.2125  0.9809
14395SOL     OW44018   3.518   6.639   5.510  0.1003  0.9161  0.5132
14395SOL    HW144019   3.554   6.600   5.589 -0.7913  0.3727  0.6665
14395SOL    HW244020   3.457   6.574   5.476  2.1879  0.0675 -1.9904
14396SOL     OW44021   2.436   7.731   7.175  0.0933  0.0166  0.0735
14396SOL    HW144022   2.474   7.818   7.161 -0.2638  0.1688  0.0512
14396SOL    HW244023   2.475   7.677   7.106  0.6829  0.0391  0.3738
14397SOL     OW44024   4.582   1.823   4.549  0.4865  0.0472  0.1475
14397SOL    HW144025   4.665   1.848   4.509  0.3314 -2.1391 -1.7446
14397SOL    HW244026   4.516   1.852   4.486  0.0373 -0.8611  0.1888
14398SOL     OW44027   3.507   3.349   7.340 -0.5748  0.5977 -0.0410
14398SOL    HW144028   3.438   3.312   7.285 -0.6828  1.3542 -0.4233
14398SOL    HW244029   3.549   3.272   7.379 -0.6006  0.0406 -1.0468
14399SOL     OW44030   0.766   0.713   0.804  0.4805 -0.0274 -0.0085
14399SOL    HW144031   0.754   0.624   0.773 -0.4242  0.3403 -0.7393
14399SOL    HW244032   0.846   0.743   0.761 -0.1983  0.1211 -1.1862
14400SOL     OW44033   1.254   5.739   4.423 -0.2679 -0.4830 -0.8412
14400SOL    HW144034   1.164   5.763   4.399 -0.1719 -0.2474 -0.9732
14400SOL    HW244035   1.288   5.817   4.466 -0.4736 -0.9346  0.1734
14401SOL     OW44036   4.921   3.356   1.722  0.1659  0.5050 -0.0401
14401SOL    HW144037   4.867   3.350   1.643 -0.6342 -0.5317  0.5558
14401SOL    HW244038   4.916   3.269   1.761  1.4412  0.6837  0.5940
14402SOL     OW44039   2.627   4.248   2.759  0.1073  0.6483 -0.0492
14402SOL    HW144040   2.645   4.180   2.694 -1.4206 -0.8070  0.9762
14402SOL    HW244041   2.659   4.213   2.841  0.3191  1.6675  0.3155
14403SOL     OW44042   4.769   7.335   0.288 -0.2944 -0.3473  0.6465
14403SOL    HW144043   4.730   7.416   0.321 -1.3714 -0.4606 -0.2740
14403SOL    HW244044   4.790   7.285   0.367  1.9728  1.4751  1.3231
14404SOL     OW44045   4.093   5.973   4.742  0.1372 -0.0566  0.1086
14404SOL    HW144046   4.169   5.924   4.774  0.5809  0.2514 -0.4458
14404SOL    HW244047   4.086   5.947   4.650 -0.6841 -0.3942  0.2619
14405SOL     OW44048   1.888   7.526   5.925  0.5138 -0.2438  0.5996
14405SOL    HW144049   1.910   7.550   6.015 -0.4135  0.8557  0.5642
14405SOL    HW244050   1.967   7.486   5.890  1.1215 -0.0060  1.6728
14406SOL     OW44051   3.035   1.706   7.391  0.6643 -0.2458 -0.1827
14406SOL    HW144052   3.035   1.721   7.297  2.0583 -0.7516 -0.2794
14406SOL    HW244053   2.953   1.657   7.407  0.1258  0.3571 -1.0217
14407SOL     OW44054   6.523   3.091   3.617 -0.0538  0.1456  0.0555
14407SOL    HW144055   6.528   2.999   3.592 -1.4624 -0.0588  0.4321
14407SOL    HW244056   6.504   3.090   3.710  0.4877  0.8374  0.1845
14408SOL     OW44057   6.184   5.376   3.463 -0.2702  0.4827  0.9025
14408SOL    HW144058   6.167   5.451   3.406 -0.0955  0.5958  1.0002
14408SOL    HW244059   6.116   5.382   3.531 -1.2533 -0.3446  0.0293
14409SOL     OW44060   2.327   6.316   1.655 -0.4627  0.1011 -0.4369
14409SOL    HW144061   2.286   6.377   1.717  2.1276  1.1663  0.3677
14409SOL    HW244062   2.420   6.318   1.678  0.3516 -0.7812 -3.2869
14410SOL     OW44063   5.247   2.559   7.370  0.3183  0.3283  0.0475
14410SOL    HW144064   5.292   2.641   7.349  0.5443  0.0338 -0.6356
14410SOL    HW244065   5.225   2.521   7.285 -1.4322  0.5693  0.3431
14411SOL     OW44066   1.314   7.133   1.441  0.2313  0.0969  0.8898
14411SOL    HW144067   1.374   7.161   1.511  0.2894 -0.3402  1.0236
14411SOL    HW244068   1.352   7.051   1.410 -0.3637 -0.2500  1.0594
14412SOL     OW44069   7.943   5.250   4.361  0.2752  0.2900 -0.6772
14412SOL    HW144070   7.868   5.227   4.307  0.6823  1.1851 -1.6590
14412SOL    HW244071   7.908   5.308   4.428 -0.2296 -0.8145  0.0359
14413SOL     OW44072   4.650   3.088   1.722  0.0309 -0.5192  0.4026
14413SOL    HW144073   4.724   3.089   1.783 -0.5436 -0.2294  1.1223
14413SOL    HW244074   4.603   3.006   1.742 -1.5972  0.7493  2.1922
14414SOL     OW44075   4.986   1.310   0.076 -0.3462  0.0495  0.1256
14414SOL    HW144076   5.079   1.321   0.095 -0.4318 -0.2021  0.7085
14414SOL    HW244077   4.981   1.312  -0.020  0.3834 -0.9090  0.0542
14415SOL     OW44078   4.832   1.928   4.493 -0.3503 -0.5603 -0.0999
14415SOL    HW144079   4.877   1.943   4.576 -2.3812  0.2220  0.9299
14415SOL    HW244080   4.894   1.877   4.441  0.9964 -1.0521  1.8693
14416SOL     OW44081   5.028   6.665   2.748 -0.1840  0.5367  0.1408
14416SOL    HW144082   5.086   6.739   2.767 -0.1725  0.3468  0.8624
14416SOL    HW244083   5.010   6.673   2.654  3.0310 -0.8351 -0.7059
14417SOL     OW44084   2.041   6.392   2.174  0.8315  0.5976  0.4193
14417SOL    HW144085   2.022   6.300   2.191  0.3365  0.8024  0.9990
14417SOL    HW244086   2.036   6.434   2.259  0.1865  1.3144  0.0442
14418SOL     OW44087   4.313   2.144   6.015  0.4862  0.3538  0.7337
14418SOL    HW144088   4.373   2.116   5.946 -0.5807 -0.0307 -0.0847
14418SOL    HW244089   4.308   2.239   6.005  0.7326  0.3549  0.6156
14419SOL     OW44090   2.092   0.435   3.288  0.0647 -0.2437  0.7657
14419SOL    HW144091   2.033   0.409   3.218 -0.2326 -0.5602  1.1241
14419SOL    HW244092   2.058   0.390   3.366  1.2422 -1.1017  0.8266
14420SOL     OW44093   7.471   3.223   2.117  0.3745 -0.1792  0.1099
14420SOL    HW144094   7.511   3.306   2.142  0.2076 -0.4354  1.2678
14420SOL    HW244095   7.457   3.177   2.199 -1.8129 -0.3286 -0.2881
14421SOL     OW44096   0.748   3.427   1.287 -0.2492  0.1228  0.6520
14421SOL    HW144097   0.743   3.518   1.256 -0.4257 -0.0149  0.2750
14421SOL    HW244098   0.676   3.383   1.243 -0.7509  0.0089  1.5554
14422SOL     OW44099   0.365   3.309   7.523 -0.1699  0.0168  0.3933
14422SOL    HW144100   0.358   3.395   7.563  1.9547  1.0577 -1.2886
14422SOL    HW244101   0.277   3.289   7.493 -0.6357  1.7355  0.5454
14423SOL     OW44102   1.378   3.271   7.559  0.0823 -0.9738  0.1172
14423SOL    HW144103   1.435   3.218   7.614  0.6296 -2.6733 -1.9337
14423SOL    HW244104   1.293   3.225   7.561 -0.4309 -0.0080  0.9805
14424SOL     OW44105   1.111   5.422   3.118 -0.2935  0.2406 -0.3767
14424SOL    HW144106   1.207   5.424   3.113 -0.3328  1.9286 -0.8482
14424SOL    HW244107   1.092   5.361   3.189  1.0762 -1.3008 -1.2634
14425SOL     OW44108   6.579   1.944   3.562  0.0089 -0.1598 -0.3168
14425SOL    HW144109   6.585   2.038   3.541 -0.2968  0.2359  1.2822
14425SOL    HW244110   6.655   1.906   3.518 -0.4439  0.6437 -1.8901
14426SOL     OW44111   3.599   0.041   0.002 -0.6914  0.2690 -0.1764
14426SOL    HW144112   3.569   0.087  -0.077 -0.9208 -1.0479 -0.8878
14426SOL    HW244113   3.572  -0.050  -0.012  0.1470 -0.1763  0.9876
14427SOL     OW44114   7.683   2.554   7.449  0.6357 -0.2280  0.5557
14427SOL    HW144115   7.749   2.489   7.474 -0.1086 -2.1491 -1.9543
14427SOL    HW244116   7.639   2.514   7.373  0.3457  3.3838 -1.3653
14428SOL     OW44117   1.760   6.186   0.146 -0.0100 -0.2251  0.2657
14428SOL    HW144118   1.719   6.168   0.061 -0.3287 -0.1187  0.3947
14428SOL    HW244119   1.795   6.275   0.136  0.4934 -0.4482  0.0392
14429SOL     OW44120   1.793   1.158   5.655  0.4252  0.4463  0.6660
14429SOL    HW144121   1.787   1.144   5.750 -1.0680  0.1815  0.5491
14429SOL    HW244122   1.849   1.087   5.624  1.6678  1.0570  1.4512
14430SOL     OW44123   2.318   5.591   1.101  0.0305  0.0412  0.0392
14430SOL    HW144124   2.347   5.682   1.109 -1.1108  0.5297 -1.0137
14430SOL    HW244125   2.318   5.558   1.191  0.2804  1.1349  0.4625
14431SOL     OW44126   7.272   4.488   1.944 -0.3934  0.2293  0.5332
14431SOL    HW144127   7.258   4.414   1.884 -0.8848  0.7337  0.0196
14431SOL    HW244128   7.366   4.486   1.962 -0.6028 -1.3773  1.6435
14432SOL     OW44129   0.235   2.970   7.418  0.5064 -0.4115 -0.1360
14432SOL    HW144130   0.154   2.952   7.464  0.4987 -1.0066 -0.3718
14432SOL    HW244131   0.226   3.060   7.387  0.4717 -0.0442  0.9179
14433SOL     OW44132   3.977   5.913   6.051 -0.3230 -0.1994 -0.0301
14433SOL    HW144133   4.016   5.882   6.133  1.4467  0.7296 -0.4412
14433SOL    HW244134   3.995   6.008   6.051 -1.8670  0.1247 -0.6876
14434SOL     OW44135   2.731   3.842   5.277  0.6027  0.1485 -0.0674
14434SOL    HW144136   2.776   3.760   5.294 -0.0066  0.1934  2.1071
14434SOL    HW244137   2.681   3.827   5.197  0.3162 -1.7048  0.4184
14435SOL     OW44138   6.826   5.661   0.722 -0.2295  0.5751 -0.1578
14435SOL    HW144139   6.891   5.668   0.652 -1.5508 -0.6219 -1.5776
14435SOL    HW244140   6.863   5.711   0.795  1.3216  1.6352 -1.6117
14436SOL     OW44141   2.384   0.836   1.423  0.2525  0.0827  0.5080
14436SOL    HW144142   2.363   0.858   1.514  0.6651  2.4990  0.1047
14436SOL    HW244143   2.431   0.914   1.391  2.6834 -1.8240 -0.9382
14437SOL     OW44144   1.192   7.680   6.655  0.0365  0.6032 -0.2036
14437SOL    HW144145   1.100   7.694   6.634  0.3040  2.9602 -0.1394
14437SOL    HW244146   1.239   7.703   6.574  0.5881 -0.7241 -0.2866
14438SOL     OW44147   6.609   4.456   0.943  0.1403  0.3740 -0.0225
14438SOL    HW144148   6.527   4.504   0.957 -0.5452 -0.5084 -0.9215
14438SOL    HW244149   6.620   4.404   1.023 -0.8534 -0.4486 -0.3938
14439SOL     OW44150   6.572   4.540   6.952  0.7706  0.2545 -0.8106
14439SOL    HW144151   6.615   4.616   6.915  0.4206 -0.2879 -2.4194
14439SOL    HW244152   6.562   4.479   6.878 -1.6040 -0.1456 -0.2609
14440SOL     OW44153   6.824   2.850   0.672 -0.1036  0.4068  0.2947
14440SOL    HW144154   6.918   2.861   0.656 -0.1079  0.5086  0.3359
14440SOL    HW244155   6.819   2.794   0.749 -0.0890 -1.5947 -1.0869
14441SOL     OW44156   7.517   1.344   6.316  0.2260  0.0544  0.7598
14441SOL    HW144157   7.584   1.403   6.349 -0.6211 -0.5188  3.8491
14441SOL    HW244158   7.434   1.385   6.342 -0.4319 -1.5331  1.2907
14442SOL     OW44159   6.226   6.519   7.771  0.1615  0.4850  0.1958
14442SOL    HW144160   6.234   6.563   7.855  1.0290 -0.1839  0.4763
14442SOL    HW244161   6.314   6.524   7.733 -0.0789  0.2494 -0.4055
14443SOL     OW44162   5.713   5.761   2.903  0.0592  0.1837 -0.2342
14443SOL    HW144163   5.633   5.805   2.875 -0.1298  0.8677  1.2633
14443SOL    HW244164   5.780   5.830   2.904  0.5511 -0.2724 -0.9855
14444SOL     OW44165   0.485   4.162   4.108 -0.5487 -0.2888 -0.4214
14444SOL    HW144166   0.431   4.240   4.113  0.3433  0.3798 -0.8952
14444SOL    HW244167   0.455   4.116   4.030  0.4921  0.8297 -1.5309
14445SOL     OW44168   7.733   5.870   3.122 -0.2211 -0.4308 -0.0108
14445SOL    HW144169   7.710   5.948   3.070  1.1288  0.5602  0.8165
14445SOL    HW244170   7.653   5.818   3.123 -2.2830  2.4503  2.0794
14446SOL     OW44171   2.491   2.926   5.078 -0.7453 -0.1339 -0.3210
14446SOL    HW144172   2.449   3.009   5.101 -0.3523  0.0765 -0.3361
14446SOL    HW244173   2.465   2.910   4.987 -0.9377 -0.0972 -0.2716
14447SOL     OW44174   1.273   5.887   2.556 -0.2083  0.3264  0.2732
14447SOL    HW144175   1.257   5.801   2.517  0.1212  1.5460 -2.8329
14447SOL    HW244176   1.363   5.882   2.589 -0.3464 -0.6342  0.5263
14448SOL     OW44177   3.587   2.597   2.414  0.1806  0.1420  0.0231
14448SOL    HW144178   3.664   2.541   2.420  0.2711  0.1261 -1.2128
14448SOL    HW244179   3.561   2.610   2.505  0.6212 -1.2518  0.3665
14449SOL     OW44180   7.279   1.926   0.987  0.2466  0.1666  0.1520
14449SOL    HW144181   7.362   1.880   0.977  0.3284  0.1899  0.6759
14449SOL    HW244182   7.227   1.870   1.044 -0.3917 -0.2242 -0.7993
14450SOL     OW44183   2.324   2.387   1.574  0.3175  0.1152  0.3984
14450SOL    HW144184   2.247   2.349   1.532 -0.1467  1.2540  0.1815
14450SOL    HW244185   2.399   2.343   1.533 -0.2007 -1.1392  0.7498
14451SOL     OW44186   0.936   6.742   1.767 -0.8540  0.0605  0.2448
14451SOL    HW144187   1.007   6.804   1.749 -0.7796 -0.2618 -0.6007
14451SOL    HW244188   0.899   6.722   1.681 -0.0125 -2.0764  0.3070
14452SOL     OW44189   2.824   0.141   1.846 -0.0837 -0.1110  0.5241
14452SOL    HW144190   2.787   0.061   1.807 -0.4020  0.7012 -0.9398
14452SOL    HW244191   2.760   0.168   1.912 -0.3859 -0.6102  0.4408
14453SOL     OW44192   7.188   1.837   2.846 -0.2955 -0.1272 -0.6694
14453SOL    HW144193   7.266   1.782   2.840  0.8858  1.3551  0.2329
14453SOL    HW244194   7.163   1.854   2.755  1.2406  0.4274 -1.0246
14454SOL     OW44195   1.891   4.031   0.346 -0.1065 -0.0569  0.3452
14454SOL    HW144196   1.886   3.936   0.348 -1.2226 -0.1253 -2.3112
14454SOL    HW244197   1.983   4.051   0.365  0.6804 -1.8082 -1.3398
14455SOL     OW44198   4.684   0.926   2.853  0.8444 -0.1136 -0.2558
14455SOL    HW144199   4.725   1.001   2.895 -2.3344  1.5570  0.0949
14455SOL    HW244200   4.617   0.897   2.914 -0.9935 -0.3590 -2.2621
14456SOL     OW44201   1.219   6.438   3.649 -0.1446  0.5019  0.1268
14456SOL    HW144202   1.286   6.385   3.608  0.6404  0.1438  1.7751
14456SOL    HW244203   1.142   6.381   3.654  1.2645 -1.3778  3.7119
14457SOL     OW44204   0.213   6.828   4.456 -0.9272 -0.6172 -0.6317
14457SOL    HW144205   0.279   6.846   4.524  0.1061 -2.6172 -1.0378
14457SOL    HW244206   0.223   6.900   4.394 -0.8405  0.4304  0.5470
14458SOL     OW44207   5.322   3.557   2.670  0.2416  0.0267  0.2087
14458SOL    HW144208   5.336   3.598   2.755  0.5924 -0.1318  0.2309
14458SOL    HW244209   5.301   3.466   2.690  1.2037 -0.2341  0.1041
14459SOL     OW44210   1.682   2.883   0.981  0.5515 -0.3285  0.0531
14459SOL    HW144211   1.714   2.940   0.911  1.0706  1.3794  1.5702
14459SOL    HW244212   1.594   2.857   0.953  0.9803 -0.2229 -1.4938
14460SOL     OW44213   7.385   6.108   7.208  0.3909 -0.2447 -0.2636
14460SOL    HW144214   7.432   6.062   7.278 -0.5956 -0.7841  0.0578
14460SOL    HW244215   7.392   6.201   7.232  1.1261 -0.3223 -0.1305
14461SOL     OW44216   2.783   4.935   0.906  0.2603 -0.0785  0.3512
14461SOL    HW144217   2.788   4.840   0.901  0.8398 -0.0530  0.3639
14461SOL    HW244218   2.874   4.964   0.901  0.1871  0.4105  1.5378
14462SOL     OW44219   2.799   1.327   3.972 -0.5509 -0.2477 -0.8179
14462SOL    HW144220   2.878   1.375   3.948  0.4710 -0.5538  1.5840
14462SOL    HW244221   2.831   1.240   3.997 -1.5922 -0.3322  0.3188
14463SOL     OW44222   0.074   0.014   1.875  0.3750 -0.7108 -0.1125
14463SOL    HW144223  -0.016   0.012   1.906 -0.3071 -0.2663 -1.9716
14463SOL    HW244224   0.118  -0.056   1.924 -1.6066 -2.7109 -1.0282
14464SOL     OW44225   0.778   6.654   7.847 -0.8984 -0.2066  0.1922
14464SOL    HW144226   0.738   6.643   7.761  0.3294  1.1023 -0.6099
14464SOL    HW244227   0.786   6.749   7.858  0.6962 -0.3779  0.8856
14465SOL     OW44228   2.000   5.291   4.389  0.0758  0.3638  0.0976
14465SOL    HW144229   2.082   5.264   4.430 -0.4171 -0.3789  0.6289
14465SOL    HW244230   2.025   5.360   4.328  1.0466  0.3853  0.5005
14466SOL     OW44231   7.057   0.033   6.941  0.1985 -0.3735  0.2637
14466SOL    HW144232   7.017  -0.027   6.879 -0.4181 -0.2655  0.5458
14466SOL    HW244233   7.129   0.073   6.893  0.8962 -1.6572  0.2136
14467SOL     OW44234   0.980   0.716   6.143 -0.4649  0.1344  0.2742
14467SOL    HW144235   1.061   0.752   6.178  1.0010 -2.2179 -0.4585
14467SOL    HW244236   0.943   0.666   6.216 -1.5411  1.5065  0.7281
14468SOL     OW44237   7.451   3.108   4.600 -0.2890  0.0477  0.1238
14468SOL    HW144238   7.364   3.146   4.582 -0.7957 -1.0032  0.2573
14468SOL    HW244239   7.466   3.125   4.693 -0.0499  0.8227 -0.0554
14469SOL     OW44240   6.477   7.150   5.580  0.0823  0.0979 -0.6887
14469SOL    HW144241   6.491   7.182   5.490  0.6254  2.2865  0.1134
14469SOL    HW244242   6.395   7.191   5.608  1.3046  1.7535  0.7165
14470SOL     OW44243   4.855   0.516   0.233  0.0944 -0.2606 -0.2314
14470SOL    HW144244   4.843   0.610   0.218 -2.8628 -0.1584  1.8646
14470SOL    HW244245   4.946   0.499   0.209  0.6874  3.0821 -0.8173
14471SOL     OW44246   3.709   6.393   5.072 -0.2896  0.1064  0.2896
14471SOL    HW144247   3.770   6.326   5.102  0.0003  0.4330  0.4460
14471SOL    HW244248   3.719   6.395   4.977 -0.5402 -0.2976  0.2534
14472SOL     OW44249   5.271   1.421   7.173  0.1202  0.6437 -0.1459
14472SOL    HW144250   5.242   1.355   7.110 -0.4190  1.2525 -0.5530
14472SOL    HW244251   5.238   1.503   7.137 -0.9580  0.9109  1.3867
14473SOL     OW44252   7.317   0.075   7.693  0.3833  0.2548  0.4606
14473SOL    HW144253   7.372   0.152   7.707  0.9271  0.0725 -0.6315
14473SOL    HW244254   7.281   0.086   7.605  1.6466 -1.4435 -0.3225
14474SOL     OW44255   7.593   4.324   1.376 -0.1508  0.2919  0.3370
14474SOL    HW144256   7.630   4.346   1.461  1.2072 -0.5172 -0.0176
14474SOL    HW244257   7.532   4.395   1.357  2.0886  2.3714  0.4111
14475SOL     OW44258   5.805   3.218   5.890 -0.1102  0.4143  0.4970
14475SOL    HW144259   5.752   3.147   5.927 -1.0143  0.6936 -0.2153
14475SOL    HW244260   5.753   3.297   5.906  0.4296  0.7882  0.4122
14476SOL     OW44261   2.798   1.155   0.427  0.9248  0.2588 -0.1723
14476SOL    HW144262   2.771   1.169   0.336 -0.6035 -1.1937 -0.0045
14476SOL    HW244263   2.892   1.141   0.423  1.1840  2.0020 -1.2753
14477SOL     OW44264   2.497   4.446   4.296 -0.3357  0.1756  0.0865
14477SOL    HW144265   2.477   4.357   4.324  1.0657 -0.1318  0.1759
14477SOL    HW244266   2.431   4.465   4.229 -0.5266 -1.0097 -0.0879
14478SOL     OW44267   6.864   6.286   1.566  0.0373  0.0282  0.1185
14478SOL    HW144268   6.832   6.353   1.506 -0.2981  0.7021  1.0152
14478SOL    HW244269   6.851   6.204   1.520 -3.3748  0.1939  0.5127
14479SOL     OW44270   4.109   4.202   4.040 -0.3849 -0.0860 -0.1087
14479SOL    HW144271   4.124   4.281   3.988 -1.6540  2.0964  2.5686
14479SOL    HW244272   4.170   4.138   4.004  2.4124  2.7927 -0.9992
14480SOL     OW44273   5.974   0.901   1.247  0.4764 -0.0149 -0.2804
14480SOL    HW144274   5.915   0.826   1.239  1.9893 -1.1567 -1.5859
14480SOL    HW244275   5.917   0.975   1.266 -1.6117 -0.7338 -3.0415
14481SOL     OW44276   7.123   2.369   5.076  0.5516 -0.5619 -0.5629
14481SOL    HW144277   7.083   2.450   5.045  2.3490  0.0423 -1.4256
14481SOL    HW244278   7.156   2.391   5.163  0.5030 -0.5726 -0.5413
14482SOL     OW44279   6.885   2.485   7.160 -0.3282 -0.1724 -0.1607
14482SOL    HW144280   6.827   2.464   7.234  0.2130 -0.0099  0.3163
14482SOL    HW244281   6.832   2.468   7.083 -0.7630 -0.7606  0.2610
14483SOL     OW44282   2.845   4.414   2.702  0.1725  0.5824 -0.5879
14483SOL    HW144283   2.767   4.371   2.737  0.9453 -0.3924 -0.0226
14483SOL    HW244284   2.917   4.380   2.755  0.9126  1.9748 -0.6573
14484SOL     OW44285   5.257   2.994   3.404 -0.1928  0.6014 -0.0854
14484SOL    HW144286   5.189   2.972   3.341 -1.9844  0.9342  1.6529
14484SOL    HW244287   5.225   3.073   3.447  1.0529  0.4654  1.1394
14485SOL     OW44288   6.503   0.238   7.083 -0.1238 -0.0386  0.0810
14485SOL    HW144289   6.532   0.171   7.020 -2.4691 -0.2006 -0.9449
14485SOL    HW244290   6.512   0.320   7.035  0.2394  0.1027  0.3856
14486SOL     OW44291   1.593   6.565   5.375 -0.3263 -0.3222  0.2491
14486SOL    HW144292   1.602   6.482   5.327  0.5772 -0.3617  0.4604
14486SOL    HW244293   1.681   6.581   5.410 -0.9819 -0.3685  2.0240
14487SOL     OW44294   5.267   0.908   4.438 -0.3157 -0.4872  0.0557
14487SOL    HW144295   5.238   0.817   4.445 -0.1500 -0.5307  0.2058
14487SOL    HW244296   5.233   0.938   4.354 -1.2438 -0.3665  0.4644
14488SOL     OW44297   3.782   1.187   6.132  0.1630  0.2368 -0.3547
14488SOL    HW144298   3.838   1.251   6.087  0.6365  0.0645 -0.0131
14488SOL    HW244299   3.819   1.179   6.219 -1.8792  2.0223  0.7698
14489SOL     OW44300   5.792   0.343   0.809  0.1730  0.1968 -0.7659
14489SOL    HW144301   5.802   0.294   0.727 -1.2001 -1.1652 -0.1603
14489SOL    HW244302   5.855   0.303   0.869 -1.9380 -1.9601  0.1773
14490SOL     OW44303   2.995   2.459   4.865  0.4333 -0.0539 -0.0434
14490SOL    HW144304   3.069   2.491   4.814 -1.1951  1.5919 -1.5188
14490SOL    HW244305   2.932   2.531   4.863 -0.6701 -0.8705  2.3363
14491SOL     OW44306   4.715   0.600   7.235 -0.1846  0.5118  0.0565
14491SOL    HW144307   4.672   0.535   7.291 -0.3205 -0.2800 -0.9422
14491SOL    HW244308   4.646   0.630   7.176  0.3150  0.1400 -0.7405
14492SOL     OW44309   5.948   4.511   3.606  0.3121 -0.2270  0.4029
14492SOL    HW144310   5.975   4.428   3.645  1.0276 -0.5572 -0.7454
14492SOL    HW244311   5.963   4.500   3.512 -0.6851  0.7931  0.0980
14493SOL     OW44312   1.780   6.374   6.827 -0.6724 -0.3529  0.4897
14493SOL    HW144313   1.863   6.337   6.797 -0.5852  0.5328 -0.3885
14493SOL    HW244314   1.802   6.424   6.905 -0.6130 -1.2224  1.0434
14494SOL     OW44315   7.645   6.263   7.166 -0.8423 -0.5825  0.0096
14494SOL    HW144316   7.735   6.280   7.194 -0.1537 -1.8720 -1.2846
14494SOL    HW244317   7.635   6.168   7.173 -0.9864 -0.8650 -2.9369
14495SOL     OW44318   6.253   2.026   5.539  0.6367  0.3557 -0.2646
14495SOL    HW144319   6.271   2.118   5.520 -4.0794  2.4387  3.4327
14495SOL    HW244320   6.303   2.008   5.619  1.1081 -0.1656 -0.6697
14496SOL     OW44321   1.920   0.385   3.490  0.2293 -0.1453  0.6177
14496SOL    HW144322   1.836   0.342   3.506  0.7710 -1.0488  1.1339
14496SOL    HW244323   1.897   0.472   3.458 -0.9037 -0.7850 -0.3803
14497SOL     OW44324   5.812   3.062   6.587  0.3822 -0.2503 -0.0763
14497SOL    HW144325   5.791   3.125   6.517 -0.6190 -1.8404 -1.2736
14497SOL    HW244326   5.898   3.029   6.564  0.0211 -0.8301 -0.6524
14498SOL     OW44327   0.455   2.523   5.032 -0.1722  0.6369 -0.2593
14498SOL    HW144328   0.489   2.542   4.945 -0.4245  1.5847 -0.1582
14498SOL    HW244329   0.509   2.450   5.064  4.1792  4.0868  1.2738
14499SOL     OW44330   1.747   1.855   3.760  0.3643  0.0753 -0.5217
14499SOL    HW144331   1.774   1.830   3.672  0.9067  0.4548 -0.4659
14499SOL    HW244332   1.762   1.949   3.765  2.0119 -0.2068  0.5472
14500SOL     OW44333   1.744   4.506   4.421  0.7576 -0.3461  0.5237
14500SOL    HW144334   1.758   4.578   4.482 -0.4240  0.0459  0.3587
14500SOL    HW244335   1.805   4.438   4.450  2.2295  0.8673  0.3973
14501SOL     OW44336   4.859   3.673   6.126 -0.4101  0.1411  0.5966
14501SOL    HW144337   4.810   3.599   6.161 -2.2748  0.2244 -1.5744
14501SOL    HW244338   4.796   3.745   6.126  0.6062  1.0575  0.3384
14502SOL     OW44339   1.182   1.887   4.360  0.6707 -0.7369 -0.5966
14502SOL    HW144340   1.174   1.887   4.455 -0.9556  0.4227 -0.6879
14502SOL    HW244341   1.228   1.806   4.340 -0.5779 -1.9254  1.0698
14503SOL     OW44342   4.876   4.036   0.894  0.2792  0.4304  0.7130
14503SOL    HW144343   4.928   4.116   0.883  1.5186 -0.5404 -1.2897
14503SOL    HW244344   4.934   3.976   0.941  1.0367 -0.6159 -1.4167
14504SOL     OW44345   0.344   7.228   7.722 -0.7893 -0.6573 -0.7332
14504SOL    HW144346   0.394   7.305   7.697 -0.8006 -0.6013 -0.5861
14504SOL    HW244347   0.252   7.254   7.715 -0.8270  0.1583  1.6873
14505SOL     OW44348   3.074   1.425   0.298  0.2793 -0.0788  0.1373
14505SOL    HW144349   3.080   1.343   0.249 -0.7988 -0.1074  0.0218
14505SOL    HW244350   3.056   1.492   0.232 -0.7214 -0.0483  0.4189
14506SOL     OW44351   7.856   0.153   1.184 -0.0796  0.3736 -0.0023
14506SOL    HW144352   7.835   0.065   1.152  0.7478 -0.0067  0.4792
14506SOL    HW244353   7.776   0.203   1.169 -1.3488 -0.9975  1.6588
14507SOL     OW44354   3.556   5.317   3.244 -0.0972 -0.4166 -0.2267
14507SOL    HW144355   3.511   5.270   3.314 -0.7409  3.5863  2.4018
14507SOL    HW244356   3.485   5.357   3.193  0.2514  2.3156  1.2433
14508SOL     OW44357   0.736   2.507   6.603 -0.5815 -0.4105 -0.2714
14508SOL    HW144358   0.709   2.598   6.590  1.6604  0.1635 -1.3637
14508SOL    HW244359   0.760   2.503   6.696  1.1603  0.7076 -0.6228
14509SOL     OW44360   5.539   7.908   5.476 -0.0584  0.3335  0.0483
14509SOL    HW144361   5.494   7.897   5.392 -0.4663  0.3333  0.2600
14509SOL    HW244362   5.625   7.942   5.454  0.5868 -1.5192 -0.5211
14510SOL     OW44363   0.858   7.490   2.039  0.0794 -0.3193  1.0863
14510SOL    HW144364   0.918   7.559   2.010 -1.1398  1.3185  2.2739
14510SOL    HW244365   0.914   7.428   2.086  0.9317  0.9938  1.8693
14511SOL     OW44366   5.936   5.797   7.712  0.1979 -0.0040 -0.3154
14511SOL    HW144367   5.957   5.871   7.656  1.8633  1.7458  2.4467
14511SOL    HW244368   5.910   5.836   7.796  0.3908 -2.5150  1.0100
14512SOL     OW44369   6.036   5.444   0.214  0.2434  0.2440 -0.3178
14512SOL    HW144370   6.045   5.372   0.277  1.9020 -0.3823 -1.1950
14512SOL    HW244371   6.036   5.401   0.128 -1.3607  1.1267 -0.8002
14513SOL     OW44372   1.283   2.736   4.526 -0.2873  0.0046  0.1851
14513SOL    HW144373   1.213   2.782   4.480 -0.5091 -1.6485 -1.2276
14513SOL    HW244374   1.333   2.692   4.457  0.8369 -0.6145  1.3439
14514SOL     OW44375   4.652   1.161   5.636  0.5686  0.5371  0.5053
14514SOL    HW144376   4.692   1.197   5.557 -0.2534 -0.6757 -0.4949
14514SOL    HW244377   4.725   1.130   5.688  1.1592  1.8208  0.4867
14515SOL     OW44378   5.409   0.162   3.710 -0.4788 -0.0710 -0.1703
14515SOL    HW144379   5.421   0.245   3.664 -0.1795  1.4663  2.4838
14515SOL    HW244380   5.494   0.119   3.705  0.0439  0.8650  0.3268
14516SOL     OW44381   7.874   1.771   4.217  0.7455  0.2263  0.6992
14516SOL    HW144382   7.914   1.685   4.202  1.3704  0.4540  1.0493
14516SOL    HW244383   7.786   1.751   4.249 -0.8658 -0.3400 -3.3836
14517SOL     OW44384   7.928   2.060   0.892 -0.7335  0.0667  0.2291
14517SOL    HW144385   7.912   2.019   0.976  0.6799 -0.6804  0.1514
14517SOL    HW244386   8.004   2.015   0.856  0.2887  2.0628 -0.3054
14518SOL     OW44387   3.059   4.595   5.898 -0.0712 -0.3174 -0.1793
14518SOL    HW144388   3.143   4.602   5.944  0.7860 -2.7978 -1.1866
14518SOL    HW244389   3.081   4.607   5.806 -1.0634  0.3040 -0.3528
14519SOL     OW44390   6.543   6.977   0.952  0.0713 -0.3389  0.0755
14519SOL    HW144391   6.471   6.986   0.889  0.4303 -0.6781 -0.3920
14519SOL    HW244392   6.504   6.928   1.024  0.3009 -2.2675 -1.0221
14520SOL     OW44393   2.512   5.547   1.874 -0.0703 -0.1810  0.1544
14520SOL    HW144394   2.524   5.636   1.905 -1.3874 -0.1656  0.7047
14520SOL    HW244395   2.510   5.493   1.954  1.3050 -0.7949 -0.2011
14521SOL     OW44396   3.229   6.475   5.113 -0.3356  0.0227 -0.1585
14521SOL    HW144397   3.170   6.443   5.182  1.0868  2.0855  2.1432
14521SOL    HW244398   3.268   6.395   5.077 -0.8081 -1.1296  1.7315
14522SOL     OW44399   5.065   2.149   1.220 -0.1578 -0.0307  0.1569
14522SOL    HW144400   5.051   2.062   1.184 -2.1373 -0.0084  0.7626
14522SOL    HW244401   5.007   2.153   1.296  0.3737  1.5946  0.5208
14523SOL     OW44402   4.917   3.940   5.849  0.3707 -0.2984  0.7055
14523SOL    HW144403   4.960   3.863   5.887  0.6719  0.1694  1.3280
14523SOL    HW244404   4.980   3.975   5.787  0.4466 -0.2486  0.8108
14524SOL     OW44405   0.492   4.306   2.440 -0.0106  0.4028 -0.1566
14524SOL    HW144406   0.437   4.325   2.364 -0.2826  3.2443  0.6337
14524SOL    HW244407   0.469   4.373   2.504  3.0061  0.5365  0.9516
14525SOL     OW44408   0.668   5.699   7.921  0.2207 -0.3467  0.7316
14525SOL    HW144409   0.760   5.720   7.939  0.6481 -2.1479  0.8903
14525SOL    HW244410   0.659   5.711   7.826  0.6791 -0.3252  0.6859
14526SOL     OW44411   2.556   5.650   5.275  0.2848  0.3193 -0.2696
14526SOL    HW144412   2.614   5.709   5.227  0.7349  1.3918  1.4871
14526SOL    HW244413   2.584   5.660   5.366  0.3026 -2.5700  0.1057
14527SOL     OW44414   6.071   1.414   1.510 -0.4842  0.7164  0.7142
14527SOL    HW144415   6.157   1.452   1.527 -0.3676  0.4651  0.6959
14527SOL    HW244416   6.010   1.470   1.558 -0.2900  0.7739  0.8980
14528SOL     OW44417   0.094   4.564   4.719  0.0528 -0.1506  0.3438
14528SOL    HW144418   0.096   4.655   4.690  1.9137  0.3263  1.7488
14528SOL    HW244419   0.061   4.569   4.809 -3.1209 -1.3015 -0.6233
14529SOL     OW44420   2.504   3.714   6.074  0.1658  0.1379  0.5063
14529SOL    HW144421   2.590   3.684   6.048  0.0065 -0.9004  1.1323
14529SOL    HW244422   2.443   3.647   6.042 -0.5631  1.4218 -0.9631
14530SOL     OW44423   1.056   6.647   5.595  0.7064 -0.2355  0.0155
14530SOL    HW144424   1.122   6.583   5.570 -0.0013 -0.6879 -0.7859
14530SOL    HW244425   1.039   6.631   5.688 -0.8127 -2.5420 -0.5618
14531SOL     OW44426   7.542   3.712   2.615  0.3504  0.1057 -0.3262
14531SOL    HW144427   7.514   3.686   2.703  1.2745  0.1131 -0.0153
14531SOL    HW244428   7.628   3.672   2.605  0.3605  0.3152 -1.1346
14532SOL     OW44429   7.471   6.155   6.866  0.0229 -0.1068 -0.2636
14532SOL    HW144430   7.447   6.102   6.790 -3.3687 -0.5820  0.9448
14532SOL    HW244431   7.539   6.214   6.835  0.0661 -1.5102 -3.1222
14533SOL     OW44432   4.798   3.625   0.567  0.4076 -0.4873  0.4317
14533SOL    HW144433   4.705   3.643   0.577  0.4146  0.0315 -0.3387
14533SOL    HW244434   4.803   3.535   0.537  0.0721 -0.1206 -0.7770
14534SOL     OW44435   1.378   4.304   6.211  0.1926  0.4031  0.1842
14534SOL    HW144436   1.392   4.307   6.116 -1.2360 -0.5933 -0.0847
14534SOL    HW244437   1.386   4.395   6.239 -0.2655  0.8423 -1.0306
14535SOL     OW44438   6.876   2.950   5.906 -0.2081  0.1353  0.1194
14535SOL    HW144439   6.863   2.872   5.853  0.0991 -0.2500  0.6057
14535SOL    HW244440   6.839   2.927   5.991  2.1469 -0.4277  1.0713
14536SOL     OW44441   2.762   5.654   4.433 -0.0020 -0.2396  0.0685
14536SOL    HW144442   2.706   5.596   4.484 -1.6412  0.3766 -0.9404
14536SOL    HW244443   2.730   5.742   4.452  0.5271  0.1252 -0.6516
14537SOL     OW44444   2.194   4.566   6.210 -0.2959 -0.5887  0.2868
14537SOL    HW144445   2.172   4.659   6.205 -0.9204 -0.7866 -1.6084
14537SOL    HW244446   2.118   4.525   6.253 -0.0260 -0.2430  1.1092
14538SOL     OW44447   2.577   3.112   3.760 -0.2261 -0.2816  0.4617
14538SOL    HW144448   2.528   3.048   3.812 -1.2731  0.4994  0.4696
14538SOL    HW244449   2.555   3.197   3.798  1.1043  0.1077  0.4174
14539SOL     OW44450   3.595   6.825   3.481  0.1840  0.0496  0.6860
14539SOL    HW144451   3.541   6.794   3.408  1.9539 -1.9602  0.1210
14539SOL    HW244452   3.538   6.818   3.557 -1.5081  1.5922 -0.3747
14540SOL     OW44453   3.271   5.517   2.268 -0.0134 -0.4974  0.0356
14540SOL    HW144454   3.308   5.432   2.244 -1.4026 -1.0654 -0.2272
14540SOL    HW244455   3.332   5.581   2.232  0.2421 -1.3764 -1.1535
14541SOL     OW44456   6.439   1.375   3.883 -0.2501  0.4365 -0.3615
14541SOL    HW144457   6.442   1.405   3.974 -0.8384  1.2777 -0.6088
14541SOL    HW244458   6.378   1.435   3.840 -0.7841 -0.5853 -1.0793
14542SOL     OW44459   2.349   6.511   5.521 -0.2164  0.5394 -0.2005
14542SOL    HW144460   2.301   6.521   5.603  0.2830  1.2754  0.0064
14542SOL    HW244461   2.420   6.450   5.541 -2.1645 -2.1769 -0.9969
14543SOL     OW44462   3.390   3.356   5.472 -0.0808 -0.3220 -0.3590
14543SOL    HW144463   3.430   3.343   5.557  2.7571 -1.3085 -1.7260
14543SOL    HW244464   3.391   3.450   5.458  1.3486 -0.2805 -0.1031
14544SOL     OW44465   3.826   2.045   5.863  0.0629  1.0242 -0.1302
14544SOL    HW144466   3.796   2.115   5.921 -0.5503  0.4127  0.3103
14544SOL    HW244467   3.752   2.028   5.805  0.8293  1.9416 -1.4297
14545SOL     OW44468   2.432   2.236   4.479 -0.0302  0.0139 -0.2775
14545SOL    HW144469   2.428   2.331   4.467 -0.9598 -0.1773 -1.6911
14545SOL    HW244470   2.341   2.207   4.472  0.3598 -1.1009 -0.9624
14546SOL     OW44471   7.764   7.793   5.190 -0.1221 -0.2227 -0.4152
14546SOL    HW144472   7.790   7.811   5.280 -3.1626  1.6941  0.2210
14546SOL    HW244473   7.794   7.869   5.140  0.7392 -0.8469 -0.8722
14547SOL     OW44474   1.243   2.348   2.451  0.0607 -0.6691 -0.3878
14547SOL    HW144475   1.175   2.304   2.399  0.4573 -1.3932 -0.3155
14547SOL    HW244476   1.230   2.315   2.540  0.8898 -1.3106 -0.4864
14548SOL     OW44477   6.969   0.857   2.431  0.1734 -0.0274 -0.5652
14548SOL    HW144478   6.993   0.789   2.368  0.4438  0.9934 -1.6062
14548SOL    HW244479   6.901   0.817   2.484  0.0504 -0.9816 -1.4015
14549SOL     OW44480   7.758   2.858   3.822  0.2975  0.0125 -0.7608
14549SOL    HW144481   7.811   2.935   3.843 -0.0266 -0.0740  0.5116
14549SOL    HW244482   7.678   2.869   3.875  0.9067 -1.9255  0.6970
14550SOL     OW44483   1.466   2.223   7.060 -0.5338 -0.5319  0.6775
14550SOL    HW144484   1.423   2.309   7.055 -0.4187 -0.5138 -0.0685
14550SOL    HW244485   1.403   2.162   7.024 -0.0995 -0.5629 -0.0509
14551SOL     OW44486   1.177   6.382   4.766 -0.2022 -0.3737 -0.2775
14551SOL    HW144487   1.221   6.394   4.682 -0.8192  0.6529 -0.4664
14551SOL    HW244488   1.246   6.350   4.824  0.4318 -0.2647 -0.9543
14552SOL     OW44489   3.677   2.887   6.260  0.0538  0.3069 -0.1103
14552SOL    HW144490   3.661   2.976   6.293  0.2929 -0.1223  1.2503
14552SOL    HW244491   3.599   2.838   6.285  1.3399 -0.6691  2.3253
14553SOL     OW44492   5.081   3.104   5.307  0.0506 -0.5183 -0.3440
14553SOL    HW144493   4.997   3.071   5.338  0.4689 -0.5716  0.7683
14553SOL    HW244494   5.146   3.048   5.348  0.8344  1.9222  2.0715
14554SOL     OW44495   0.853   0.970   3.920  0.3061  0.1903  0.0613
14554SOL    HW144496   0.926   0.916   3.950 -1.1883 -0.7085  2.3917
14554SOL    HW244497   0.866   1.055   3.963  0.2159  0.1751  0.1188
14555SOL     OW44498   1.164   1.266   1.714 -0.1614  0.0206 -0.1242
14555SOL    HW144499   1.150   1.332   1.782  2.7699  3.3329 -2.3995
14555SOL    HW244500   1.244   1.221   1.740 -1.1566 -1.5004  0.4718
14556SOL     OW44501   5.058   0.138   0.651 -0.1021  0.7739  0.3585
14556SOL    HW144502   4.973   0.182   0.651 -0.1791  0.7308  2.5754
14556SOL    HW244503   5.084   0.136   0.559 -1.6136  2.4683 -0.1592
14557SOL     OW44504   4.187   5.813   2.177  0.1228  0.5963 -0.2075
14557SOL    HW144505   4.118   5.820   2.111 -1.4803  1.2675  1.4419
14557SOL    HW244506   4.205   5.904   2.203  2.1005  0.4894 -1.0173
14558SOL     OW44507   5.383   7.806   4.888 -0.8599  0.5574 -0.4305
14558SOL    HW144508   5.425   7.786   4.805  3.0816  2.6858  0.7656
14558SOL    HW244509   5.320   7.876   4.867 -2.6293 -1.4048 -2.0304
14559SOL     OW44510   3.369   3.844   6.911  0.2117 -0.2551  0.2096
14559SOL    HW144511   3.353   3.762   6.958  1.1228 -1.0672 -0.8669
14559SOL    HW244512   3.333   3.829   6.824  2.1717 -0.2805 -0.6478
14560SOL     OW44513   2.693   5.220   3.092 -0.0432 -0.1766 -0.4259
14560SOL    HW144514   2.711   5.246   3.183 -1.9805  0.6928 -0.2572
14560SOL    HW244515   2.772   5.244   3.044  0.5841  0.3530  0.8362
14561SOL     OW44516   0.745   3.992   4.479  0.2205  0.3586  0.2120
14561SOL    HW144517   0.801   3.915   4.485 -0.8329 -0.4792 -0.2886
14561SOL    HW244518   0.661   3.963   4.515  0.2045  1.7055  1.3225
14562SOL     OW44519   7.709   2.032   4.859  0.1141 -0.1380  0.0435
14562SOL    HW144520   7.727   2.053   4.951  2.1347 -0.9655 -0.1113
14562SOL    HW244521   7.714   2.117   4.814 -0.5745  0.2268  0.6210
14563SOL     OW44522   3.989   1.468   0.808  0.3019 -0.3532  0.4787
14563SOL    HW144523   4.060   1.506   0.860 -1.9196  1.6568  2.3129
14563SOL    HW244524   4.019   1.474   0.718  4.0170 -3.2244  1.2870
14564SOL     OW44525   4.000   6.226   1.209  0.3764 -0.0547 -0.3949
14564SOL    HW144526   4.068   6.292   1.193  0.5705 -0.0299  0.4889
14564SOL    HW244527   3.958   6.215   1.124  1.2521  0.1923 -0.8784
14565SOL     OW44528   6.901   0.195   5.912  0.7640 -0.0150  0.0031
14565SOL    HW144529   6.939   0.128   5.968 -1.4409 -1.4856 -0.1569
14565SOL    HW244530   6.807   0.189   5.926  0.4114  2.4048 -0.7799
14566SOL     OW44531   3.762   4.052   2.253  0.4658  0.0200 -0.3173
14566SOL    HW144532   3.690   4.048   2.190  0.1939 -1.7383  0.0690
14566SOL    HW244533   3.721   4.079   2.335  0.3208 -0.4753 -0.2227
14567SOL     OW44534   6.181   6.549   0.882 -0.7765  0.1910  0.1833
14567SOL    HW144535   6.182   6.643   0.899  1.4571  0.5754 -1.6447
14567SOL    HW244536   6.231   6.511   0.955 -2.4918  0.2552  1.4424
14568SOL     OW44537   5.989   6.716   6.249 -0.2327 -0.3754 -0.0485
14568SOL    HW144538   5.991   6.795   6.304 -0.3094  1.1594 -2.1169
14568SOL    HW244539   6.046   6.654   6.294 -0.0053  0.9193  1.5559
14569SOL     OW44540   6.024   1.586   4.859  0.3654  0.4813 -0.4562
14569SOL    HW144541   5.956   1.643   4.896 -0.2092 -0.2365 -0.3880
14569SOL    HW244542   6.084   1.647   4.816 -1.7537  1.0638 -2.9232
14570SOL     OW44543   7.137   2.716   4.766  0.3487 -0.3959 -0.5379
14570SOL    HW144544   7.115   2.807   4.781  1.5447 -0.2326  0.4062
14570SOL    HW244545   7.153   2.710   4.671  0.8336  0.5172 -0.5206
14571SOL     OW44546   1.179   1.863   6.701  0.1235 -0.1585  0.1134
14571SOL    HW144547   1.100   1.865   6.647 -0.4645  1.8493  0.9157
14571SOL    HW244548   1.241   1.918   6.653 -0.8845  2.8713  1.9714
14572SOL     OW44549   0.758   0.734   3.639 -0.2451 -0.2309 -0.4717
14572SOL    HW144550   0.818   0.660   3.644  0.3843  0.3321  0.7437
14572SOL    HW244551   0.799   0.795   3.577 -0.9198 -1.0078 -1.7172
14573SOL     OW44552   3.109   6.129   6.853  0.1534  0.4995 -0.0528
14573SOL    HW144553   3.176   6.159   6.915  0.8407  0.0419 -0.5595
14573SOL    HW244554   3.138   6.041   6.829 -1.0877 -0.0424  0.3633
14574SOL     OW44555   6.285   5.921   6.168 -0.2908  0.1159 -0.2782
14574SOL    HW144556   6.248   5.981   6.104 -1.4011 -2.0224 -1.7801
14574SOL    HW244557   6.341   5.863   6.117  0.2071 -0.5505  0.9805
14575SOL     OW44558   6.140   7.354   1.317 -0.6172  0.3632  0.3128
14575SOL    HW144559   6.156   7.381   1.226 -0.1177 -2.3946 -0.5091
14575SOL    HW244560   6.209   7.396   1.367  1.3414 -0.8865 -1.1991
14576SOL     OW44561   5.866   6.448   7.266  0.1584  0.2827 -0.6314
14576SOL    HW144562   5.774   6.461   7.288 -0.5434 -4.0490 -0.0657
14576SOL    HW244563   5.902   6.404   7.343  2.1584  0.0686 -1.6354
14577SOL     OW44564   2.247   7.741   0.041 -0.4532 -0.5510  0.3179
14577SOL    HW144565   2.197   7.795  -0.021  0.4083  1.3988  1.2491
14577SOL    HW244566   2.273   7.664  -0.010 -1.6414 -0.0678 -1.0912
14578SOL     OW44567   3.299   5.857   0.759  0.1786 -0.1426 -0.4367
14578SOL    HW144568   3.304   5.897   0.672  0.7699  0.5084 -0.1178
14578SOL    HW244569   3.333   5.768   0.747 -0.6656 -0.3930 -1.0528
14579SOL     OW44570   1.087   0.345   7.548 -0.3040 -0.4711 -0.2479
14579SOL    HW144571   1.032   0.402   7.602  0.6553  1.4800 -1.2229
14579SOL    HW244572   1.074   0.376   7.459  1.5246 -0.6602 -0.6233
14580SOL     OW44573   3.652   7.637   0.538  0.6090 -0.2336 -0.0677
14580SOL    HW144574   3.570   7.629   0.489  0.3682 -1.0755  0.4594
14580SOL    HW244575   3.667   7.732   0.543 -0.3480 -0.0671 -0.1308
14581SOL     OW44576   3.572   2.985   4.578 -0.2212  0.1320  0.1012
14581SOL    HW144577   3.603   2.906   4.535 -1.6756 -0.9292  0.9173
14581SOL    HW244578   3.575   2.965   4.671 -0.1147  1.2402  0.3524
14582SOL     OW44579   6.218   0.339   6.841 -0.5178  0.1494 -0.0866
14582SOL    HW144580   6.311   0.361   6.849 -0.4139 -0.0164 -0.7670
14582SOL    HW244581   6.196   0.299   6.925  0.4904 -1.4298 -0.5270
14583SOL     OW44582   6.652   6.232   5.532 -0.1096  0.4048 -0.2959
14583SOL    HW144583   6.656   6.184   5.449 -0.0221 -0.4412  0.1853
14583SOL    HW244584   6.730   6.287   5.531 -0.1246  0.4253 -0.7835
14584SOL     OW44585   6.819   7.165   2.253  0.4242 -0.5376 -0.0296
14584SOL    HW144586   6.739   7.113   2.262 -0.5907  1.1356  1.1640
14584SOL    HW244587   6.890   7.103   2.269 -0.6655 -1.8747 -0.2153
14585SOL     OW44588   4.693   4.349   6.069 -0.3050  0.4688  0.1378
14585SOL    HW144589   4.742   4.295   6.007  1.7247 -0.9151  2.7379
14585SOL    HW244590   4.748   4.426   6.082 -1.0404  1.0702 -0.1928
14586SOL     OW44591   1.256   5.220   6.729  0.0511 -0.6197 -0.1018
14586SOL    HW144592   1.285   5.146   6.676 -1.9732 -1.4518 -0.1286
14586SOL    HW244593   1.216   5.280   6.666 -0.6047 -0.7022  0.2291
14587SOL     OW44594   6.616   7.639   1.357 -0.3841  0.1102  0.2762
14587SOL    HW144595   6.585   7.618   1.445 -0.0626  0.0793  0.3829
14587SOL    HW244596   6.565   7.582   1.300 -3.0393  2.4399  0.1183
14588SOL     OW44597   1.465   5.806   7.806 -0.1202 -0.1812 -0.2323
14588SOL    HW144598   1.505   5.737   7.753 -0.8165  0.3130 -1.4289
14588SOL    HW244599   1.424   5.864   7.743  0.6509  1.4857  0.7211
14589SOL     OW44600   7.284   3.117   0.552  0.1995  0.5730  0.0927
14589SOL    HW144601   7.210   3.083   0.502  0.1546  0.1488  0.4340
14589SOL    HW244602   7.257   3.204   0.579 -1.6684 -0.7801  3.1404
14590SOL     OW44603   2.325   4.513   3.029  0.5080 -0.1217 -0.5462
14590SOL    HW144604   2.393   4.510   3.097  0.6638  1.4553 -0.5878
14590SOL    HW244605   2.370   4.486   2.949  0.9619  0.3567 -0.4636
14591SOL     OW44606   1.784   5.117   4.357  0.0035 -0.2563 -0.1449
14591SOL    HW144607   1.717   5.160   4.410  1.2400 -1.9310  3.0125
14591SOL    HW244608   1.862   5.172   4.367  0.3649 -0.8108  0.1059
14592SOL     OW44609   2.039   1.695   0.491 -0.1772  0.2666 -0.4664
14592SOL    HW144610   2.058   1.627   0.426  1.4240  0.4676 -0.2427
14592SOL    HW244611   2.074   1.775   0.454 -1.6258  0.9171 -0.5083
14593SOL     OW44612   0.079   0.156   7.802 -0.6805 -0.2478  0.7512
14593SOL    HW144613   0.155   0.169   7.746  0.8383 -2.4932  2.1184
14593SOL    HW244614   0.008   0.205   7.760  0.5853 -1.0308 -2.5502
14594SOL     OW44615   3.817   7.869   4.736  0.4908  0.7214 -0.3362
14594SOL    HW144616   3.749   7.820   4.691 -0.3334  0.8962  0.6751
14594SOL    HW244617   3.898   7.841   4.695  0.0639 -1.5602  0.2359
14595SOL     OW44618   5.015   1.002   3.342 -0.1998 -0.5144  0.0818
14595SOL    HW144619   4.968   1.083   3.365  0.9928  0.9242 -2.2217
14595SOL    HW244620   4.951   0.950   3.294 -0.2304  0.2497 -0.7212
14596SOL     OW44621   6.293   1.309   2.598 -0.7371  0.3612 -0.1812
14596SOL    HW144622   6.301   1.214   2.600  1.4720  0.4946 -0.0130
14596SOL    HW244623   6.323   1.337   2.685 -1.4512  1.2035 -0.1949
14597SOL     OW44624   6.969   6.397   6.475  0.6298 -0.1754  0.3580
14597SOL    HW144625   6.945   6.332   6.540 -0.3609 -0.4338 -0.2428
14597SOL    HW244626   6.968   6.349   6.392 -0.7448  0.7319 -0.1735
14598SOL     OW44627   2.062   1.914   4.547 -0.2202 -0.1187  0.3850
14598SOL    HW144628   2.048   1.882   4.636  3.2324 -1.1529  0.6944
14598SOL    HW244629   2.110   1.996   4.559  1.8752 -1.1495 -0.4187
14599SOL     OW44630   3.681   4.478   7.881  0.4926  0.2114 -0.0559
14599SOL    HW144631   3.653   4.464   7.791 -1.3119 -1.7779  0.7273
14599SOL    HW244632   3.603   4.510   7.926  0.3362 -1.9701  1.4199
14600SOL     OW44633   3.902   2.382   4.095  0.1813  0.1574  0.6147
14600SOL    HW144634   3.940   2.389   4.183  0.7183 -0.9593  0.4950
14600SOL    HW244635   3.934   2.298   4.062 -1.7551 -0.4763  0.1968
14601SOL     OW44636   1.956   7.595   7.097  0.2302  0.2541 -0.1529
14601SOL    HW144637   1.898   7.653   7.148  0.6759 -0.0877  0.7736
14601SOL    HW244638   2.031   7.650   7.075  0.3908  0.1988  0.2375
14602SOL     OW44639   1.067   2.871   4.975 -0.0745  0.1495 -0.4783
14602SOL    HW144640   1.086   2.861   4.882  0.4232 -1.2547 -0.2579
14602SOL    HW244641   1.150   2.900   5.014 -0.1849  0.3915 -0.4201
14603SOL     OW44642   3.060   6.344   5.491  0.1658 -0.5566  0.1982
14603SOL    HW144643   3.104   6.261   5.471  0.7075  0.4123 -3.3348
14603SOL    HW244644   3.119   6.389   5.551  0.0818 -2.4732  1.7989
14604SOL     OW44645   5.757   1.002   3.702  0.2986 -0.4793  0.0617
14604SOL    HW144646   5.722   0.929   3.649 -0.3521 -0.8157  0.9348
14604SOL    HW244647   5.683   1.032   3.754  0.6916  0.4921  0.0858
14605SOL     OW44648   7.150   1.833   7.242 -0.1105  0.5603 -0.2294
14605SOL    HW144649   7.088   1.779   7.193 -1.7363  1.0358  1.2011
14605SOL    HW244650   7.167   1.908   7.185  0.3526 -0.2948 -1.2549
14606SOL     OW44651   1.136   1.080   2.074  0.6105  0.7689 -0.4759
14606SOL    HW144652   1.198   1.007   2.071  0.4386  0.5878  0.3248
14606SOL    HW244653   1.190   1.156   2.096  0.8126  0.9194 -1.4497
14607SOL     OW44654   7.238   6.481   6.524  0.7977  0.2973  0.1604
14607SOL    HW144655   7.221   6.562   6.572  0.7249  0.9666 -0.9661
14607SOL    HW244656   7.152   6.449   6.499  0.9216  1.5639 -2.0931
14608SOL     OW44657   5.098   2.922   0.425  0.0988  0.0267  0.2206
14608SOL    HW144658   5.165   2.877   0.374  0.0249  2.9832 -2.7824
14608SOL    HW244659   5.043   2.851   0.459  1.7422 -2.2573 -1.5354
14609SOL     OW44660   0.128   7.129   0.935  0.1343 -0.3520  0.2564
14609SOL    HW144661   0.074   7.087   1.002 -1.2558  2.1034  0.7923
14609SOL    HW244662   0.207   7.075   0.930 -0.7707 -1.9613  2.1137
14610SOL     OW44663   3.667   6.890   7.328  0.5997  0.3114  0.0356
14610SOL    HW144664   3.618   6.972   7.335  0.3846  0.2608 -0.7633
14610SOL    HW244665   3.757   6.917   7.307  0.2219  0.3104 -1.6733
14611SOL     OW44666   4.252   4.427   4.630 -0.4433 -0.5140  0.0823
14611SOL    HW144667   4.297   4.510   4.612 -2.5220  0.5839 -0.3643
14611SOL    HW244668   4.321   4.361   4.626  1.0078  0.9849 -1.1963
14612SOL     OW44669   5.814   3.796   7.586 -0.1111  0.0288 -0.1564
14612SOL    HW144670   5.805   3.811   7.492  1.1788 -0.3039 -0.3489
14612SOL    HW244671   5.785   3.705   7.598 -0.2476  0.0612 -0.2348
14613SOL     OW44672   1.240   4.732   2.009  0.0009 -0.1654 -0.2203
14613SOL    HW144673   1.324   4.771   2.034 -0.0256 -0.1275 -0.1912
14613SOL    HW244674   1.176   4.774   2.067 -0.1573  0.4236 -0.8133
14614SOL     OW44675   1.186   5.152   1.931 -0.3969  0.3669 -0.5139
14614SOL    HW144676   1.233   5.212   1.874 -0.1469 -0.6810 -1.4591
14614SOL    HW244677   1.100   5.142   1.891 -0.0639 -0.7349 -1.0134
14615SOL     OW44678   5.450   7.449   3.449 -0.4941  0.1268  0.3233
14615SOL    HW144679   5.539   7.413   3.449 -0.7698 -0.5989 -0.6336
14615SOL    HW244680   5.416   7.429   3.536  0.8382  1.8986  1.3222
14616SOL     OW44681   5.219   7.686   2.249 -0.4341  0.6088  0.4543
14616SOL    HW144682   5.263   7.764   2.279 -0.0481  0.7184 -0.3635
14616SOL    HW244683   5.196   7.705   2.158  1.4275 -0.9359 -0.4045
14617SOL     OW44684   1.133   5.694   3.981 -0.0147  0.2090  0.5876
14617SOL    HW144685   1.223   5.726   3.977 -0.5396  1.6844 -1.7779
14617SOL    HW244686   1.136   5.609   3.936  0.4324 -0.5600  2.0049
14618SOL     OW44687   1.828   3.450   7.505  0.3984 -0.0486  0.5937
14618SOL    HW144688   1.734   3.448   7.492  0.2713 -3.8165  1.2186
14618SOL    HW244689   1.839   3.470   7.599  0.2595  0.2197  0.5553
14619SOL     OW44690   1.893   6.419   4.851 -0.0998 -0.2022 -0.7160
14619SOL    HW144691   1.978   6.453   4.877 -0.0797 -0.9046  0.1833
14619SOL    HW244692   1.830   6.467   4.905 -0.2866  0.3277 -1.3890
14620SOL     OW44693   0.549   0.717   3.806  0.0307  0.4510 -0.3192
14620SOL    HW144694   0.630   0.724   3.755 -0.6868 -0.1605 -1.6028
14620SOL    HW244695   0.502   0.798   3.788 -0.7707 -0.2755 -1.6707
14621SOL     OW44696   0.609   3.303   0.543 -0.0046  0.2439 -0.5724
14621SOL    HW144697   0.695   3.276   0.574 -0.2717 -0.4734 -0.4241
14621SOL    HW244698   0.548   3.269   0.610 -0.5009 -0.4411 -1.3477
14622SOL     OW44699   4.814   1.532   5.884 -0.0182  0.2151  0.5116
14622SOL    HW144700   4.881   1.464   5.892 -0.0273  0.2761  1.1502
14622SOL    HW244701   4.757   1.518   5.960 -2.2667 -1.4933 -1.3699
14623SOL     OW44702   5.377   3.207   5.892  0.2247 -0.6396  0.2787
14623SOL    HW144703   5.342   3.131   5.938  0.6792 -0.8103  0.3538
14623SOL    HW244704   5.444   3.242   5.951 -0.4357  0.2284  0.5506
14624SOL     OW44705   3.942   5.372   3.625  0.0879 -0.1840 -0.1636
14624SOL    HW144706   3.880   5.332   3.687  0.2608 -0.8865 -0.4379
14624SOL    HW244707   3.892   5.382   3.544  0.3133 -0.7083 -0.3716
14625SOL     OW44708   7.923   3.959   0.024 -0.1312  0.0112  0.6463
14625SOL    HW144709   7.830   3.972   0.006 -0.8501 -0.1483  3.6452
14625SOL    HW244710   7.953   3.900  -0.045 -1.9169  1.0210 -1.1128
14626SOL     OW44711   1.444   2.010   6.671  0.4613  0.4073 -0.1531
14626SOL    HW144712   1.498   1.980   6.598  0.1941  1.0691 -0.6278
14626SOL    HW244713   1.407   2.093   6.642 -1.3659 -0.3495 -0.1287
14627SOL     OW44714   4.256   4.590   2.110  0.4152 -0.0513  0.0729
14627SOL    HW144715   4.167   4.607   2.080  0.3665  0.8320  0.6715
14627SOL    HW244716   4.284   4.673   2.151  2.0002  0.1577 -1.3032
14628SOL     OW44717   2.282   6.501   6.192 -0.3689  0.4607  0.1711
14628SOL    HW144718   2.265   6.467   6.104  0.6603  1.0814 -0.2883
14628SOL    HW244719   2.306   6.593   6.178 -0.7213  0.7107  1.1543
14629SOL     OW44720   5.726   3.356   1.939 -0.4184 -0.1778 -0.4823
14629SOL    HW144721   5.699   3.434   1.986  1.3133  0.3357 -0.2784
14629SOL    HW244722   5.773   3.303   2.005 -1.3970 -1.3131 -0.6585
14630SOL     OW44723   0.755   7.010   2.328  0.1149  0.5751  0.3607
14630SOL    HW144724   0.677   7.063   2.312 -1.0694 -1.2790 -0.3782
14630SOL    HW244725   0.793   6.996   2.241 -0.7206 -1.3514  0.2543
14631SOL     OW44726   7.448   6.704   3.617 -0.6174  0.1059 -0.0600
14631SOL    HW144727   7.491   6.763   3.556 -0.8081 -2.3771 -2.8343
14631SOL    HW244728   7.386   6.655   3.563 -2.3726 -0.8243  2.5803
14632SOL     OW44729   4.333   0.617   0.023  0.2522  0.2519  0.3554
14632SOL    HW144730   4.265   0.577  -0.031 -1.0548  0.9506  1.4183
14632SOL    HW244731   4.364   0.692  -0.028  0.3437 -0.1676 -0.2079
14633SOL     OW44732   6.457   3.390   4.319 -0.2761 -0.0794 -0.2179
14633SOL    HW144733   6.529   3.383   4.255  0.2887 -1.8956  0.5604
14633SOL    HW244734   6.473   3.474   4.363  0.4627  0.2754 -1.1216
14634SOL     OW44735   2.501   6.294   6.213  0.3922  0.0401 -0.2878
14634SOL    HW144736   2.441   6.255   6.149  0.8021 -1.8387  0.3978
14634SOL    HW244737   2.448   6.361   6.257 -1.2692 -1.5793  0.3216
14635SOL     OW44738   6.181   3.947   5.979  0.8094 -0.7735 -0.0913
14635SOL    HW144739   6.189   4.042   5.970  0.4068 -0.6984  0.3372
14635SOL    HW244740   6.142   3.919   5.896  1.4399 -0.6340 -0.4407
14636SOL     OW44741   1.580   4.207   1.447 -0.0460 -0.0243  0.2628
14636SOL    HW144742   1.660   4.243   1.485 -1.2325  0.0192  2.9170
14636SOL    HW244743   1.526   4.183   1.522 -2.1596 -0.9287 -1.4344
14637SOL     OW44744   7.385   2.312   0.615 -0.3676  0.1798  0.0598
14637SOL    HW144745   7.323   2.255   0.571  0.7584 -0.0458 -1.2968
14637SOL    HW244746   7.429   2.255   0.679  0.3879 -0.3768 -0.9309
14638SOL     OW44747   2.704   6.920   0.822  0.5062 -0.3771 -0.2321
14638SOL    HW144748   2.636   6.987   0.830  2.2432  1.4886 -0.2205
14638SOL    HW244749   2.744   6.915   0.909  0.4206 -1.4474 -0.2367
14639SOL     OW44750   6.147   3.580   0.831 -0.3601  0.1717 -0.0094
14639SOL    HW144751   6.237   3.585   0.864  0.1169 -0.6298 -1.1217
14639SOL    HW244752   6.096   3.548   0.906  0.5276 -0.6798  0.2594
14640SOL     OW44753   3.585   2.569   6.969  0.1318 -0.4378  0.3236
14640SOL    HW144754   3.585   2.476   6.946  0.4181 -0.1916 -0.7349
14640SOL    HW244755   3.659   2.579   7.029  0.8506 -0.6853 -0.5007
14641SOL     OW44756   2.957   2.827   2.796  0.2549  0.3105  0.2508
14641SOL    HW144757   2.902   2.825   2.874 -0.0683 -0.2403  0.0154
14641SOL    HW244758   2.938   2.911   2.755 -0.9070 -0.1276 -0.1656
14642SOL     OW44759   1.156   2.872   3.529  0.8166  0.0053  0.2415
14642SOL    HW144760   1.131   2.809   3.462  0.5889 -0.0267  0.3544
14642SOL    HW244761   1.124   2.834   3.611  1.4248 -0.1348  0.4183
14643SOL     OW44762   0.721   0.608   5.272 -0.2115 -0.1211 -0.1080
14643SOL    HW144763   0.734   0.697   5.304  0.9905 -0.7843  1.3598
14643SOL    HW244764   0.642   0.578   5.318 -1.1893  0.4924 -1.3468
14644SOL     OW44765   5.062   7.241   5.908  0.2923  0.4783  0.2380
14644SOL    HW144766   5.134   7.255   5.846  1.5508 -0.5942  1.3848
14644SOL    HW244767   5.102   7.253   5.994 -0.8675 -0.3399  0.9159
14645SOL     OW44768   7.722   6.524   1.746  0.1110  0.1958  0.0933
14645SOL    HW144769   7.753   6.441   1.708 -0.8301  0.6796 -1.9088
14645SOL    HW244770   7.631   6.506   1.771 -1.0107  1.2037 -2.7844
14646SOL     OW44771   5.989   3.328   3.848 -0.6445  0.2950 -0.2674
14646SOL    HW144772   5.909   3.288   3.884  0.0400 -0.1613  0.7761
14646SOL    HW244773   5.992   3.414   3.890  1.5555 -1.1883  3.0371
14647SOL     OW44774   6.482   2.725   4.779 -0.3721  0.2120 -0.3363
14647SOL    HW144775   6.443   2.689   4.699 -1.2112 -0.2507  0.2608
14647SOL    HW244776   6.416   2.787   4.811 -0.5465 -0.4294  0.5808
14648SOL     OW44777   0.150   7.672   0.507 -0.4817 -0.3264 -0.2545
14648SOL    HW144778   0.082   7.632   0.561 -0.5181  1.1254  0.8251
14648SOL    HW244779   0.224   7.612   0.512  0.0143  0.3800  2.5887
14649SOL     OW44780   4.038   5.837   6.323  0.5119 -0.7794 -0.2278
14649SOL    HW144781   4.107   5.892   6.361  0.8997 -1.3694 -0.0744
14649SOL    HW244782   4.055   5.750   6.357 -0.1934 -0.9715 -0.3563
14650SOL     OW44783   5.298   6.939   4.036  0.6383  0.7108  0.1379
14650SOL    HW144784   5.325   6.953   4.127  2.6303  1.2471 -0.4746
14650SOL    HW244785   5.372   6.892   3.997 -0.8289 -0.8682 -0.8498
14651SOL     OW44786   5.572   3.541   7.836 -0.3605  0.2956 -0.3581
14651SOL    HW144787   5.515   3.594   7.780  0.5278  1.7941  0.1140
14651SOL    HW244788   5.636   3.504   7.775 -0.1538  0.8830 -0.4994
14652SOL     OW44789   6.371   2.432   1.300  0.3166  0.7211 -0.0327
14652SOL    HW144790   6.367   2.371   1.374 -0.3835 -0.2048 -0.8079
14652SOL    HW244791   6.443   2.491   1.322  0.7694 -0.1502  0.9267
14653SOL     OW44792   2.238   2.185   3.067  0.7530  0.1466 -0.5772
14653SOL    HW144793   2.285   2.245   3.125  0.3647 -0.0634 -0.0369
14653SOL    HW244794   2.178   2.241   3.017  0.0146  0.1653  0.2968
14654SOL     OW44795   3.605   5.944   3.564 -0.2479 -0.2850  0.2954
14654SOL    HW144796   3.631   6.032   3.534  0.8636 -0.6635  0.0989
14654SOL    HW244797   3.686   5.892   3.558 -0.7585 -1.1766  0.9549
14655SOL     OW44798   2.961   7.606   4.655 -0.1318 -0.2085 -0.4445
14655SOL    HW144799   2.971   7.608   4.750 -1.2200 -1.0753 -0.2872
14655SOL    HW244800   2.943   7.515   4.634 -2.5862  0.3618 -1.1523
14656SOL     OW44801   3.588   5.995   7.329  0.0137 -0.5401  0.4619
14656SOL    HW144802   3.658   6.051   7.297 -1.3813  0.5128 -0.8896
14656SOL    HW244803   3.561   5.943   7.253 -1.8159  0.3319  0.4663
14657SOL     OW44804   7.800   5.138   2.871 -0.2244 -0.0237 -0.0743
14657SOL    HW144805   7.737   5.097   2.929  1.6175 -1.2052  1.1980
14657SOL    HW244806   7.808   5.078   2.797 -0.6200  0.1680 -0.2779
14658SOL     OW44807   0.885   1.199   2.606 -0.1240 -0.1876 -0.3195
14658SOL    HW144808   0.906   1.246   2.687  1.4131 -0.4854 -0.5249
14658SOL    HW244809   0.870   1.109   2.635 -2.0803  0.1582 -0.0659
14659SOL     OW44810   1.970   3.980   6.110  0.1472  0.4017  0.3788
14659SOL    HW144811   1.920   4.022   6.181 -1.7838  2.0278 -1.7777
14659SOL    HW244812   2.023   4.051   6.074 -1.3972  0.5505 -1.8310
14660SOL     OW44813   5.999   0.349   2.423  0.4136  0.1198  0.0252
14660SOL    HW144814   6.021   0.279   2.362  0.4925 -0.3580  0.5934
14660SOL    HW244815   6.009   0.429   2.372  1.0719 -0.2338 -0.4146
14661SOL     OW44816   1.732   3.336   3.045  0.2171  0.2770 -0.0817
14661SOL    HW144817   1.716   3.430   3.040  1.3161  0.4968  0.2277
14661SOL    HW244818   1.749   3.319   3.138  0.0522 -0.2154 -0.1394
14662SOL     OW44819   7.878   5.759   4.916  0.5274  0.0457 -0.1295
14662SOL    HW144820   7.968   5.766   4.947  0.5547  1.0110 -0.4176
14662SOL    HW244821   7.857   5.845   4.881 -0.8950  0.1861  0.9639
14663SOL     OW44822   6.573   5.129   0.767 -0.4042 -0.4940 -0.4239
14663SOL    HW144823   6.612   5.042   0.768  0.1163 -0.2977 -1.5831
14663SOL    HW244824   6.640   5.185   0.726 -0.4699  0.5881  0.8797
14664SOL     OW44825   1.264   2.128   0.680 -0.4289  0.5101 -0.5569
14664SOL    HW144826   1.224   2.186   0.615  0.4386 -0.0090 -1.5818
14664SOL    HW244827   1.264   2.180   0.761 -2.4653  0.7939 -0.6726
14665SOL     OW44828   7.129   4.448   6.567 -0.3845  0.4979  0.2105
14665SOL    HW144829   7.197   4.391   6.532 -1.2922  0.3915 -1.4974
14665SOL    HW244830   7.175   4.526   6.597  0.4723  0.5233 -1.1131
14666SOL     OW44831   2.320   7.180   7.105  0.2180 -0.1782 -0.1080
14666SOL    HW144832   2.254   7.115   7.130 -0.2053  0.4354  0.3841
14666SOL    HW244833   2.271   7.259   7.085  0.6033 -0.4040 -2.1934
14667SOL     OW44834   5.208   7.586   6.628 -0.5726 -0.1533 -0.5868
14667SOL    HW144835   5.231   7.597   6.536 -0.0934  0.2386 -0.4205
14667SOL    HW244836   5.130   7.640   6.641 -0.3740  0.1426 -0.6503
14668SOL     OW44837   0.992   7.480   5.523  0.1710  0.7935  0.5557
14668SOL    HW144838   1.041   7.414   5.572  0.8389  0.0081 -1.1014
14668SOL    HW244839   0.903   7.444   5.517  0.6344 -0.2142 -0.7125
14669SOL     OW44840   0.876   3.877   0.914  0.5447 -0.4586  0.2613
14669SOL    HW144841   0.847   3.958   0.873  1.7786 -0.3957 -0.5291
14669SOL    HW244842   0.952   3.902   0.967 -1.2272 -0.4581  3.0085
14670SOL     OW44843   4.221   2.235   2.852 -0.1206 -0.0965 -0.2731
14670SOL    HW144844   4.299   2.250   2.800  0.1549 -1.1326 -0.1658
14670SOL    HW244845   4.190   2.323   2.874  1.1534  0.3293 -0.0912
14671SOL     OW44846   0.060   7.334   7.835 -0.0520  0.4836 -0.1083
14671SOL    HW144847  -0.013   7.345   7.896  0.1590  2.2329 -0.1195
14671SOL    HW244848   0.035   7.258   7.782 -0.9531 -0.1253  1.1278
14672SOL     OW44849   7.176   4.038   3.707  0.1310  0.1465 -0.2787
14672SOL    HW144850   7.155   4.131   3.696 -3.9599 -0.6448 -0.4452
14672SOL    HW244851   7.204   4.010   3.620  1.7857  1.2107 -0.1483
14673SOL     OW44852   1.371   3.550   7.759  0.2569 -0.1817 -0.2068
14673SOL    HW144853   1.344   3.641   7.744  1.0131  0.1453  0.3226
14673SOL    HW244854   1.290   3.500   7.756 -0.1854  0.5296 -0.3767
14674SOL     OW44855   7.774   5.252   6.727  0.0687  0.0838 -0.2529
14674SOL    HW144856   7.795   5.330   6.675  0.9187 -0.1195 -0.2267
14674SOL    HW244857   7.842   5.189   6.704 -1.0869 -0.9712 -0.9077
14675SOL     OW44858   3.881   4.158   6.865  0.0385 -0.1054  0.2615
14675SOL    HW144859   3.888   4.219   6.938 -1.3745  0.6276 -0.1714
14675SOL    HW244860   3.815   4.094   6.893  0.7400 -0.8257  0.2935
14676SOL     OW44861   2.939   7.496   6.488 -0.4375  0.4382  0.3500
14676SOL    HW144862   2.886   7.549   6.548 -0.9084 -1.4646  1.6969
14676SOL    HW244863   2.909   7.523   6.401 -0.2478  2.7553  0.9347
14677SOL     OW44864   1.925   7.303   3.151  0.3404 -0.5973  0.2596
14677SOL    HW144865   2.007   7.266   3.183  2.3389  1.8127 -1.6568
14677SOL    HW244866   1.914   7.384   3.200 -2.3549 -2.0184  2.2658
14678SOL     OW44867   2.700   3.805   1.699 -0.1135 -0.5005 -0.3784
14678SOL    HW144868   2.793   3.792   1.681 -0.5660 -1.8628 -1.9875
14678SOL    HW244869   2.679   3.888   1.658  0.6186  0.4253  1.0433
14679SOL     OW44870   0.729   5.934   1.365  0.6696 -0.1931 -0.2790
14679SOL    HW144871   0.691   5.899   1.284  1.6630  0.3139 -0.9876
14679SOL    HW244872   0.663   5.995   1.398  0.4098 -0.1226 -0.9120
14680SOL     OW44873   3.900   3.889   5.138  0.0057  0.6449 -0.0246
14680SOL    HW144874   3.995   3.891   5.146  0.2896 -1.1765 -2.1158
14680SOL    HW244875   3.875   3.805   5.176 -0.6732  0.7400 -0.2544
14681SOL     OW44876   3.521   6.684   7.453  0.3711  0.1572 -0.1263
14681SOL    HW144877   3.586   6.753   7.440  0.2027  0.0676 -1.6618
14681SOL    HW244878   3.437   6.730   7.450  0.2728 -0.0588 -0.7669
14682SOL     OW44879   7.146   7.308   0.193  0.4457 -0.5797  0.3190
14682SOL    HW144880   7.180   7.221   0.216 -0.1152 -0.9377 -0.1792
14682SOL    HW244881   7.189   7.367   0.255 -0.6752 -1.4411  2.0175
14683SOL     OW44882   7.938   7.105   7.590  0.0113  0.5656 -0.0223
14683SOL    HW144883   7.851   7.067   7.574  1.0075 -2.9676  1.9367
14683SOL    HW244884   7.999   7.044   7.548  1.6601  2.3225 -0.3346
14684SOL     OW44885   0.221   7.398   3.661 -0.1901 -0.4102 -0.1026
14684SOL    HW144886   0.299   7.419   3.713  1.2042 -1.6523 -1.5640
14684SOL    HW244887   0.236   7.440   3.577 -1.6439  0.2171 -0.0842
14685SOL     OW44888   0.488   3.496   7.731  0.0275  0.5150  0.0408
14685SOL    HW144889   0.394   3.500   7.748 -0.7704 -0.1732 -3.3655
14685SOL    HW244890   0.512   3.406   7.751 -0.3410  0.3681 -0.1528
14686SOL     OW44891   4.915   6.694   5.418  0.6883 -0.1110 -0.0865
14686SOL    HW144892   4.984   6.748   5.378  0.0990 -0.2010 -1.2959
14686SOL    HW244893   4.878   6.646   5.344 -0.4924 -0.2476  0.5790
14687SOL     OW44894   6.504   4.804   6.238 -0.0473 -0.0355 -0.0975
14687SOL    HW144895   6.574   4.740   6.224 -0.0389  0.2514 -1.5826
14687SOL    HW244896   6.520   4.838   6.326  0.2774 -1.6575  0.4947
14688SOL     OW44897   7.228   0.057   2.518  0.0054  0.1059  0.1748
14688SOL    HW144898   7.295   0.042   2.586 -1.2989  0.5688  1.6309
14688SOL    HW244899   7.165  -0.015   2.530 -0.9010  0.9044  0.3288
14689SOL     OW44900   2.226   5.323   2.577 -0.4718  0.0406 -0.5502
14689SOL    HW144901   2.253   5.337   2.668  0.8343  2.2132 -1.1990
14689SOL    HW244902   2.267   5.241   2.552  0.0342 -0.0439  0.5057
14690SOL     OW44903   6.616   0.002   0.007 -0.5800  0.2482 -0.0033
14690SOL    HW144904   6.629   0.054   0.086 -2.1793  0.2407  0.3071
14690SOL    HW244905   6.551   0.051  -0.043 -0.6399 -0.4656 -0.6364
14691SOL     OW44906   3.190   7.480   1.322 -0.5898  0.0639  0.4708
14691SOL    HW144907   3.246   7.490   1.399 -0.6666  0.2191  0.5092
14691SOL    HW244908   3.210   7.557   1.268 -0.3506 -0.1799  0.2157
14692SOL     OW44909   2.193   3.702   2.631 -0.5196  0.4005  0.1648
14692SOL    HW144910   2.104   3.731   2.649 -0.1251  1.5564  0.3354
14692SOL    HW244911   2.183   3.613   2.599 -1.7279  0.4815  0.2723
14693SOL     OW44912   3.984   3.607   1.085 -0.3022 -0.5387 -0.0094
14693SOL    HW144913   3.962   3.543   1.152 -0.8901 -0.4602 -0.1161
14693SOL    HW244914   3.903   3.658   1.074  0.8298  1.8391  1.8060
14694SOL     OW44915   1.665   5.767   5.854 -0.2608 -0.2793 -0.0988
14694SOL    HW144916   1.743   5.814   5.884 -1.6917  0.6604  2.4105
14694SOL    HW244917   1.644   5.708   5.926 -1.0976 -1.5436 -1.3361
14695SOL     OW44918   2.239   6.913   0.517 -0.1948 -0.0567  0.0359
14695SOL    HW144919   2.190   6.987   0.482 -0.6902 -0.5787 -0.3868
14695SOL    HW244920   2.306   6.894   0.451  0.9786  1.0241  0.8729
14696SOL     OW44921   4.839   4.066   5.329 -0.2258  0.1308  0.3073
14696SOL    HW144922   4.780   4.062   5.254 -0.3865 -0.6944  0.4609
14696SOL    HW244923   4.806   3.999   5.389  1.4265 -1.0806 -0.0413
14697SOL     OW44924   6.203   6.283   6.440 -0.0495  0.4979 -0.7346
14697SOL    HW144925   6.191   6.222   6.367 -0.6017 -1.9203  1.2311
14697SOL    HW244926   6.283   6.252   6.484  0.4657  2.1167 -0.4534
14698SOL     OW44927   3.240   3.207   4.198 -0.5981 -0.1849 -0.2740
14698SOL    HW144928   3.322   3.172   4.232  0.3002  0.3826 -1.7662
14698SOL    HW244929   3.227   3.161   4.114 -1.7620 -0.1956 -0.1131
14699SOL     OW44930   2.984   0.174   6.763 -0.0149 -0.8675 -0.6374
14699SOL    HW144931   3.063   0.130   6.796  0.1423 -0.7406 -0.8356
14699SOL    HW244932   3.018   0.243   6.707 -0.2768 -1.1604 -1.1657
14700SOL     OW44933   4.607   0.782   7.708 -0.2932  0.1548  0.2756
14700SOL    HW144934   4.535   0.827   7.752  0.5704  0.9943  0.8873
14700SOL    HW244935   4.684   0.835   7.729  0.8694 -1.8759  1.4443
14701SOL     OW44936   5.193   2.341   2.271 -0.2581 -0.2589  0.0675
14701SOL    HW144937   5.213   2.403   2.342 -0.6875  0.7102 -0.6299
14701SOL    HW244938   5.156   2.265   2.316 -0.1942  0.1903  0.9133
14702SOL     OW44939   4.469   2.875   7.378 -0.0344  0.2387 -0.0883
14702SOL    HW144940   4.462   2.876   7.282 -0.9307  1.0324 -0.0349
14702SOL    HW244941   4.453   2.966   7.404  1.3984  0.2817  0.7587
14703SOL     OW44942   5.676   0.483   6.846 -0.6535  0.2097  0.1288
14703SOL    HW144943   5.590   0.441   6.856 -0.5068  0.0836  0.9502
14703SOL    HW244944   5.668   0.565   6.896 -0.5260  0.5427 -0.3939
14704SOL     OW44945   1.413   2.823   1.277  0.4687 -0.5078 -0.4355
14704SOL    HW144946   1.354   2.876   1.331  0.6682  1.5899 -2.1252
14704SOL    HW244947   1.479   2.885   1.246  0.7129 -1.7196 -2.5596
14705SOL     OW44948   0.744   4.324   7.931  0.5449 -0.4447  0.2264
14705SOL    HW144949   0.810   4.264   7.896 -0.9115 -1.9342 -0.1363
14705SOL    HW244950   0.664   4.302   7.883 -0.7546 -0.2918  2.2035
14706SOL     OW44951   2.476   0.855   6.860  0.9549  0.5032  0.2359
14706SOL    HW144952   2.481   0.761   6.843 -0.5749  0.3521  0.4366
14706SOL    HW244953   2.531   0.895   6.793  2.7318 -0.5827  0.9699
14707SOL     OW44954   7.665   0.533   7.648  0.3996 -0.1480  0.6145
14707SOL    HW144955   7.586   0.568   7.690  0.1879 -0.9202  0.8815
14707SOL    HW244956   7.732   0.598   7.664  0.1521 -0.1236  1.5855
14708SOL     OW44957   1.710   0.775   5.174 -0.0674  0.2151 -0.3399
14708SOL    HW144958   1.687   0.781   5.267  1.0725  1.4451 -0.1032
14708SOL    HW244959   1.640   0.723   5.135 -1.3731  0.9450  0.9341
14709SOL     OW44960   7.571   6.815   4.423  0.4960 -0.4018 -0.0811
14709SOL    HW144961   7.520   6.885   4.462  1.9370  0.1406  0.9477
14709SOL    HW244962   7.662   6.843   4.433  1.0219 -1.4170 -1.6349
14710SOL     OW44963   3.231   4.870   6.786  0.1910  0.5556 -0.1892
14710SOL    HW144964   3.185   4.803   6.734  2.2194 -2.1400  1.2591
14710SOL    HW244965   3.320   4.871   6.750  0.8124  0.8006  1.3049
14711SOL     OW44966   0.518   3.634   6.121 -0.3386 -0.0492  0.3608
14711SOL    HW144967   0.430   3.603   6.144 -0.0471 -1.1736  0.0325
14711SOL    HW244968   0.577   3.565   6.153  0.1964 -0.8471 -2.1488
14712SOL     OW44969   2.335   7.086   6.105 -0.5946 -0.3028 -0.4189
14712SOL    HW144970   2.256   7.032   6.103 -0.5020 -0.4229 -1.2028
14712SOL    HW244971   2.302   7.176   6.105 -0.7447 -0.3360  0.6617
14713SOL     OW44972   5.294   7.116   3.408 -0.1818 -0.0541 -0.2944
14713SOL    HW144973   5.337   7.144   3.489  0.4907 -0.1115 -0.6271
14713SOL    HW244974   5.240   7.041   3.434 -0.1621  0.0832  0.1465
14714SOL     OW44975   3.641   2.826   1.061  0.4292 -0.1328  0.2379
14714SOL    HW144976   3.594   2.780   0.992 -0.8528  2.1135 -0.4972
14714SOL    HW244977   3.718   2.863   1.017 -0.2046  1.0078  0.0560
14715SOL     OW44978   5.209   2.622   5.297 -0.1508 -1.1076 -0.0683
14715SOL    HW144979   5.213   2.565   5.221  2.2441 -1.3669  0.1898
14715SOL    HW244980   5.173   2.566   5.366  1.6818 -2.2371  0.0503
14716SOL     OW44981   2.737   3.515   0.060  0.3103  0.0194 -0.3172
14716SOL    HW144982   2.656   3.528   0.110  0.6780 -0.1884  0.3412
14716SOL    HW244983   2.715   3.445  -0.002  0.0622 -0.2307  0.0444
14717SOL     OW44984   3.234   4.727   6.367 -0.2296  0.2765  0.2295
14717SOL    HW144985   3.286   4.679   6.432 -0.2797  0.0895  0.1320
14717SOL    HW244986   3.266   4.817   6.373  0.2476  0.1259  0.0342
14718SOL     OW44987   4.366   1.966   1.945 -0.3200 -0.0444  0.8034
14718SOL    HW144988   4.356   1.989   1.852  0.0190 -1.8487  0.2798
14718SOL    HW244989   4.444   2.013   1.973 -1.0189  1.3666  0.4934
14719SOL     OW44990   2.085   7.536   5.569 -0.0307  0.2024 -0.3238
14719SOL    HW144991   2.155   7.571   5.515 -0.0354  0.5713 -0.0938
14719SOL    HW244992   2.123   7.531   5.657 -0.3518  0.5830 -0.1618
14720SOL     OW44993   6.991   4.937   4.857 -0.0968  0.2873 -0.4586
14720SOL    HW144994   6.957   4.879   4.925 -1.8556 -0.9742 -2.2931
14720SOL    HW244995   6.996   5.023   4.900 -3.3053  0.0415  0.7321
14721SOL     OW44996   1.567   7.542   4.230  0.3169  0.6348  0.3514
14721SOL    HW144997   1.587   7.450   4.214 -0.8642  0.7925 -2.5980
14721SOL    HW244998   1.472   7.546   4.234  0.2405  1.9312 -1.5166
14722SOL     OW44999   2.410   7.586   6.446 -0.1203 -0.0959  0.2649
14722SOL    HW145000   2.461   7.542   6.514 -0.2167 -1.1592 -0.3335
14722SOL    HW245001   2.319   7.567   6.468 -0.1334 -1.1682 -0.5995
14723SOL     OW45002   5.141   5.937   3.336  0.4471  0.2243 -0.0459
14723SOL    HW145003   5.165   6.018   3.381 -0.2442  0.3691  0.0643
14723SOL    HW245004   5.117   5.965   3.247  1.0883  0.0256 -0.2938
14724SOL     OW45005   5.296   1.789   3.042 -0.1491 -0.9679  0.5681
14724SOL    HW145006   5.256   1.703   3.031 -2.9136  0.3240 -0.5604
14724SOL    HW245007   5.250   1.827   3.118 -0.1852  0.0945  0.0398
14725SOL     OW45008   2.645   7.578   4.495 -0.0231  0.3447 -0.3828
14725SOL    HW145009   2.569   7.634   4.507  1.2544  2.1710 -0.4872
14725SOL    HW245010   2.675   7.559   4.584 -0.5386 -0.3492 -0.3426
14726SOL     OW45011   7.518   4.885   5.430 -0.2664  0.7195  0.2010
14726SOL    HW145012   7.573   4.911   5.356 -1.4475  1.1038 -0.5667
14726SOL    HW245013   7.437   4.853   5.390 -0.2098 -0.8902  1.2559
14727SOL     OW45014   4.817   3.219   0.144 -0.3299  0.0222 -0.5468
14727SOL    HW145015   4.910   3.208   0.163 -0.4287  0.7597  0.4091
14727SOL    HW245016   4.806   3.313   0.133 -0.5659 -0.2176 -2.8827
14728SOL     OW45017   1.927   5.575   7.192 -0.1391 -0.4309  0.3318
14728SOL    HW145018   2.009   5.616   7.219 -0.7684  0.9443  0.2749
14728SOL    HW245019   1.868   5.588   7.266 -0.8024  0.1416 -0.2769
14729SOL     OW45020   7.807   3.350   6.026  0.4043 -0.5387 -0.4317
14729SOL    HW145021   7.784   3.306   6.107 -0.3896 -0.6547 -0.7134
14729SOL    HW245022   7.822   3.280   5.963 -1.3458 -0.4369 -1.0125
14730SOL     OW45023   0.335   2.412   4.657 -0.2546 -0.0621 -0.0032
14730SOL    HW145024   0.276   2.345   4.624  0.1239 -0.6205  0.4369
14730SOL    HW245025   0.421   2.370   4.660 -0.0116  0.4376  0.2896
14731SOL     OW45026   3.437   0.049   5.566  0.1376 -0.5726 -0.5572
14731SOL    HW145027   3.379   0.029   5.639 -1.1077 -0.1923 -1.4122
14731SOL    HW245028   3.525   0.046   5.604 -0.4686 -0.4840  0.9320
14732SOL     OW45029   6.521   3.922   2.139  0.1581 -0.0430 -0.5001
14732SOL    HW145030   6.511   3.838   2.093  0.2069 -0.4714  0.2663
14732SOL    HW245031   6.569   3.900   2.219  0.4319  0.7682 -0.4381
14733SOL     OW45032   7.833   1.409   6.384 -0.1006 -0.6344 -0.1444
14733SOL    HW145033   7.863   1.423   6.294  1.5026  2.9199  0.7670
14733SOL    HW245034   7.884   1.334   6.415  1.8456  0.1687 -1.2235
14734SOL     OW45035   1.715   5.905   3.732 -0.4841  0.1217  0.1199
14734SOL    HW145036   1.732   5.829   3.786  0.8015  1.5739  1.8563
14734SOL    HW245037   1.676   5.869   3.652  1.2881 -2.4593  0.3057
14735SOL     OW45038   5.658   6.028   2.115 -0.4935  0.4129  0.2379
14735SOL    HW145039   5.699   6.104   2.155 -0.3497  0.8731 -0.7700
14735SOL    HW245040   5.639   6.054   2.026  1.7147 -1.4705 -0.9047
14736SOL     OW45041   3.921   6.600   4.224 -0.4674 -0.1952  0.6130
14736SOL    HW145042   3.937   6.515   4.183 -1.7147 -0.7970  1.3302
14736SOL    HW245043   3.901   6.579   4.315  0.9856  1.0214  1.2569
14737SOL     OW45044   3.154   2.959   2.171  0.0136  0.0580  0.0789
14737SOL    HW145045   3.063   2.939   2.151 -0.0526 -0.9621  1.2462
14737SOL    HW245046   3.151   3.034   2.229 -0.2328 -1.0224  1.5227
14738SOL     OW45047   6.239   1.016   4.276 -0.0858 -0.4153 -0.1715
14738SOL    HW145048   6.167   1.019   4.213  0.7351  0.2637 -1.1203
14738SOL    HW245049   6.267   1.107   4.286  0.7561 -0.6828  0.0205
14739SOL     OW45050   2.081   2.315   0.224  0.0983  0.1987  0.4113
14739SOL    HW145051   2.073   2.341   0.316  0.4621 -1.1681  0.8525
14739SOL    HW245052   2.057   2.222   0.224  0.3113  0.1350 -0.8429
14740SOL     OW45053   6.894   4.394   1.228  0.0055  0.1627 -0.0734
14740SOL    HW145054   6.902   4.470   1.285  0.8992  1.4273 -1.7758
14740SOL    HW245055   6.964   4.335   1.256  1.2995  1.3598 -0.6691
14741SOL     OW45056   3.526   1.251   6.317  0.4605 -0.3988 -0.7691
14741SOL    HW145057   3.574   1.333   6.302  0.5849 -0.4607 -0.7055
14741SOL    HW245058   3.589   1.194   6.361  0.0434 -0.1554  0.1805
14742SOL     OW45059   0.630   2.845   3.592  0.1450  0.6021  0.3549
14742SOL    HW145060   0.576   2.922   3.574 -1.4046 -0.4209  0.4608
14742SOL    HW245061   0.669   2.822   3.508  0.1744  1.1629  0.2113
14743SOL     OW45062   7.609   7.761   2.335 -0.4417  0.3494 -0.1959
14743SOL    HW145063   7.514   7.775   2.331 -0.7027 -1.2738 -0.3612
14743SOL    HW245064   7.619   7.667   2.322  1.2222  0.5539 -0.5073
14744SOL     OW45065   1.723   6.617   6.686 -0.1410  0.3051 -0.2970
14744SOL    HW145066   1.741   6.539   6.739  1.6374 -0.4467 -1.8953
14744SOL    HW245067   1.630   6.635   6.700 -1.2112 -3.4207 -1.5005
14745SOL     OW45068   2.631   5.888   4.454 -0.7082 -0.4550 -0.2282
14745SOL    HW145069   2.648   5.959   4.392  1.8586  0.0608  0.9125
14745SOL    HW245070   2.548   5.912   4.495  0.0339  1.9592  0.0681
14746SOL     OW45071   4.869   1.132   4.983  0.2590  0.3372  0.0259
14746SOL    HW145072   4.935   1.200   4.973  0.6812 -0.2535 -1.5458
14746SOL    HW245073   4.789   1.170   4.947 -0.3042  1.0555  1.9376
14747SOL     OW45074   1.682   4.851   3.702  0.0535  0.4747 -0.7634
14747SOL    HW145075   1.720   4.787   3.641 -1.2089  1.7496 -3.0305
14747SOL    HW245076   1.757   4.897   3.738  0.9509 -1.6888  0.3198
14748SOL     OW45077   4.119   0.574   4.564  0.4128  0.5477 -0.0567
14748SOL    HW145078   4.085   0.485   4.567  0.3590  0.5604 -0.2791
14748SOL    HW245079   4.042   0.629   4.573  0.4956  0.5723  0.5611
14749SOL     OW45080   0.208   6.175   3.465  0.0648 -0.0091 -0.0085
14749SOL    HW145081   0.226   6.098   3.519  1.6662  0.9303  0.8568
14749SOL    HW245082   0.185   6.139   3.379  0.1787 -1.4514  0.5452
14750SOL     OW45083   4.022   6.551   0.551  0.1545  0.1266  0.7044
14750SOL    HW145084   4.075   6.557   0.472  1.0351 -4.2428  0.7062
14750SOL    HW245085   4.083   6.567   0.623  0.6989 -1.4145  0.6049
14751SOL     OW45086   5.900   0.564   6.620 -0.2003 -0.8013  1.0590
14751SOL    HW145087   5.821   0.597   6.664 -0.8494 -0.0388 -0.6261
14751SOL    HW245088   5.932   0.637   6.568 -0.0909 -1.9852 -0.6062
14752SOL     OW45089   2.726   7.135   3.733 -0.6355 -0.9336 -0.0802
14752SOL    HW145090   2.791   7.176   3.791 -0.2901 -1.9292  0.2713
14752SOL    HW245091   2.666   7.206   3.710 -1.2374 -0.6368  2.1143
14753SOL     OW45092   6.269   3.422   6.694  0.1800 -0.6392  0.4037
14753SOL    HW145093   6.286   3.495   6.634 -1.0888 -0.3682  0.3644
14753SOL    HW245094   6.300   3.453   6.779  1.2145 -0.7128  0.0723
14754SOL     OW45095   3.982   1.102   5.587 -0.0818 -0.3844 -0.0145
14754SOL    HW145096   4.048   1.163   5.554  0.4882  0.5088  2.5226
14754SOL    HW245097   3.899   1.146   5.568  0.3042  1.0161  1.2791
14755SOL     OW45098   1.082   6.734   7.004 -0.1448  0.5813 -0.7185
14755SOL    HW145099   0.993   6.726   7.036  0.2426  0.8502  0.4469
14755SOL    HW245100   1.073   6.737   6.908 -1.1595 -2.3893 -0.7996
14756SOL     OW45101   0.542   2.214   2.709  0.6019 -0.4493  0.3074
14756SOL    HW145102   0.458   2.238   2.748  0.8860  1.1395  0.0065
14756SOL    HW245103   0.519   2.154   2.638 -0.1650 -0.9444  0.9581
14757SOL     OW45104   2.898   1.323   1.108 -0.4682  0.4322  0.4367
14757SOL    HW145105   2.945   1.316   1.191 -1.2145 -0.4464  0.8076
14757SOL    HW245106   2.824   1.263   1.118 -1.5268  1.5871 -0.2204
14758SOL     OW45107   0.187   3.112   4.215 -0.2521  0.0786  0.4844
14758SOL    HW145108   0.126   3.047   4.181  2.8797 -2.2555 -1.1645
14758SOL    HW245109   0.236   3.065   4.283  0.6364  1.4272  0.8128
14759SOL     OW45110   7.571   0.789   0.861  0.1589  0.6385 -0.1594
14759SOL    HW145111   7.543   0.790   0.769  1.8122  1.1702 -0.6848
14759SOL    HW245112   7.626   0.711   0.868 -1.7244 -0.6676  0.9867
14760SOL     OW45113   2.858   5.936   6.759 -0.2521  0.3241 -0.1647
14760SOL    HW145114   2.823   6.025   6.754 -0.8135  0.0923 -0.4812
14760SOL    HW245115   2.946   5.942   6.720 -0.5642  0.6032 -0.8420
14761SOL     OW45116   2.251   6.301   0.389  0.8708  0.5579 -0.3460
14761SOL    HW145117   2.326   6.309   0.447 -0.6945  1.3601  1.6622
14761SOL    HW245118   2.174   6.316   0.444 -0.8996 -1.3683 -2.0377
14762SOL     OW45119   3.282   5.041   3.219 -0.5492 -0.0964 -0.4391
14762SOL    HW145120   3.304   4.977   3.287  1.8024 -3.1413 -3.6623
14762SOL    HW245121   3.367   5.073   3.188 -1.5229  1.1881 -1.9087
14763SOL     OW45122   7.398   3.696   6.314  0.1198  0.4203 -0.2424
14763SOL    HW145123   7.395   3.605   6.343 -0.5861  0.3977 -0.3750
14763SOL    HW245124   7.416   3.690   6.220 -1.1308  0.3659 -0.4924
14764SOL     OW45125   7.593   7.086   6.155  0.1728 -0.0923 -0.0340
14764SOL    HW145126   7.549   7.152   6.102  1.2463  0.6394 -0.0296
14764SOL    HW245127   7.589   7.120   6.244  1.0900  0.1832 -0.0878
14765SOL     OW45128   0.124   6.808   7.094 -0.5203  0.3308 -0.1245
14765SOL    HW145129   0.061   6.739   7.074  2.2135 -2.6226  0.7509
14765SOL    HW245130   0.177   6.816   7.015 -0.3987  0.9781  0.0168
14766SOL     OW45131   5.250   3.649   5.809 -0.7391 -0.2401  0.1139
14766SOL    HW145132   5.258   3.577   5.746 -1.1143 -0.2160  0.0325
14766SOL    HW245133   5.222   3.724   5.756  1.7399  0.5562 -0.1766
14767SOL     OW45134   4.882   4.763   7.203  0.4752 -0.4002 -0.0794
14767SOL    HW145135   4.965   4.749   7.248 -0.0683 -2.0126  0.4554
14767SOL    HW245136   4.858   4.677   7.168 -1.0868 -0.0249 -0.0175
14768SOL     OW45137   0.063   6.279   7.741 -0.2559  0.2147 -0.2657
14768SOL    HW145138   0.103   6.315   7.662 -2.2474  0.7839 -1.0885
14768SOL    HW245139   0.115   6.202   7.761  0.0260 -0.2375 -2.4480
14769SOL     OW45140   1.107   3.314   3.649 -0.6345  0.8687  0.5104
14769SOL    HW145141   1.160   3.247   3.606 -0.1195  2.0874 -0.8228
14769SOL    HW245142   1.170   3.369   3.694 -0.9472  1.1532  0.6063
14770SOL     OW45143   6.464   4.710   2.356 -0.1846 -0.4001 -0.7525
14770SOL    HW145144   6.495   4.787   2.308  1.0028  0.6974  1.6006
14770SOL    HW245145   6.423   4.746   2.435 -1.6949 -2.1333 -0.6687
14771SOL     OW45146   4.547   4.944   7.607  0.6615  0.6884  0.0827
14771SOL    HW145147   4.577   4.894   7.531  0.0005 -1.6816  1.2554
14771SOL    HW245148   4.451   4.934   7.604  0.5838  1.2317  0.7952
14772SOL     OW45149   2.198   7.191   0.083  0.1037  0.2573 -0.2257
14772SOL    HW145150   2.151   7.109   0.071 -1.4268  1.1413 -0.5170
14772SOL    HW245151   2.289   7.169   0.065 -0.6152 -0.8263 -3.0108
14773SOL     OW45152   3.126   6.954   6.058 -0.0110 -0.4338 -0.1340
14773SOL    HW145153   3.190   6.885   6.079  2.2831  1.2307 -1.2061
14773SOL    HW245154   3.108   6.996   6.141  1.1328 -0.2663  0.0412
14774SOL     OW45155   2.935   6.114   6.418 -0.0865 -0.3920 -0.1546
14774SOL    HW145156   2.857   6.170   6.412 -0.3059 -0.7373 -0.5713
14774SOL    HW245157   2.911   6.047   6.481 -0.6526 -1.3164 -1.3183
14775SOL     OW45158   6.308   2.265   3.699 -0.8767 -0.3784 -0.6686
14775SOL    HW145159   6.310   2.193   3.762 -1.6100  0.1527 -0.0067
14775SOL    HW245160   6.222   2.257   3.657 -1.7120  1.0710  0.6248
14776SOL     OW45161   1.761   4.735   4.585  0.0634 -0.4144 -0.0235
14776SOL    HW145162   1.754   4.741   4.680  2.5423 -1.2290  0.2604
14776SOL    HW245163   1.784   4.823   4.557 -1.5522  0.0458 -0.0129
14777SOL     OW45164   2.561   2.669   2.394  0.4215  0.3232 -0.0560
14777SOL    HW145165   2.590   2.580   2.378 -0.9734  0.2462 -2.5233
14777SOL    HW245166   2.642   2.721   2.390  1.0462 -0.6321 -0.1844
14778SOL     OW45167   3.014   1.400   5.448  0.4691 -0.2958 -0.6384
14778SOL    HW145168   3.044   1.373   5.535 -0.2935 -1.7983 -0.7996
14778SOL    HW245169   3.057   1.483   5.432  3.2510 -1.5411 -0.1833
14779SOL     OW45170   5.319   5.283   0.558 -0.4777 -0.0218  0.1142
14779SOL    HW145171   5.344   5.240   0.476  0.8012 -0.7010  0.8417
14779SOL    HW245172   5.248   5.230   0.593  0.3546 -0.9301  0.4566
14780SOL     OW45173   0.766   6.945   1.592 -0.3107  0.0371  0.2304
14780SOL    HW145174   0.685   6.928   1.545 -1.9943  2.5789  1.9799
14780SOL    HW245175   0.765   6.884   1.665 -0.9675  0.4993  0.6065
14781SOL     OW45176   1.568   0.018   5.877 -0.2286 -0.0119 -0.2390
14781SOL    HW145177   1.533  -0.023   5.798 -1.2522 -0.1331  0.2588
14781SOL    HW245178   1.656   0.047   5.852 -0.1626 -0.9126 -1.1256
14782SOL     OW45179   3.313   1.214   0.731 -1.0220  0.0666 -0.0618
14782SOL    HW145180   3.399   1.231   0.769 -1.4421  0.6594  0.6380
14782SOL    HW245181   3.325   1.228   0.637  0.1268 -1.8099 -0.2531
14783SOL     OW45182   1.316   0.303   2.263  0.6890 -0.0229  0.0475
14783SOL    HW145183   1.251   0.330   2.328  0.3298  0.1928 -0.3881
14783SOL    HW245184   1.375   0.378   2.255  0.1708  0.3377 -0.5639
14784SOL     OW45185   3.754   4.132   2.901  0.3863  0.5663  0.4908
14784SOL    HW145186   3.729   4.129   2.993  0.5929  0.3738  0.5423
14784SOL    HW245187   3.697   4.199   2.862 -2.1581 -1.7393 -0.0283
14785SOL     OW45188   3.144   7.562   2.360  0.4461 -0.5427 -0.3247
14785SOL    HW145189   3.198   7.602   2.292 -0.5819 -1.7859 -1.9441
14785SOL    HW245190   3.148   7.623   2.433  2.8988  0.0743 -0.8752
14786SOL     OW45191   4.756   4.721   4.372 -0.3177  0.3022 -0.4556
14786SOL    HW145192   4.752   4.799   4.318  1.2992 -1.0430 -2.7050
14786SOL    HW245193   4.847   4.691   4.364 -0.7787 -1.5761  0.6563
14787SOL     OW45194   3.493   2.658   5.639 -0.2628 -0.0940  1.2043
14787SOL    HW145195   3.577   2.618   5.661  0.1805 -0.0212 -0.2179
14787SOL    HW245196   3.431   2.586   5.636 -0.5277 -0.0193  3.3218
14788SOL     OW45197   1.038   6.678   0.972  0.4529 -0.4811 -0.0932
14788SOL    HW145198   1.017   6.746   0.907  1.6454  1.3955  1.3706
14788SOL    HW245199   1.046   6.598   0.920 -1.7046  0.2969 -1.8122
14789SOL     OW45200   4.673   0.374   6.292 -0.0841 -0.1239  0.6963
14789SOL    HW145201   4.691   0.446   6.230  0.5656 -2.1119 -1.5625
14789SOL    HW245202   4.759   0.352   6.327 -0.0093 -0.9510  0.0122
14790SOL     OW45203   2.562   4.540   5.507  0.1646 -0.5970 -0.3530
14790SOL    HW145204   2.472   4.527   5.540 -0.1722  2.6826  0.3247
14790SOL    HW245205   2.552   4.543   5.412 -0.1093 -1.9750 -0.4007
14791SOL     OW45206   6.095   5.091   6.543  0.2861 -0.4097 -0.3291
14791SOL    HW145207   6.165   5.053   6.490  0.9994  1.0123 -0.4426
14791SOL    HW245208   6.077   5.025   6.610 -1.4203 -2.8089 -2.8918
14792SOL     OW45209   7.371   2.236   3.080 -0.2844  0.0340 -0.2778
14792SOL    HW145210   7.367   2.182   3.001  1.0207 -1.3553  0.5417
14792SOL    HW245211   7.450   2.288   3.070 -0.2114 -0.0157  0.0205
14793SOL     OW45212   7.184   1.312   3.937 -0.0627  0.3628  0.6371
14793SOL    HW145213   7.104   1.362   3.920  0.4619  0.3494 -2.4267
14793SOL    HW245214   7.254   1.377   3.938  0.3939 -0.0148 -1.4978
14794SOL     OW45215   6.040   2.178   3.625  0.2469 -0.0959 -0.5459
14794SOL    HW145216   6.028   2.084   3.611  0.6403 -0.5170  1.5890
14794SOL    HW245217   6.049   2.215   3.537 -0.5235 -1.9609 -1.4459
14795SOL     OW45218   3.325   5.192   5.515 -0.1788  0.0164 -0.0875
14795SOL    HW145219   3.407   5.161   5.477 -0.2546  0.2786 -0.4711
14795SOL    HW245220   3.302   5.126   5.580  0.7754  0.3669  0.6282
14796SOL     OW45221   3.337   2.798   4.862 -0.4664  0.3916  0.2547
14796SOL    HW145222   3.321   2.828   4.773 -0.1365  0.0973  0.0960
14796SOL    HW245223   3.329   2.878   4.915  0.1065  0.7130 -0.1309
14797SOL     OW45224   3.149   5.754   1.297 -0.4014  0.1247 -0.1217
14797SOL    HW145225   3.063   5.717   1.281 -0.7133  0.5931  0.4296
14797SOL    HW245226   3.131   5.839   1.338  0.2887  0.7980 -1.1751
14798SOL     OW45227   2.669   4.687   3.980 -0.0083 -0.5254  0.5931
14798SOL    HW145228   2.608   4.760   3.968  0.4646  0.0704  1.6860
14798SOL    HW245229   2.733   4.719   4.043  1.1851 -1.3027 -0.1757
14799SOL     OW45230   1.297   6.426   4.536 -0.8729 -0.0587 -0.0789
14799SOL    HW145231   1.243   6.421   4.457  0.3187 -0.7055 -0.8745
14799SOL    HW245232   1.380   6.385   4.512 -0.3250  0.1163  1.3848
14800SOL     OW45233   0.664   2.989   4.214 -0.1270 -0.0550 -0.6845
14800SOL    HW145234   0.745   3.000   4.264 -0.5789 -1.0638  0.2954
14800SOL    HW245235   0.633   3.079   4.199  0.2958  0.2814  0.3889
14801SOL     OW45236   5.512   5.581   1.284 -1.2050 -0.3408 -0.6325
14801SOL    HW145237   5.558   5.512   1.235 -1.0351  0.0572 -1.0403
14801SOL    HW245238   5.554   5.582   1.370  0.4717  0.9215 -1.4263
14802SOL     OW45239   4.835   2.346   4.918 -0.3097  0.3156 -0.5875
14802SOL    HW145240   4.870   2.278   4.862  1.7337  0.4047  0.5014
14802SOL    HW245241   4.795   2.409   4.858  0.6753 -0.2158 -1.8360
14803SOL     OW45242   3.959   4.883   2.076  0.0226 -0.4013 -0.2226
14803SOL    HW145243   3.960   4.909   2.168 -2.1351  0.1380 -0.2988
14803SOL    HW245244   3.975   4.964   2.028 -1.6281 -0.1091 -0.3434
14804SOL     OW45245   1.385   0.309   7.721 -0.1450  0.0475  0.3075
14804SOL    HW145246   1.290   0.311   7.737 -0.2146 -0.1158 -0.0633
14804SOL    HW245247   1.393   0.267   7.635  0.3374 -1.2036  0.9406
14805SOL     OW45248   1.058   1.824   6.944  0.0945 -0.3371 -0.0435
14805SOL    HW145249   1.061   1.901   7.000 -1.0096 -1.4820  1.6892
14805SOL    HW245250   1.124   1.840   6.877  0.2182  1.8802  0.5487
14806SOL     OW45251   2.983   5.647   5.983  0.3254 -0.1864 -0.0891
14806SOL    HW145252   3.011   5.714   5.920  0.6965 -0.6996 -0.4850
14806SOL    HW245253   3.004   5.684   6.069  1.5559 -0.2508 -0.3474
14807SOL     OW45254   4.734   5.888   2.091  0.2841  0.5882 -0.6600
14807SOL    HW145255   4.669   5.907   2.158  2.0051  0.3709  1.1939
14807SOL    HW245256   4.691   5.907   2.008 -1.8749  1.0746  0.5181
14808SOL     OW45257   2.897   7.493   4.960 -0.3090  0.5473  0.7140
14808SOL    HW145258   2.922   7.570   5.011  0.4367  1.7079 -1.2767
14808SOL    HW245259   2.802   7.503   4.949 -0.6415 -0.2079  2.5579
14809SOL     OW45260   3.487   5.387   6.364 -0.3912 -0.0396  0.0854
14809SOL    HW145261   3.535   5.347   6.292 -3.0902 -0.5430 -1.5328
14809SOL    HW245262   3.489   5.481   6.345 -0.0279 -0.0497  0.0643
14810SOL     OW45263   7.562   0.202   2.160  0.0471  0.4128  0.2312
14810SOL    HW145264   7.483   0.163   2.121  0.3864  0.1808 -0.2373
14810SOL    HW245265   7.532   0.240   2.242 -0.6024  0.5314 -0.0535
14811SOL     OW45266   3.274   5.154   7.432 -0.1013 -0.6664  0.5447
14811SOL    HW145267   3.344   5.095   7.459  2.0992  2.5298  2.4747
14811SOL    HW245268   3.297   5.179   7.343  1.7423  0.8584  1.3765
14812SOL     OW45269   7.407   7.319   5.189 -0.3564  0.1065  0.2066
14812SOL    HW145270   7.418   7.282   5.276  2.0256  0.5714  0.1875
14812SOL    HW245271   7.384   7.411   5.205 -2.9793 -0.4850  0.2632
14813SOL     OW45272   2.633   7.171   3.001 -0.1700 -0.2526 -0.1926
14813SOL    HW145273   2.615   7.078   2.985 -1.5132 -0.2436  1.0896
14813SOL    HW245274   2.725   7.182   2.978  0.6427 -2.4159  1.7425
14814SOL     OW45275   3.477   7.209   5.103  0.0901  0.0573  0.2857
14814SOL    HW145276   3.449   7.137   5.046  0.5101  0.8342 -0.9459
14814SOL    HW245277   3.498   7.281   5.042  0.2519  1.0228  1.4456
14815SOL     OW45278   7.340   3.711   3.258 -0.0930  0.2182 -0.1968
14815SOL    HW145279   7.377   3.790   3.219 -2.0082  0.8340 -0.8935
14815SOL    HW245280   7.265   3.742   3.309 -1.2035 -1.1576 -0.9007
14816SOL     OW45281   4.198   7.154   3.087 -0.2444 -0.0529 -0.3002
14816SOL    HW145282   4.208   7.063   3.116  1.3494  0.6120  1.4624
14816SOL    HW245283   4.280   7.174   3.041 -0.6080  0.4854 -0.7347
14817SOL     OW45284   2.761   5.515   5.896  0.0499  0.6739  0.6696
14817SOL    HW145285   2.825   5.578   5.927 -0.0217  0.4017  1.3891
14817SOL    HW245286   2.728   5.552   5.814  0.6729  1.1105  0.6102
14818SOL     OW45287   7.534   6.406   4.341  0.1886  0.2208  0.3178
14818SOL    HW145288   7.622   6.372   4.324 -0.5478 -1.3650 -0.5481
14818SOL    HW245289   7.510   6.371   4.426 -0.5748 -1.5479 -0.5793
14819SOL     OW45290   3.234   5.956   4.768  0.1467  0.4146  0.8542
14819SOL    HW145291   3.216   5.863   4.782 -2.7497  0.9305  1.1159
14819SOL    HW245292   3.257   5.989   4.855  0.6334  0.0669  0.8639
14820SOL     OW45293   5.145   0.665   3.477  0.4057  0.0320 -0.0964
14820SOL    HW145294   5.110   0.661   3.388 -0.0385  0.7161  0.0394
14820SOL    HW245295   5.226   0.716   3.468 -0.4711  1.5226  0.1221
14821SOL     OW45296   6.166   4.509   0.045 -0.2035  0.2251 -0.2776
14821SOL    HW145297   6.239   4.570   0.031  0.8574 -1.0388 -0.4737
14821SOL    HW245298   6.088   4.559   0.020  0.5843  1.6225 -0.0490
14822SOL     OW45299   5.401   1.707   3.487  0.1961 -0.3889 -0.0276
14822SOL    HW145300   5.329   1.725   3.548 -0.2378  0.0402 -0.6577
14822SOL    HW245301   5.439   1.792   3.468  0.8051 -0.6005  0.2048
14823SOL     OW45302   1.855   5.558   1.549 -0.2913 -0.4381  0.1181
14823SOL    HW145303   1.815   5.630   1.598 -0.2622 -0.4712  0.1896
14823SOL    HW245304   1.941   5.592   1.523 -0.5194 -0.2154 -0.3827
14824SOL     OW45305   7.694   3.878   0.976  0.9294 -0.2950 -0.6866
14824SOL    HW145306   7.652   3.950   1.024  0.3982  0.2115 -1.8617
14824SOL    HW245307   7.627   3.809   0.974  1.1384 -0.5125 -0.2676
14825SOL     OW45308   7.671   2.846   1.459 -0.4078  0.4420 -0.1617
14825SOL    HW145309   7.749   2.790   1.459 -1.5976 -1.2887 -0.3077
14825SOL    HW245310   7.680   2.899   1.379  0.3622 -0.0973 -0.4448
14826SOL     OW45311   6.456   3.434   7.943 -0.2338 -0.2802  0.3038
14826SOL    HW145312   6.372   3.394   7.965 -0.1852 -0.3205  0.4183
14826SOL    HW245313   6.435   3.523   7.917 -0.4394 -0.6036 -0.7221
14827SOL     OW45314   4.934   5.125   6.983 -0.0511 -1.2266  0.6589
14827SOL    HW145315   4.955   5.119   6.889 -0.5649  0.8254  0.3725
14827SOL    HW245316   4.866   5.059   6.996 -0.8276 -0.7334 -0.6891
14828SOL     OW45317   4.762   5.283   0.203  0.1061 -0.0570 -0.6486
14828SOL    HW145318   4.804   5.254   0.283 -2.6089 -0.4061  0.7799
14828SOL    HW245319   4.746   5.202   0.153  1.3496  0.1086 -1.3467
14829SOL     OW45320   6.667   4.258   1.147  0.2539 -0.2103  0.2870
14829SOL    HW145321   6.716   4.320   1.201 -1.4954  0.1603  1.5430
14829SOL    HW245322   6.604   4.219   1.208 -2.5959  1.0550 -1.6903
14830SOL     OW45323   1.395   2.837   6.035  0.0848 -0.8316 -0.7906
14830SOL    HW145324   1.392   2.913   5.976  0.9987 -0.3539 -0.2302
14830SOL    HW245325   1.462   2.780   5.998  2.4295  0.5741  1.0491
14831SOL     OW45326   0.659   5.957   6.388  0.5703 -0.7164  0.1984
14831SOL    HW145327   0.655   6.017   6.314  1.3801 -0.8253  0.0577
14831SOL    HW245328   0.685   6.012   6.462  0.2329 -0.6941  0.3010
14832SOL     OW45329   0.701   5.749   0.541 -0.1401  0.1881 -0.2389
14832SOL    HW145330   0.697   5.708   0.454 -2.5041  0.7301 -0.4505
14832SOL    HW245331   0.716   5.842   0.523 -0.6675  0.3067 -0.1022
14833SOL     OW45332   3.303   6.755   2.724 -0.1504  0.2661 -0.4186
14833SOL    HW145333   3.366   6.750   2.796 -0.9802 -0.9553  0.2505
14833SOL    HW245334   3.232   6.809   2.758  0.6416  1.9369 -1.2950
14834SOL     OW45335   2.954   1.113   4.514  0.8049  0.3749  0.1161
14834SOL    HW145336   2.959   1.019   4.494 -1.2319 -0.2363  2.0804
14834SOL    HW245337   2.871   1.141   4.476  0.4367  0.8798  1.2531
14835SOL     OW45338   5.285   3.335   1.115  0.1072  0.3283  0.1007
14835SOL    HW145339   5.251   3.248   1.135 -1.8731  0.3385 -2.7119
14835SOL    HW245340   5.225   3.395   1.159  0.3033  0.3227  0.3841
14836SOL     OW45341   3.439   4.937   7.411  0.2824 -0.5526  0.0841
14836SOL    HW145342   3.517   4.966   7.363  0.2873 -0.7191 -0.0081
14836SOL    HW245343   3.473   4.877   7.477  0.3558  0.1893  0.7419
14837SOL     OW45344   6.856   3.943   4.935  0.0042 -0.5169 -0.4561
14837SOL    HW145345   6.791   3.897   4.989  0.6575  0.3628  1.1371
14837SOL    HW245346   6.924   3.877   4.919  0.8074 -0.2770  1.5908
14838SOL     OW45347   2.143   0.718   2.296 -0.1338 -0.0270 -0.0796
14838SOL    HW145348   2.056   0.731   2.334  0.0411 -0.5681  0.5361
14838SOL    HW245349   2.197   0.690   2.370  0.0204 -1.9723 -0.8659
14839SOL     OW45350   1.994   5.044   1.876  0.0692  0.2884 -0.1269
14839SOL    HW145351   1.903   5.019   1.895 -0.6263  2.1424 -0.7580
14839SOL    HW245352   2.030   5.069   1.961 -0.8681  2.0330 -0.2010
14840SOL     OW45353   0.231   5.456   6.336  0.4227 -0.6798 -0.0907
14840SOL    HW145354   0.156   5.430   6.282  1.2048 -1.5029 -0.8180
14840SOL    HW245355   0.298   5.482   6.273  0.8099 -0.1012  0.5474
14841SOL     OW45356   7.933   5.404   7.685 -0.4447  0.2102  0.2214
14841SOL    HW145357   7.870   5.390   7.614  1.4205 -0.3684 -1.3912
14841SOL    HW245358   7.937   5.499   7.695 -1.2440  0.2708  0.0693
14842SOL     OW45359   7.031   0.939   5.771 -0.1212 -0.9356  0.2903
14842SOL    HW145360   7.006   1.029   5.789  0.1622 -0.9354  0.7111
14842SOL    HW245361   7.126   0.941   5.761 -0.0668 -1.2475  0.7060
14843SOL     OW45362   3.259   2.072   7.884  0.7092 -0.5546  0.0531
14843SOL    HW145363   3.247   1.978   7.893 -0.5845 -0.3918  0.2612
14843SOL    HW245364   3.203   2.110   7.952  0.3972  0.3858 -0.6990
14844SOL     OW45365   1.115   6.303   5.183  0.9373 -0.0226  0.2301
14844SOL    HW145366   1.038   6.262   5.142  0.4788  0.4751  0.5883
14844SOL    HW245367   1.153   6.356   5.113  0.6132  0.1978  0.2197
14845SOL     OW45368   5.132   6.702   7.909 -0.0671  0.3494 -0.4620
14845SOL    HW145369   5.196   6.650   7.861  1.3082 -0.6763  2.2676
14845SOL    HW245370   5.049   6.658   7.896  0.8338 -1.8184  0.6464
14846SOL     OW45371   4.340   2.039   3.973 -0.0494 -0.4921  0.1164
14846SOL    HW145372   4.363   2.106   4.038 -0.0854 -0.5980  0.2389
14846SOL    HW245373   4.326   1.960   4.024  0.2049 -0.6474 -0.0506
14847SOL     OW45374   7.173   7.507   1.484  0.7659 -0.4845 -0.1997
14847SOL    HW145375   7.102   7.550   1.532  0.8438  0.8283 -1.1991
14847SOL    HW245376   7.138   7.420   1.463 -0.3874 -0.0270 -0.2711
14848SOL     OW45377   3.114   6.952   4.314 -0.9222  0.2768 -0.1792
14848SOL    HW145378   3.114   6.906   4.397 -1.4285 -1.5126 -1.1301
14848SOL    HW245379   3.206   6.962   4.291 -0.7251  1.7956  1.0791
14849SOL     OW45380   3.002   0.108   0.688 -0.2912  0.5114 -0.1394
14849SOL    HW145381   2.919   0.069   0.714 -0.8619  1.1470 -0.9529
14849SOL    HW245382   3.063   0.035   0.682 -0.7908  0.0406  0.4568
14850SOL     OW45383   2.735   1.457   5.452 -0.0873  0.0223 -0.0050
14850SOL    HW145384   2.827   1.444   5.431  0.0569  3.1571 -1.8165
14850SOL    HW245385   2.693   1.376   5.423  1.6097  0.0234 -2.8463
14851SOL     OW45386   2.874   7.477   2.694 -0.6207  0.7133  0.2071
14851SOL    HW145387   2.910   7.543   2.754  0.0054  1.3238 -0.8144
14851SOL    HW245388   2.783   7.467   2.723 -0.6327  1.7790  0.6125
14852SOL     OW45389   4.075   5.802   6.645  0.0193  0.0609 -0.2328
14852SOL    HW145390   4.158   5.794   6.692 -0.0991  0.2212  0.0088
14852SOL    HW245391   4.067   5.895   6.625 -1.4508  0.5661  2.2823
14853SOL     OW45392   0.152   7.047   2.446  0.0028 -0.5020 -0.3275
14853SOL    HW145393   0.139   7.106   2.521  1.3013  0.0208 -0.4793
14853SOL    HW245394   0.079   7.066   2.388 -0.8369 -0.6719  0.6590
14854SOL     OW45395   1.464   4.752   4.747 -0.0373  0.7579  0.0968
14854SOL    HW145396   1.555   4.762   4.777 -0.5714  1.5209  1.5782
14854SOL    HW245397   1.452   4.823   4.684  0.5371  0.3241 -0.5156
14855SOL     OW45398   1.916   6.950   7.392 -0.2842  0.1711  0.1556
14855SOL    HW145399   1.969   7.029   7.408  0.7954 -0.7071  1.1384
14855SOL    HW245400   1.857   6.946   7.467 -0.6575  0.2779 -0.1289
14856SOL     OW45401   5.841   0.697   7.633  0.1953 -0.3875 -0.3221
14856SOL    HW145402   5.824   0.708   7.726  1.7797 -2.7866  0.3461
14856SOL    HW245403   5.876   0.781   7.604 -4.2337  1.8693  0.1428
14857SOL     OW45404   2.792   6.368   1.052  0.1527  0.1436  0.4423
14857SOL    HW145405   2.810   6.437   0.988 -0.2407  0.1920  0.3795
14857SOL    HW245406   2.703   6.387   1.082  0.1790 -0.1277  0.6918
14858SOL     OW45407   7.214   6.072   2.903 -0.4086 -0.3774 -0.0601
14858SOL    HW145408   7.303   6.091   2.873  0.1562 -1.9692  0.5071
14858SOL    HW245409   7.185   6.153   2.944  1.1728 -0.1273  0.6325
14859SOL     OW45410   1.255   0.309   4.932 -0.1110 -0.4686  0.0873
14859SOL    HW145411   1.196   0.286   4.861  0.5597 -0.6258 -0.4287
14859SOL    HW245412   1.198   0.338   5.003 -0.8387 -1.3363 -0.1332
14860SOL     OW45413   7.143   1.305   0.382  0.1252  0.0366  0.3301
14860SOL    HW145414   7.234   1.334   0.373 -0.0219  0.6213  0.6723
14860SOL    HW245415   7.149   1.217   0.420  0.5176  0.5496  1.5096
14861SOL     OW45416   7.398   1.365   0.268 -0.1739  0.4096  0.1805
14861SOL    HW145417   7.343   1.299   0.226  0.2107 -0.7724  1.4493
14861SOL    HW245418   7.469   1.380   0.205  0.5815 -1.5815  0.4722
14862SOL     OW45419   3.753   6.686   5.359 -0.1664  0.4488  0.1874
14862SOL    HW145420   3.806   6.716   5.434  0.9008  0.5623 -0.5913
14862SOL    HW245421   3.665   6.678   5.395  0.0777  1.6877  1.1709
14863SOL     OW45422   4.364   4.918   4.046 -0.1725 -0.0911  0.3560
14863SOL    HW145423   4.298   4.973   4.088 -1.6332 -1.7208  0.3301
14863SOL    HW245424   4.345   4.830   4.078  2.1058 -0.6093  0.4208
14864SOL     OW45425   3.565   3.303   5.123 -0.0226 -0.5150 -0.6079
14864SOL    HW145426   3.571   3.230   5.062  1.8614 -0.3957 -0.6097
14864SOL    HW245427   3.530   3.265   5.203  1.4108 -1.5467 -0.4451
14865SOL     OW45428   4.166   0.595   0.261  0.2163  0.4659  0.3382
14865SOL    HW145429   4.223   0.550   0.323  0.3743  1.2127  0.7429
14865SOL    HW245430   4.215   0.593   0.178 -1.1164 -2.8887 -0.5226
14866SOL     OW45431   4.433   2.736   3.444  0.3304 -0.4724 -0.2312
14866SOL    HW145432   4.383   2.740   3.525  0.5154 -0.1819 -0.1335
14866SOL    HW245433   4.462   2.645   3.438  2.1779 -0.0337  1.1476
14867SOL     OW45434   4.565   2.738   1.375 -0.1467 -0.2228  0.1686
14867SOL    HW145435   4.633   2.682   1.412 -0.2423 -0.2996  0.2315
14867SOL    HW245436   4.590   2.826   1.400  0.6864 -0.1096 -1.0191
14868SOL     OW45437   0.935   3.013   0.217 -0.0454  0.4292  0.3357
14868SOL    HW145438   0.938   2.941   0.155 -1.2026 -0.4407  1.2554
14868SOL    HW245439   0.913   3.090   0.164  1.5588  0.2140 -0.7053
14869SOL     OW45440   7.844   6.227   6.009 -0.2982 -0.1975 -0.0169
14869SOL    HW145441   7.864   6.297   5.947 -0.6255 -0.2338 -0.1684
14869SOL    HW245442   7.820   6.272   6.090 -0.2973 -0.1380 -0.0494
14870SOL     OW45443   1.287   4.488   1.220 -0.1149  0.1210  0.3270
14870SOL    HW145444   1.227   4.553   1.256 -0.0700  0.7014 -0.6167
14870SOL    HW245445   1.284   4.416   1.282 -2.3978 -0.2088 -0.1107
14871SOL     OW45446   3.137   6.967   0.985 -0.9605  0.1803  0.4475
14871SOL    HW145447   3.120   7.016   0.905  1.2637 -1.2316 -1.0062
14871SOL    HW245448   3.116   7.028   1.055 -0.4446  2.4268 -1.2318
14872SOL     OW45449   0.309   3.027   6.557  0.1775 -0.5446 -0.2658
14872SOL    HW145450   0.279   3.116   6.540 -0.7342 -0.7911 -0.0095
14872SOL    HW245451   0.279   2.977   6.481 -0.2498 -0.8334  0.0863
14873SOL     OW45452   6.587   2.371   1.581 -0.9049 -0.0798 -0.2433
14873SOL    HW145453   6.578   2.320   1.501 -0.0703  0.3942 -0.6500
14873SOL    HW245454   6.583   2.307   1.652  2.5970 -1.1143 -0.7927
14874SOL     OW45455   0.752   2.557   4.877  0.2405 -0.7301  1.1522
14874SOL    HW145456   0.673   2.555   4.823  0.2655  0.9778  0.9879
14874SOL    HW245457   0.811   2.494   4.835 -0.5454 -1.0246  0.4655
14875SOL     OW45458   2.664   0.874   0.963 -0.0342 -0.4365  0.1309
14875SOL    HW145459   2.662   0.787   1.002  0.4488 -0.9184 -0.8722
14875SOL    HW245460   2.745   0.876   0.912  1.0245  1.3395  1.7443
14876SOL     OW45461   4.660   1.874   6.932  0.6351  0.5763  0.1582
14876SOL    HW145462   4.702   1.924   6.862 -0.9220  2.9356  0.8059
14876SOL    HW245463   4.699   1.907   7.012 -1.3859  1.8642  0.6818
14877SOL     OW45464   4.661   6.922   5.360  0.0661  0.0177 -0.1459
14877SOL    HW145465   4.692   6.915   5.270 -0.1471 -0.2183 -0.2047
14877SOL    HW245466   4.573   6.883   5.358  0.5259 -1.1076  0.4036
14878SOL     OW45467   0.590   1.993   5.051  0.6263 -0.1754 -0.0377
14878SOL    HW145468   0.525   1.987   4.981  1.3088  0.2831 -0.7276
14878SOL    HW245469   0.672   2.012   5.006  1.2782 -0.9005  0.8074
14879SOL     OW45470   2.143   4.441   5.963  0.0557 -0.1441  0.4677
14879SOL    HW145471   2.184   4.487   6.037  1.0908  0.8497 -0.6731
14879SOL    HW245472   2.100   4.511   5.913 -0.4558 -0.7762  0.0134
14880SOL     OW45473   7.883   2.755   6.735 -0.3306 -0.2909  0.4118
14880SOL    HW145474   7.812   2.795   6.785 -0.2851 -0.9756  1.0496
14880SOL    HW245475   7.961   2.773   6.787  0.8087  4.2303 -2.3047
14881SOL     OW45476   7.113   6.004   1.595  0.2098 -0.2325  0.2428
14881SOL    HW145477   7.057   5.976   1.522 -1.7895 -0.0562  1.6319
14881SOL    HW245478   7.096   5.941   1.664 -0.2496  1.2795  1.5722
14882SOL     OW45479   1.693   3.137   0.320  0.1853  0.1157 -0.5228
14882SOL    HW145480   1.643   3.103   0.393  1.8168 -0.7246  0.2605
14882SOL    HW245481   1.760   3.193   0.360  0.7311  0.1191 -1.4001
14883SOL     OW45482   6.743   6.561   6.051 -0.2425  0.1353 -0.6661
14883SOL    HW145483   6.738   6.475   6.094  0.2851  1.5292  2.4557
14883SOL    HW245484   6.652   6.581   6.030 -0.2845 -1.5350 -2.3473
14884SOL     OW45485   0.852   5.932   6.041  0.1267 -0.2678 -0.1858
14884SOL    HW145486   0.866   5.961   5.951 -3.0038  0.1494 -0.6772
14884SOL    HW245487   0.757   5.921   6.048  0.5309 -4.8568  1.7382
14885SOL     OW45488   5.694   5.786   3.977  0.3617 -0.5035  0.3692
14885SOL    HW145489   5.674   5.716   3.916  0.1860  0.2581 -0.4725
14885SOL    HW245490   5.785   5.810   3.957  0.4818 -0.6109  0.7763
14886SOL     OW45491   6.929   4.794   6.688  0.0551 -0.0259 -0.1605
14886SOL    HW145492   6.951   4.858   6.755 -0.6686  0.0817 -0.0220
14886SOL    HW245493   6.976   4.823   6.610  1.0828 -0.2807  0.3543
14887SOL     OW45494   6.048   6.240   4.999 -0.1250  1.0196  0.2104
14887SOL    HW145495   6.141   6.243   4.978  0.2618 -1.1701  1.2799
14887SOL    HW245496   6.012   6.319   4.960  2.2824  2.2683  0.3219
14888SOL     OW45497   1.617   4.517   4.179 -0.1003  0.1080  0.1137
14888SOL    HW145498   1.628   4.516   4.274 -0.1825 -0.0563  0.1217
14888SOL    HW245499   1.692   4.469   4.145  0.5875  1.2051  0.0247
14889SOL     OW45500   0.258   2.865   2.869  0.2198  0.1367 -0.3982
14889SOL    HW145501   0.308   2.824   2.939 -1.4452 -1.9774 -0.3471
14889SOL    HW245502   0.314   2.936   2.837  1.7546  0.0263  1.8586
14890SOL     OW45503   0.851   1.335   7.901 -0.0782 -0.1837  0.2117
14890SOL    HW145504   0.827   1.424   7.879  0.3386 -0.1006  0.0879
14890SOL    HW245505   0.935   1.321   7.858 -0.0017 -0.5384  0.4697
14891SOL     OW45506   5.550   6.323   2.376  0.1493 -0.5545  0.2641
14891SOL    HW145507   5.624   6.381   2.359  1.2101 -1.8344  0.4340
14891SOL    HW245508   5.497   6.372   2.439  0.7191  0.4701 -0.0213
14892SOL     OW45509   7.045   7.416   5.336  0.0334  0.4649  0.1554
14892SOL    HW145510   7.133   7.453   5.326  0.4902  0.0943  2.3378
14892SOL    HW245511   6.998   7.445   5.258  1.6288  1.9831 -0.3106
14893SOL     OW45512   4.201   5.392   1.184  0.0429  1.0643  0.0405
14893SOL    HW145513   4.270   5.440   1.137  0.4592 -0.0396 -0.5051
14893SOL    HW245514   4.245   5.314   1.217 -1.4634 -1.0033 -2.5273
14894SOL     OW45515   7.843   7.446   0.345  0.0142  0.4627 -0.6411
14894SOL    HW145516   7.938   7.436   0.351 -0.1376 -2.0163 -1.2407
14894SOL    HW245517   7.814   7.454   0.436  0.7066  0.2687 -0.3987
14895SOL     OW45518   5.912   3.269   6.746 -0.2294  0.0279 -0.3195
14895SOL    HW145519   5.866   3.336   6.695 -0.8211 -0.6729 -0.7354
14895SOL    HW245520   5.879   3.186   6.711 -0.2063 -0.4790  0.8110
14896SOL     OW45521   1.329   2.832   5.632  0.4459 -0.1144  0.1449
14896SOL    HW145522   1.373   2.750   5.657  1.6896  1.1593  2.4311
14896SOL    HW245523   1.262   2.845   5.699 -0.0031  0.5944 -0.4175
14897SOL     OW45524   0.961   2.733   4.358 -0.1335  0.4384 -0.7216
14897SOL    HW145525   0.876   2.717   4.399  0.6544  2.1660  1.8620
14897SOL    HW245526   0.956   2.824   4.327  0.5096  0.2926 -1.2782
14898SOL     OW45527   4.089   3.585   6.220 -0.1101 -0.0856 -0.8187
14898SOL    HW145528   4.009   3.582   6.272  0.6478 -0.5857  0.3658
14898SOL    HW245529   4.132   3.667   6.247  0.8127 -0.8704  0.2015
14899SOL     OW45530   7.525   0.652   5.442  0.6393 -0.0849 -0.7809
14899SOL    HW145531   7.482   0.572   5.473  0.6331 -0.0313 -0.6549
14899SOL    HW245532   7.551   0.698   5.521 -2.8227  2.0103 -0.6716
14900SOL     OW45533   7.620   0.929   6.609 -0.4340  0.3211  0.6060
14900SOL    HW145534   7.626   1.024   6.599  0.6093  0.2568  0.5911
14900SOL    HW245535   7.707   0.902   6.636 -0.9832 -0.5181  1.6267
14901SOL     OW45536   3.946   0.067   4.443  0.6669  0.0456  0.4350
14901SOL    HW145537   4.011   0.062   4.373  0.7069  0.4172  0.4441
14901SOL    HW245538   3.956  -0.016   4.491 -0.1742 -0.7662 -0.7143
14902SOL     OW45539   3.811   2.792   6.771  0.7372  0.1223 -0.8950
14902SOL    HW145540   3.788   2.787   6.678  0.1331 -0.6834 -0.7141
14902SOL    HW245541   3.727   2.802   6.816  1.0313  0.5660 -0.4304
14903SOL     OW45542   0.709   3.650   5.474  0.2471 -0.3161  0.8364
14903SOL    HW145543   0.704   3.558   5.448  1.0664 -0.1446 -0.0303
14903SOL    HW245544   0.765   3.690   5.407  0.8905  0.5650  1.8619
14904SOL     OW45545   3.838   2.852   5.604  0.0095 -0.0781  0.1752
14904SOL    HW145546   3.838   2.837   5.509  2.8206  0.4841  0.0079
14904SOL    HW245547   3.861   2.945   5.613 -0.6871 -0.0054  1.4275
14905SOL     OW45548   0.282   2.350   1.367 -0.8289  0.2150  0.1486
14905SOL    HW145549   0.265   2.334   1.274  0.5389  1.4894 -0.3493
14905SOL    HW245550   0.291   2.262   1.405 -0.5364 -0.3078 -1.0795
14906SOL     OW45551   5.317   7.515   1.799  0.0426 -0.6002  0.0631
14906SOL    HW145552   5.312   7.604   1.833 -1.6789 -0.4458 -0.5152
14906SOL    HW245553   5.275   7.461   1.866  0.9243 -0.9804  0.3328
14907SOL     OW45554   1.268   5.174   4.782  0.7097 -0.9447 -0.4523
14907SOL    HW145555   1.187   5.176   4.730 -0.3887  0.2995  1.2057
14907SOL    HW245556   1.241   5.136   4.866  1.9421 -0.8685 -0.0059
14908SOL     OW45557   6.931   3.373   3.207 -0.1556  0.5948  0.9980
14908SOL    HW145558   7.012   3.346   3.252  0.2961  0.0705 -0.0874
14908SOL    HW245559   6.890   3.291   3.180 -0.3776  0.8956  0.3988
14909SOL     OW45560   1.283   6.122   7.905 -0.1430  0.5209 -0.1276
14909SOL    HW145561   1.260   6.148   7.816 -0.8707  1.0756  0.2115
14909SOL    HW245562   1.256   6.196   7.960 -0.1288 -0.0022  0.6024
14910SOL     OW45563   5.530   0.838   1.033 -0.2419 -0.2412  0.8712
14910SOL    HW145564   5.544   0.892   1.111 -0.7895 -0.8813  1.4214
14910SOL    HW245565   5.449   0.872   0.994 -0.1097 -0.0920  0.7246
14911SOL     OW45566   6.241   7.629   0.583 -0.1945  0.0130 -0.4098
14911SOL    HW145567   6.171   7.577   0.622  0.1726 -0.5800 -0.5093
14911SOL    HW245568   6.213   7.645   0.493  0.4995 -1.6463 -0.9759
14912SOL     OW45569   5.729   2.291   0.614 -0.2141  0.5559 -0.2102
14912SOL    HW145570   5.793   2.356   0.586  2.4034 -0.8935  1.9803
14912SOL    HW245571   5.674   2.336   0.678  1.4495  0.7556  1.1447
14913SOL     OW45572   1.249   7.149   1.868 -0.2372 -0.6135  0.2729
14913SOL    HW145573   1.343   7.145   1.879 -0.1578  0.0468 -0.0696
14913SOL    HW245574   1.235   7.224   1.810 -1.0921  0.6010  1.9672
14914SOL     OW45575   5.269   6.861   0.665  0.3796 -0.0523 -0.1311
14914SOL    HW145576   5.241   6.797   0.731  1.5827  0.0314  0.4917
14914SOL    HW245577   5.364   6.851   0.661  0.2877 -0.6198 -2.4653
14915SOL     OW45578   6.111   2.140   2.316  0.2910 -0.0918 -0.2020
14915SOL    HW145579   6.175   2.174   2.378  0.3178  0.3577 -0.4753
14915SOL    HW245580   6.060   2.076   2.366  0.6395 -0.0977  0.1429
14916SOL     OW45581   1.801   3.125   5.243  0.7822 -0.1051  0.1810
14916SOL    HW145582   1.881   3.073   5.242  0.6840 -0.3377 -2.4289
14916SOL    HW245583   1.801   3.170   5.159 -0.0725  2.7342  1.5667
14917SOL     OW45584   3.339   2.806   3.419 -0.0127  0.3588 -0.6565
14917SOL    HW145585   3.350   2.752   3.340  1.4701 -0.6249  0.1868
14917SOL    HW245586   3.298   2.748   3.482 -2.2809  1.4830 -1.0043
14918SOL     OW45587   7.846   1.664   6.524  0.1091  0.5788 -0.1178
14918SOL    HW145588   7.863   1.594   6.461  0.6281  2.6761 -2.4912
14918SOL    HW245589   7.752   1.681   6.517  0.0696  0.4425  0.0894
14919SOL     OW45590   1.048   2.638   0.862  0.3483 -0.0117 -0.0396
14919SOL    HW145591   1.070   2.679   0.945 -0.5453 -0.3246  0.3608
14919SOL    HW245592   1.077   2.547   0.872  0.7309  0.0791 -0.2797
14920SOL     OW45593   0.110   3.767   0.410 -0.0404  0.3935  0.2835
14920SOL    HW145594   0.154   3.700   0.462  0.4675  0.1838 -0.4006
14920SOL    HW245595   0.035   3.722   0.371  1.0765 -0.2022 -1.3116
14921SOL     OW45596   1.988   0.333   2.204  0.3283  0.0915  0.6393
14921SOL    HW145597   1.985   0.427   2.184  1.0660  0.3175  1.5142
14921SOL    HW245598   1.939   0.324   2.285 -0.9931 -0.5204 -0.1934
14922SOL     OW45599   1.313   3.244   4.326 -0.3842 -0.2014 -0.5058
14922SOL    HW145600   1.294   3.193   4.247 -0.3210 -0.7150 -0.1929
14922SOL    HW245601   1.345   3.180   4.389 -2.0618 -0.1022  0.5306
14923SOL     OW45602   3.146   7.056   1.660  0.1516  0.3483 -0.4033
14923SOL    HW145603   3.164   7.107   1.739 -0.5058  0.8762 -0.5789
14923SOL    HW245604   3.112   6.972   1.693 -1.3901  1.0495 -0.1083
14924SOL     OW45605   0.860   3.424   6.778  0.2502 -0.0614  0.3858
14924SOL    HW145606   0.954   3.433   6.760  0.1231 -1.6609 -1.3599
14924SOL    HW245607   0.818   3.487   6.720  0.2223  0.4391  0.9457
14925SOL     OW45608   3.830   3.669   2.995  0.0206  0.2144 -0.6890
14925SOL    HW145609   3.786   3.626   2.921  0.0388  1.5493 -1.4970
14925SOL    HW245610   3.919   3.633   2.993  0.0797  0.3816 -1.4415
14926SOL     OW45611   3.489   3.823   5.940 -0.4803  0.0181  0.4563
14926SOL    HW145612   3.502   3.791   6.029  0.3080 -0.4174  0.1950
14926SOL    HW245613   3.415   3.883   5.947  0.3479  0.9483  1.6344
14927SOL     OW45614   6.732   1.024   7.249 -0.3445  0.3465 -0.5598
14927SOL    HW145615   6.716   0.998   7.158 -0.3783 -1.2351 -0.1302
14927SOL    HW245616   6.778   1.108   7.242  1.3529 -0.6228 -2.1187
14928SOL     OW45617   5.617   3.494   4.527  0.3139  0.4598 -0.6838
14928SOL    HW145618   5.650   3.434   4.460  0.8078  1.9202 -1.8004
14928SOL    HW245619   5.593   3.437   4.601 -0.5553 -1.2350 -2.1941
14929SOL     OW45620   6.919   6.526   5.801  0.4709  0.0901 -0.1063
14929SOL    HW145621   6.849   6.572   5.847 -0.9123 -1.1151 -0.9081
14929SOL    HW245622   6.988   6.592   5.790 -0.9598  1.6344 -0.2506
14930SOL     OW45623   7.800   2.860   3.198 -0.4169 -0.4140 -0.0542
14930SOL    HW145624   7.841   2.775   3.209  0.0649 -0.2993 -0.8231
14930SOL    HW245625   7.708   2.846   3.221 -0.8837 -1.7358 -2.3284
14931SOL     OW45626   3.361   3.875   4.063  0.3417 -0.3205  0.3581
14931SOL    HW145627   3.316   3.792   4.048  1.8022 -0.8568 -1.4487
14931SOL    HW245628   3.305   3.940   4.020  0.7149 -0.8380 -0.9657
14932SOL     OW45629   4.272   4.022   3.971 -0.5803  0.1387 -0.2406
14932SOL    HW145630   4.326   4.042   3.895  0.4663  0.1610  0.4746
14932SOL    HW245631   4.279   3.926   3.980 -0.2534  0.1930  0.1298
14933SOL     OW45632   4.813   3.874   4.951  0.1833  0.5437 -0.0455
14933SOL    HW145633   4.780   3.810   5.014  1.1062  0.3989  0.2959
14933SOL    HW245634   4.851   3.822   4.881 -0.7407  0.7065 -0.6825
14934SOL     OW45635   5.663   5.479   0.249  0.0888  0.3379 -0.3725
14934SOL    HW145636   5.681   5.569   0.278  2.6858 -0.3079  0.2676
14934SOL    HW245637   5.716   5.469   0.170 -2.3082  0.1766 -2.0419
14935SOL     OW45638   3.961   4.979   7.152  0.4138  0.4023  0.2750
14935SOL    HW145639   4.042   5.022   7.126  0.6385 -0.2951 -0.2305
14935SOL    HW245640   3.982   4.937   7.236  0.8157 -0.4106 -0.2234
14936SOL     OW45641   4.239   4.702   1.846 -0.6781  0.5261  0.4360
14936SOL    HW145642   4.276   4.697   1.934  0.2434  0.8238  0.0791
14936SOL    HW245643   4.295   4.764   1.800  1.2142 -2.2972 -1.4577
14937SOL     OW45644   4.809   1.151   2.359  0.0831  0.1164 -0.5003
14937SOL    HW145645   4.899   1.125   2.381  0.5923  0.7090 -1.8170
14937SOL    HW245646   4.756   1.074   2.379  1.0592 -0.6721 -0.9195
14938SOL     OW45647   0.747   7.431   4.910 -0.1004  0.3663 -0.0241
14938SOL    HW145648   0.781   7.452   4.823 -0.1475  1.9641  0.3142
14938SOL    HW245649   0.796   7.354   4.937  0.8369  0.6230 -0.9481
14939SOL     OW45650   4.729   5.932   3.039 -0.2778 -0.1322 -0.3317
14939SOL    HW145651   4.754   6.012   3.085  0.2921 -0.9568  0.8617
14939SOL    HW245652   4.720   5.866   3.108  1.5424 -1.6640 -1.4178
14940SOL     OW45653   5.762   2.715   4.787  0.1586  0.0223  0.5475
14940SOL    HW145654   5.742   2.700   4.879  1.7639 -0.1322  0.9059
14940SOL    HW245655   5.771   2.810   4.780 -0.3559  0.0679  0.4480
14941SOL     OW45656   4.323   3.075   0.036 -0.1396  0.5071  0.3227
14941SOL    HW145657   4.356   3.154  -0.007 -1.3295  0.8994  0.0754
14941SOL    HW245658   4.285   3.107   0.118 -0.8502  0.2341  0.1054
14942SOL     OW45659   4.319   7.830   1.547 -0.0649  0.1830 -0.1240
14942SOL    HW145660   4.254   7.888   1.587  0.1298  0.9204 -0.8477
14942SOL    HW245661   4.272   7.789   1.473 -0.3817 -1.0611  0.7376
14943SOL     OW45662   0.385   1.954   2.199 -0.0312 -0.1681 -0.6679
14943SOL    HW145663   0.403   2.008   2.122 -1.2657 -1.0805 -1.6345
14943SOL    HW245664   0.290   1.955   2.208  0.0565 -0.4763  0.5811
14944SOL     OW45665   6.534   4.418   2.284  0.0413  0.3841  0.0110
14944SOL    HW145666   6.500   4.504   2.311  1.2929  1.3664 -1.3974
14944SOL    HW245667   6.534   4.421   2.189 -0.0965 -1.2974 -0.0694
14945SOL     OW45668   6.720   4.095   3.784 -0.1769  0.1630 -0.1555
14945SOL    HW145669   6.710   4.140   3.867 -2.2714  1.8210 -1.2358
14945SOL    HW245670   6.687   4.007   3.800 -1.2813  0.6954  0.5909
14946SOL     OW45671   6.569   4.775   1.302 -0.8842  0.1776 -0.0301
14946SOL    HW145672   6.528   4.857   1.331 -0.9297  0.6339 -1.3448
14946SOL    HW245673   6.506   4.736   1.242  0.2822  0.5751 -1.5945
14947SOL     OW45674   5.861   5.496   5.731  0.4193  0.4834 -0.2943
14947SOL    HW145675   5.938   5.524   5.681 -0.0936 -0.3001 -1.5875
14947SOL    HW245676   5.804   5.455   5.666 -0.9994  0.8270  0.6746
14948SOL     OW45677   7.602   6.457   4.975  0.1973 -0.0027  0.4217
14948SOL    HW145678   7.528   6.432   4.920  0.7767  1.0699 -0.8893
14948SOL    HW245679   7.674   6.472   4.914  0.3834  3.0748  1.2289
14949SOL     OW45680   5.196   2.784   0.858 -0.4155  0.0826 -0.3140
14949SOL    HW145681   5.225   2.812   0.945  0.0736  0.0199 -0.4522
14949SOL    HW245682   5.144   2.858   0.826 -1.3533 -0.2598  0.3864
14950SOL     OW45683   4.654   2.116   3.774  0.0049 -0.3064 -0.7293
14950SOL    HW145684   4.617   2.167   3.702 -1.3214  0.9648  0.7644
14950SOL    HW245685   4.733   2.164   3.799  0.2393 -0.5167 -1.0571
14951SOL     OW45686   4.830   1.871   7.831  0.9206 -0.3952  0.9270
14951SOL    HW145687   4.909   1.834   7.870  0.4298 -0.8929  1.4759
14951SOL    HW245688   4.795   1.930   7.898  1.5260  0.8540  0.1785
14952SOL     OW45689   1.550   2.053   0.636  0.1423  0.2227 -0.0520
14952SOL    HW145690   1.562   2.139   0.594  1.1995  0.3678  0.5249
14952SOL    HW245691   1.461   2.056   0.670  0.4223  1.4190  0.6515
14953SOL     OW45692   3.848   1.434   3.684 -0.5951  0.1145  0.4014
14953SOL    HW145693   3.888   1.349   3.664 -0.6099  0.0581  0.6091
14953SOL    HW245694   3.818   1.466   3.599 -1.6558 -0.6288  0.4795
14954SOL     OW45695   7.498   4.083   0.550 -0.0188 -0.5311  0.2206
14954SOL    HW145696   7.561   4.023   0.509 -0.3071 -0.9617  0.4071
14954SOL    HW245697   7.552   4.142   0.602  0.3779  0.1299 -0.8978
14955SOL     OW45698   6.352   1.052   2.677  0.1007  0.1011  0.2149
14955SOL    HW145699   6.408   1.023   2.749 -0.6104  0.1027  0.7783
14955SOL    HW245700   6.265   1.019   2.700 -0.2894  0.8019 -0.2291
14956SOL     OW45701   2.042   6.957   4.540  0.0394  0.6536 -0.4110
14956SOL    HW145702   2.045   6.955   4.635 -1.0226  1.4437 -0.3401
14956SOL    HW245703   2.006   6.872   4.515  2.9408 -0.7366 -0.3048
14957SOL     OW45704   5.111   7.330   3.847 -0.0221 -0.3565  0.1255
14957SOL    HW145705   5.126   7.390   3.920 -0.3224  0.5904 -0.5683
14957SOL    HW245706   5.113   7.243   3.887 -0.1382  0.1325  1.2508
14958SOL     OW45707   4.666   1.456   4.347  0.0749 -0.3845 -0.0064
14958SOL    HW145708   4.674   1.446   4.442  0.0074  0.5235  0.0979
14958SOL    HW245709   4.680   1.549   4.331 -0.7799 -0.3795 -0.8059
14959SOL     OW45710   4.736   5.284   7.168 -0.0888 -0.0558 -0.3387
14959SOL    HW145711   4.757   5.194   7.143  1.2296  0.1064  0.0879
14959SOL    HW245712   4.759   5.336   7.091  0.3915  0.0385 -0.1386
14960SOL     OW45713   7.297   7.014   6.682  0.0405  0.7505  0.2615
14960SOL    HW145714   7.298   7.108   6.664 -1.9110  0.9414  0.9229
14960SOL    HW245715   7.297   7.008   6.778 -0.0812  0.0761  0.2275
14961SOL     OW45716   2.138   7.788   3.544 -0.3205  0.2212  0.1161
14961SOL    HW145717   2.153   7.721   3.477  3.8406  1.8771 -0.9991
14961SOL    HW245718   2.096   7.860   3.497  0.2430  0.3957 -0.1404
14962SOL     OW45719   0.987   5.682   5.139  0.0640 -0.2146 -0.1399
14962SOL    HW145720   1.078   5.708   5.155  0.4150 -0.7807 -1.1242
14962SOL    HW245721   0.952   5.750   5.081 -0.4279  0.4769  0.9353
14963SOL     OW45722   3.678   1.717   1.069  0.1197  0.7171 -0.0761
14963SOL    HW145723   3.654   1.626   1.086 -1.1282  1.2671  1.2519
14963SOL    HW245724   3.694   1.720   0.975 -0.1125 -0.8047 -0.1872
14964SOL     OW45725   0.650   1.622   7.540  0.0310  0.0644  0.7578
14964SOL    HW145726   0.558   1.646   7.550  0.0062 -0.4254  1.8383
14964SOL    HW245727   0.694   1.705   7.520 -0.5149  0.4569  1.1429
14965SOL     OW45728   6.693   5.961   2.053  0.1500 -0.1828  0.1678
14965SOL    HW145729   6.652   5.921   1.977  0.2470 -0.0567  0.0494
14965SOL    HW245730   6.785   5.934   2.048  0.0721 -0.5310  0.4754
14966SOL     OW45731   1.498   3.701   7.379 -0.4945  0.2476 -0.2568
14966SOL    HW145732   1.523   3.613   7.408 -0.4015  0.3029 -0.1655
14966SOL    HW245733   1.458   3.688   7.293 -0.4428  0.1201 -0.2619
14967SOL     OW45734   6.093   5.411   7.871  0.6685 -0.0072 -0.2200
14967SOL    HW145735   6.128   5.489   7.828  0.3655 -0.5454 -1.4867
14967SOL    HW245736   6.117   5.339   7.813 -0.4000 -0.6817  0.1474
14968SOL     OW45737   1.101   5.307   4.464 -0.3415  0.2747 -0.8336
14968SOL    HW145738   1.153   5.369   4.516  0.1078 -0.5597 -0.2645
14968SOL    HW245739   1.166   5.258   4.414 -0.5951 -0.5445 -0.3745
14969SOL     OW45740   3.045   6.791   0.206  0.6320 -0.2882 -0.3274
14969SOL    HW145741   3.026   6.843   0.128 -1.0135 -1.7952 -1.0059
14969SOL    HW245742   2.975   6.814   0.267  0.7361 -0.6336 -0.0800
14970SOL     OW45743   4.261   3.774   4.500  0.0920 -0.3444 -0.9890
14970SOL    HW145744   4.233   3.818   4.420  0.5647 -0.9887 -1.5208
14970SOL    HW245745   4.248   3.839   4.569  0.1340  0.3836 -1.6533
14971SOL     OW45746   0.502   0.243   5.349 -0.2570 -0.1701 -0.9196
14971SOL    HW145747   0.511   0.336   5.327 -1.8348  0.1116 -0.5205
14971SOL    HW245748   0.411   0.234   5.376  0.8216 -1.0198  2.9402
14972SOL     OW45749   0.843   7.114   0.670 -0.7499  0.2686  0.1777
14972SOL    HW145750   0.911   7.128   0.605 -0.9316  1.0183  0.1282
14972SOL    HW245751   0.781   7.186   0.655 -0.0701  1.3464  2.0882
14973SOL     OW45752   4.218   0.792   4.267  0.0641  0.0218  0.2927
14973SOL    HW145753   4.149   0.772   4.330 -0.3510 -1.5614 -0.6339
14973SOL    HW245754   4.173   0.834   4.194  0.2146 -0.1575  0.0956
14974SOL     OW45755   0.909   3.909   5.082 -0.6703 -0.2392  0.0474
14974SOL    HW145756   0.925   3.888   4.990 -2.2382  0.0465 -0.3244
14974SOL    HW245757   0.856   3.989   5.079  0.8324  0.8575  1.2762
14975SOL     OW45758   7.463   7.517   1.248  0.1383  0.6122 -0.6322
14975SOL    HW145759   7.538   7.574   1.230  0.3557  0.3119 -0.6947
14975SOL    HW245760   7.499   7.428   1.240 -0.3972  0.4602 -1.3867
14976SOL     OW45761   2.829   3.300   3.798 -0.2989  0.3458 -0.5633
14976SOL    HW145762   2.733   3.295   3.801 -0.2642  0.0446  0.5277
14976SOL    HW245763   2.849   3.320   3.707 -1.5060  2.5983 -0.4056
14977SOL     OW45764   7.224   1.954   7.796  0.4626  0.2924  0.0840
14977SOL    HW145765   7.274   1.998   7.865  1.3454  1.2630 -1.1283
14977SOL    HW245766   7.290   1.904   7.748  0.6998  2.9110 -2.5844
14978SOL     OW45767   3.945   2.885   2.959  0.4098 -0.2846  0.5611
14978SOL    HW145768   4.022   2.883   2.902  0.5511  1.5608  0.6118
14978SOL    HW245769   3.980   2.872   3.047  0.9796  2.3541  0.7987
14979SOL     OW45770   5.278   0.024   5.589  0.5479 -0.1061  0.2068
14979SOL    HW145771   5.288   0.119   5.599  0.2793  0.2276 -2.1854
14979SOL    HW245772   5.362  -0.005   5.553  0.2788 -0.6331  0.0013
14980SOL     OW45773   4.393   5.899   3.684  0.0668 -0.1414  0.4597
14980SOL    HW145774   4.346   5.974   3.721 -0.5207  0.5241 -1.5145
14980SOL    HW245775   4.456   5.875   3.751 -0.2530  1.6354  1.4616
14981SOL     OW45776   7.627   5.958   0.710  0.5054 -0.4050 -0.1540
14981SOL    HW145777   7.646   5.866   0.725  0.0882 -0.3983  0.4457
14981SOL    HW245778   7.711   6.002   0.722  0.2661 -0.4369  1.9470
14982SOL     OW45779   1.335   2.216   3.827  0.7537  0.2456 -0.3828
14982SOL    HW145780   1.258   2.186   3.779  0.9285  0.8460 -1.0574
14982SOL    HW245781   1.300   2.256   3.906  0.3441  0.7046 -0.7843
14983SOL     OW45782   6.600   5.661   3.161 -0.6203 -0.0412 -0.3237
14983SOL    HW145783   6.596   5.615   3.076 -0.6911 -0.5362 -0.0563
14983SOL    HW245784   6.654   5.604   3.216 -1.0737 -0.0214  0.1468
14984SOL     OW45785   3.919   2.366   7.190  0.6650  0.3798  0.0371
14984SOL    HW145786   3.886   2.445   7.148 -0.1850 -1.1942 -2.4356
14984SOL    HW245787   4.013   2.381   7.199  0.6989  1.2311 -1.4557
14985SOL     OW45788   2.577   1.449   0.211  0.0926 -0.8184  0.1033
14985SOL    HW145789   2.492   1.493   0.209  0.2646 -0.3878 -3.5426
14985SOL    HW245790   2.579   1.397   0.131  2.2838 -2.8791  1.3765
14986SOL     OW45791   0.484   4.904   6.629 -0.0988  0.3609  0.1656
14986SOL    HW145792   0.527   4.894   6.544 -3.9657 -1.9375 -1.7630
14986SOL    HW245793   0.447   4.993   6.627 -1.6107 -0.2601 -1.4042
14987SOL     OW45794   2.342   0.412   2.793 -0.0253  0.5099  0.0887
14987SOL    HW145795   2.391   0.494   2.798 -0.7996  0.9090  2.3384
14987SOL    HW245796   2.408   0.343   2.800  0.4872  0.9763 -0.1620
14988SOL     OW45797   1.119   7.908   7.335 -0.5160  0.1382 -0.0378
14988SOL    HW145798   1.065   7.830   7.344  0.7335 -0.7175  0.1634
14988SOL    HW245799   1.092   7.945   7.251  0.5562 -1.8637 -1.3449
14989SOL     OW45800   3.339   5.653   0.172 -0.1434 -0.0713  0.0959
14989SOL    HW145801   3.417   5.606   0.203 -1.4513 -2.4876 -0.0259
14989SOL    HW245802   3.287   5.586   0.127 -1.5967  1.8022 -1.1779
14990SOL     OW45803   0.189   2.365   1.091 -0.2642  0.1505  0.4862
14990SOL    HW145804   0.239   2.436   1.051 -1.2780 -0.2899 -1.7206
14990SOL    HW245805   0.101   2.373   1.055 -1.2599 -0.3951  2.6094
14991SOL     OW45806   1.121   0.014   1.554  0.4815  0.1370 -0.1138
14991SOL    HW145807   1.152  -0.002   1.465 -1.4792  1.1440 -1.0523
14991SOL    HW245808   1.082   0.101   1.550 -1.1460 -0.4791  1.2893
14992SOL     OW45809   2.881   5.965   3.710 -0.0294  0.4902 -0.0515
14992SOL    HW145810   2.817   5.897   3.731 -2.5984  2.9453  0.6835
14992SOL    HW245811   2.900   6.006   3.794 -0.6044  2.3453 -0.7859
14993SOL     OW45812   4.587   4.160   4.253 -0.6704  0.9465 -0.4007
14993SOL    HW145813   4.682   4.155   4.255 -0.5942  2.1066 -0.3265
14993SOL    HW245814   4.558   4.071   4.232  0.2125 -0.7903  4.3243
14994SOL     OW45815   0.380   5.696   3.759 -0.1988 -0.2657 -0.2534
14994SOL    HW145816   0.327   5.658   3.829  0.4731 -1.4782 -0.3668
14994SOL    HW245817   0.451   5.742   3.805 -1.1140  1.0450 -0.1106
14995SOL     OW45818   2.136   0.849   2.593  0.2919  0.3571 -0.2188
14995SOL    HW145819   2.172   0.761   2.604  1.1337  0.7583  0.3688
14995SOL    HW245820   2.096   0.869   2.678 -0.3495  0.3484 -0.5153
14996SOL     OW45821   0.224   3.892   6.362  0.0826 -0.1108 -0.8345
14996SOL    HW145822   0.295   3.898   6.298  0.5547 -0.2372 -0.3337
14996SOL    HW245823   0.163   3.828   6.324 -0.8852  1.5802 -2.3040
14997SOL     OW45824   5.889   0.020   3.890 -0.1660  0.6041 -0.4262
14997SOL    HW145825   5.888  -0.048   3.823  0.8012  1.1449 -1.0235
14997SOL    HW245826   5.876  -0.027   3.972 -2.2784  0.0242 -1.0290
14998SOL     OW45827   4.388   4.071   7.666 -0.2708 -0.6530 -0.3958
14998SOL    HW145828   4.341   4.011   7.724 -0.5651  0.8917  1.0385
14998SOL    HW245829   4.480   4.045   7.674 -0.4879 -1.4855 -0.5162
14999SOL     OW45830   3.814   1.428   2.705 -0.3888 -0.9477  0.7517
14999SOL    HW145831   3.746   1.467   2.760 -0.3724  1.2466 -0.6937
14999SOL    HW245832   3.854   1.502   2.659  2.5080 -2.2256  0.9691
15000SOL     OW45833   6.985   1.530   6.341 -0.1113  0.1923 -0.1189
15000SOL    HW145834   7.005   1.436   6.339 -0.2526  0.1673 -1.3051
15000SOL    HW245835   7.067   1.571   6.369 -0.2190 -0.3086  0.9987
15001SOL     OW45836   5.478   2.125   5.488  0.1889  0.5418 -0.1055
15001SOL    HW145837   5.408   2.183   5.518 -0.8397 -0.4828 -0.4631
15001SOL    HW245838   5.483   2.057   5.555 -0.0467 -0.0972 -0.7274
15002SOL     OW45839   4.969   0.074   3.341  0.4792 -0.2456  0.1445
15002SOL    HW145840   5.064   0.073   3.346  0.5143 -1.8414 -0.1562
15002SOL    HW245841   4.940   0.069   3.432  0.6525  1.2210  0.2951
15003SOL     OW45842   2.007   6.222   6.585  0.2364  0.5646 -0.6847
15003SOL    HW145843   2.070   6.270   6.531  0.2461  2.6195  0.9807
15003SOL    HW245844   1.923   6.239   6.544  0.3952  0.8598 -0.8922
15004SOL     OW45845   0.304   6.766   0.654  0.2802 -0.4251  0.4174
15004SOL    HW145846   0.270   6.755   0.566 -0.6543  0.9055  0.5839
15004SOL    HW245847   0.342   6.681   0.676 -0.5131 -1.1252 -0.8205
15005SOL     OW45848   0.856   5.669   6.349 -0.1466 -1.0175  0.1527
15005SOL    HW145849   0.802   5.677   6.427 -1.0292 -0.4096 -0.4958
15005SOL    HW245850   0.886   5.758   6.330  0.8289 -1.3008  0.3195
15006SOL     OW45851   3.340   1.823   2.767 -0.5949  0.3157 -0.0960
15006SOL    HW145852   3.300   1.757   2.710  1.5163 -0.1357 -1.1803
15006SOL    HW245853   3.305   1.804   2.854 -0.5736 -1.8599 -0.4968
15007SOL     OW45854   5.457   7.109   0.384 -0.4734 -0.6842  0.2693
15007SOL    HW145855   5.418   7.128   0.299  0.0911 -0.1666  0.1228
15007SOL    HW245856   5.403   7.038   0.420  0.1566 -1.9342 -1.1507
15008SOL     OW45857   1.282   3.186   4.891 -0.2831 -0.1782  0.0004
15008SOL    HW145858   1.359   3.166   4.838  0.1701 -1.6549  1.1669
15008SOL    HW245859   1.215   3.212   4.827  0.9601  0.4910 -1.0705
15009SOL     OW45860   3.906   3.388   5.753  0.0343 -0.1565  0.3031
15009SOL    HW145861   3.940   3.415   5.839 -0.0087 -0.1616  0.3216
15009SOL    HW245862   3.961   3.434   5.690 -1.0021  1.1897  0.3372
15010SOL     OW45863   7.272   4.426   7.913  0.2955 -0.0703 -0.1178
15010SOL    HW145864   7.207   4.424   7.983  1.0598 -1.1317  0.6060
15010SOL    HW245865   7.343   4.370   7.945  0.8106 -0.3208 -1.6026
15011SOL     OW45866   2.257   7.359   5.184 -0.2089 -0.1537 -0.2961
15011SOL    HW145867   2.263   7.295   5.255  3.8026 -1.7802 -1.7673
15011SOL    HW245868   2.282   7.310   5.106 -0.1995  2.5027 -2.1032
15012SOL     OW45869   3.902   7.547   3.823 -0.4075  0.0719 -0.0106
15012SOL    HW145870   3.972   7.582   3.767 -2.9469  2.6468 -1.8356
15012SOL    HW245871   3.866   7.474   3.772 -0.9623  0.6756 -0.4959
15013SOL     OW45872   2.337   6.313   5.970  0.5457  0.2796 -0.2291
15013SOL    HW145873   2.344   6.294   5.876  0.9888 -1.2837  0.0871
15013SOL    HW245874   2.357   6.406   5.977 -0.2527  0.6061 -1.7650
15014SOL     OW45875   5.601   1.537   1.890 -0.1775 -0.0215  0.3564
15014SOL    HW145876   5.553   1.478   1.832  0.0715 -0.9727  1.0879
15014SOL    HW245877   5.601   1.493   1.975 -0.5604  1.3587  1.1087
15015SOL     OW45878   3.065   1.984   2.997 -0.3816  0.0851  0.5155
15015SOL    HW145879   3.069   1.956   3.088 -0.1661 -2.6481 -0.2384
15015SOL    HW245880   3.125   2.058   2.992  0.5868 -0.5089  2.3434
15016SOL     OW45881   5.980   1.910   5.514  0.2003  0.4531  0.2443
15016SOL    HW145882   5.945   1.963   5.442  0.3038  1.8226  1.1607
15016SOL    HW245883   6.069   1.942   5.526  0.3122 -0.0286  0.7279
15017SOL     OW45884   3.788   7.382   0.071  0.7970  0.0103 -0.5059
15017SOL    HW145885   3.797   7.301   0.121  0.1207  0.2182 -0.0308
15017SOL    HW245886   3.850   7.443   0.112 -0.3524  0.4454  0.6607
15018SOL     OW45887   7.842   5.609   6.328 -0.2161  0.2967 -0.6877
15018SOL    HW145888   7.886   5.543   6.274 -0.1041  1.7923 -2.5075
15018SOL    HW245889   7.783   5.559   6.384 -2.5158 -1.2476 -4.1913
15019SOL     OW45890   4.693   1.555   2.889  0.8856 -0.2090  0.2166
15019SOL    HW145891   4.637   1.478   2.877  0.9383 -0.1232 -0.6171
15019SOL    HW245892   4.763   1.525   2.946  0.1084 -0.3716  1.1218
15020SOL     OW45893   6.706   2.187   7.104  0.0846 -0.4032 -0.1407
15020SOL    HW145894   6.722   2.144   7.188 -1.2905 -0.2731  0.2127
15020SOL    HW245895   6.612   2.176   7.089  0.2528 -0.1555 -1.5197
15021SOL     OW45896   2.552   6.986   3.906 -0.6344 -0.3241 -0.0342
15021SOL    HW145897   2.613   7.007   3.836 -0.2708  0.7700  0.5803
15021SOL    HW245898   2.466   6.992   3.866 -0.4069 -0.3702 -0.5412
15022SOL     OW45899   6.646   4.965   5.542  0.0173  0.4148  0.2294
15022SOL    HW145900   6.581   4.990   5.607  1.3165  0.0279  1.7303
15022SOL    HW245901   6.684   4.884   5.575 -1.3981 -1.5534 -2.5784
15023SOL     OW45902   0.108   7.327   7.414  0.4934 -0.3615  0.2718
15023SOL    HW145903   0.128   7.295   7.326 -1.2305  0.4425 -0.4658
15023SOL    HW245904   0.031   7.277   7.440 -0.5227  1.1501  0.2601
15024SOL     OW45905   6.580   1.944   5.484  0.5960  0.1971  0.4476
15024SOL    HW145906   6.511   1.892   5.525  1.6311 -0.3203  1.5748
15024SOL    HW245907   6.534   2.000   5.421 -0.7816 -0.4939  0.8172
15025SOL     OW45908   6.551   4.478   7.760  0.0963  0.0187  0.1843
15025SOL    HW145909   6.565   4.462   7.666  0.9555  0.4772  0.2247
15025SOL    HW245910   6.535   4.572   7.766  2.4469  0.4238  0.7449
15026SOL     OW45911   0.011   3.011   3.044  0.1212  0.2254  0.4695
15026SOL    HW145912  -0.042   2.951   3.097  0.8508 -0.0191  0.9319
15026SOL    HW245913   0.087   3.032   3.099  1.0340 -0.2312 -0.5769
15027SOL     OW45914   0.603   3.322   5.788 -0.2528  0.6115 -0.1670
15027SOL    HW145915   0.539   3.259   5.821  0.1875  0.0943 -0.2799
15027SOL    HW245916   0.616   3.296   5.696 -0.3131  1.0740 -0.3075
15028SOL     OW45917   1.470   1.188   2.674  0.4467 -0.4381 -0.1447
15028SOL    HW145918   1.472   1.185   2.770 -1.2302  0.9792 -0.0056
15028SOL    HW245919   1.560   1.210   2.649  0.7133  0.0873  1.1697
15029SOL     OW45920   4.877   2.764   5.056  0.4863 -0.5673 -0.5353
15029SOL    HW145921   4.782   2.774   5.055  0.5754  0.3298 -1.8091
15029SOL    HW245922   4.898   2.746   5.148 -0.9005 -0.7296 -0.2315
15030SOL     OW45923   3.328   7.702   2.163 -0.0691 -0.6302  0.0199
15030SOL    HW145924   3.308   7.689   2.070  2.4523  1.2763 -0.9169
15030SOL    HW245925   3.282   7.782   2.188  1.8494  0.7467 -0.6234
15031SOL     OW45926   0.845   1.439   7.454  0.0017  0.0623  0.4978
15031SOL    HW145927   0.908   1.511   7.457  0.4667 -0.3248  0.1407
15031SOL    HW245928   0.760   1.482   7.467 -0.1407  1.2358 -2.9937
15032SOL     OW45929   2.372   5.808   6.579  0.2231  0.1522  0.1803
15032SOL    HW145930   2.427   5.733   6.557 -0.5896 -0.5355  0.4607
15032SOL    HW245931   2.292   5.796   6.528  0.8263  1.8693 -1.3046
15033SOL     OW45932   2.138   4.190   6.371  0.1322 -0.1694 -0.1197
15033SOL    HW145933   2.046   4.201   6.351  0.1339  1.4953  0.6346
15033SOL    HW245934   2.166   4.117   6.316 -1.2640  0.2915 -1.4934
15034SOL     OW45935   2.768   0.759   2.461  0.2622  0.1420 -0.1061
15034SOL    HW145936   2.855   0.747   2.499  0.6743 -1.0881 -1.3656
15034SOL    HW245937   2.720   0.809   2.527  1.1864 -1.2492  1.7184
15035SOL     OW45938   3.200   7.522   4.211  0.1964  0.2476  0.3319
15035SOL    HW145939   3.196   7.617   4.201 -1.0022  0.2897  1.0069
15035SOL    HW245940   3.155   7.504   4.294  0.0964 -0.9362  0.0486
15036SOL     OW45941   2.626   0.157   7.335  0.5023 -0.3486 -0.4311
15036SOL    HW145942   2.574   0.114   7.403  2.1569  0.0819  1.1973
15036SOL    HW245943   2.581   0.135   7.253 -0.5908 -2.3584  0.6150
15037SOL     OW45944   6.262   5.520   3.837  0.5872  0.0921  0.4220
15037SOL    HW145945   6.307   5.505   3.754 -0.3647  1.3453 -0.3570
15037SOL    HW245946   6.223   5.607   3.828  0.6364  0.3402  2.2694
15038SOL     OW45947   7.175   6.048   0.209  0.5800  0.5892  0.2158
15038SOL    HW145948   7.128   6.032   0.128  0.9445 -0.1009  0.1329
15038SOL    HW245949   7.183   6.143   0.215 -0.2370  0.6762 -0.0991
15039SOL     OW45950   1.328   4.424   5.809  0.0309 -0.4466  0.0471
15039SOL    HW145951   1.359   4.473   5.733  2.2767 -0.8516  0.6292
15039SOL    HW245952   1.257   4.477   5.845  0.2951  0.7697 -1.1497
15040SOL     OW45953   5.676   1.724   2.706  0.5671 -0.0238  0.4562
15040SOL    HW145954   5.615   1.726   2.633  1.6685 -0.7564 -0.5306
15040SOL    HW245955   5.634   1.775   2.775  0.2830  2.3200 -1.3157
15041SOL     OW45956   4.464   3.871   5.029 -0.1953  0.8148 -0.5180
15041SOL    HW145957   4.395   3.805   5.040 -0.3757  0.9240 -1.0007
15041SOL    HW245958   4.546   3.823   5.041 -0.3551  0.7925  0.6549
15042SOL     OW45959   6.521   4.953   0.993 -0.2243  0.6155  0.3930
15042SOL    HW145960   6.579   4.914   0.928  0.2750  1.3028  0.4100
15042SOL    HW245961   6.580   4.984   1.062 -0.8566 -1.5238  1.9761
15043SOL     OW45962   5.668   3.994   1.170 -0.2421  0.2154  0.4564
15043SOL    HW145963   5.722   4.059   1.214 -0.7527  0.4944  0.6731
15043SOL    HW245964   5.675   3.916   1.224  2.4579 -0.7917 -1.1167
15044SOL     OW45965   6.360   2.503   4.898  0.4909  0.3456  0.4035
15044SOL    HW145966   6.275   2.533   4.933 -0.2160 -1.0461 -0.0230
15044SOL    HW245967   6.420   2.576   4.914 -1.2895  2.3561 -1.4117
15045SOL     OW45968   0.354   7.528   5.875  0.2705  0.2954  0.8992
15045SOL    HW145969   0.375   7.525   5.968  0.6544 -1.4605  0.7865
15045SOL    HW245970   0.437   7.548   5.832  0.2045  0.5603  0.8919
15046SOL     OW45971   2.945   0.459   5.157  0.5006 -0.1918 -0.3772
15046SOL    HW145972   2.874   0.465   5.094 -0.0384  0.0324  0.2435
15046SOL    HW245973   3.025   0.467   5.104  0.0531  0.1561 -1.0110
15047SOL     OW45974   1.533   1.626   5.946 -0.0165  0.0180  0.2925
15047SOL    HW145975   1.579   1.579   6.015  2.8685  2.1418  0.0116
15047SOL    HW245976   1.501   1.706   5.989  0.9062  0.8676 -0.5473
15048SOL     OW45977   2.303   1.254   1.971 -0.2848 -0.6642 -0.6113
15048SOL    HW145978   2.378   1.300   2.009 -1.7268  0.8095  0.6003
15048SOL    HW245979   2.271   1.314   1.903 -0.8165 -0.9350 -0.5994
15049SOL     OW45980   5.707   1.122   6.712 -0.4253 -0.0888  0.2942
15049SOL    HW145981   5.611   1.127   6.719 -0.2995  0.9309  1.9938
15049SOL    HW245982   5.731   1.058   6.780  0.2219  1.5651  1.6959
15050SOL     OW45983   3.674   0.937   0.821 -0.0971 -0.0219 -0.6571
15050SOL    HW145984   3.659   0.984   0.903 -0.1656 -0.5838 -0.3457
15050SOL    HW245985   3.764   0.906   0.827  0.3897  1.1830 -1.4342
15051SOL     OW45986   1.637   1.206   0.057 -0.3726  0.1918 -0.0735
15051SOL    HW145987   1.618   1.193  -0.036 -0.1619  0.3357 -0.1383
15051SOL    HW245988   1.684   1.128   0.084 -1.2234 -0.2615  0.1395
15052SOL     OW45989   7.338   4.673   7.838  0.3518  0.4202  0.1812
15052SOL    HW145990   7.320   4.648   7.747 -2.5459  2.6474  0.0066
15052SOL    HW245991   7.303   4.600   7.890  0.7022 -0.2044 -0.4480
15053SOL     OW45992   4.572   6.791   6.999  0.2595  0.1277 -0.2034
15053SOL    HW145993   4.640   6.798   6.932  0.4139  1.4221  0.0783
15053SOL    HW245994   4.614   6.821   7.079 -0.4235  0.1875  0.1355
15054SOL     OW45995   2.158   1.958   1.180 -0.1824  0.1865  0.2906
15054SOL    HW145996   2.244   1.991   1.153  0.1655 -0.2839  0.7830
15054SOL    HW245997   2.170   1.863   1.186 -0.2994  0.2456  1.8364
15055SOL     OW45998   7.398   7.694   1.042 -0.3964 -0.0370 -0.7567
15055SOL    HW145999   7.371   7.631   1.109 -2.0621  0.6067 -0.7802
15055SOL    HW246000   7.462   7.646   0.989 -1.0486 -1.4536 -0.3189
15056SOL     OW46001   7.196   5.880   6.414 -0.2302  0.2548  0.1493
15056SOL    HW146002   7.283   5.842   6.420  0.5771  2.1191  0.9550
15056SOL    HW246003   7.194   5.924   6.329 -0.1677  0.7394  0.4001
15057SOL     OW46004   3.219   7.526   4.822  0.6161 -0.2805  0.1572
15057SOL    HW146005   3.152   7.467   4.853  1.0261 -0.5755  0.4839
15057SOL    HW246006   3.300   7.476   4.828  0.6993 -0.4006 -1.4931
15058SOL     OW46007   2.595   3.778   3.132  0.1335  0.3908  0.1757
15058SOL    HW146008   2.632   3.758   3.046 -0.0155  0.2835  0.1350
15058SOL    HW246009   2.525   3.713   3.144 -1.0275  1.4892 -0.3830
15059SOL     OW46010   3.251   2.517   5.574 -0.2592 -0.4500 -0.2378
15059SOL    HW146011   3.159   2.536   5.590 -0.5984 -1.6424 -0.6731
15059SOL    HW246012   3.283   2.480   5.656 -0.1655 -0.0766 -0.1015
15060SOL     OW46013   4.397   7.007   0.045  0.1241  0.3488  0.1741
15060SOL    HW146014   4.343   7.083   0.021 -0.0342 -0.0423 -0.7600
15060SOL    HW246015   4.463   7.043   0.105  1.0410  1.5790 -1.4794
15061SOL     OW46016   4.983   7.351   6.696  0.4890  0.1447  0.2290
15061SOL    HW146017   4.964   7.373   6.787  0.2507  0.2094  0.1653
15061SOL    HW246018   4.978   7.434   6.649 -0.5604 -0.0509 -0.0326
15062SOL     OW46019   1.080   3.784   7.447  0.4285 -0.2746  0.1815
15062SOL    HW146020   1.026   3.714   7.410 -0.0693 -0.1915  0.7368
15062SOL    HW246021   1.145   3.802   7.379 -0.0291 -0.6103 -0.3603
15063SOL     OW46022   1.460   6.340   6.664 -0.1246 -0.0491  0.8631
15063SOL    HW146023   1.411   6.363   6.744 -0.6696 -0.7773  0.7412
15063SOL    HW246024   1.503   6.422   6.639 -2.5879  1.0902  0.0424
15064SOL     OW46025   4.709   5.232   4.220  0.0302  0.3860  0.0195
15064SOL    HW146026   4.624   5.225   4.177 -0.3708  1.4055  0.6164
15064SOL    HW246027   4.768   5.182   4.164 -1.2052 -1.5187  0.3491
15065SOL     OW46028   2.536   6.937   2.372 -0.6602 -0.4137  0.5638
15065SOL    HW146029   2.529   6.955   2.466  1.0836  1.7856  0.3787
15065SOL    HW246030   2.514   7.021   2.331  2.1443 -0.2276 -0.7712
15066SOL     OW46031   2.324   1.512   4.317  0.1094 -0.1828  0.4382
15066SOL    HW146032   2.381   1.543   4.387 -0.4117  1.6143  0.1121
15066SOL    HW246033   2.242   1.490   4.360 -0.4213  1.5176  0.3484
15067SOL     OW46034   3.676   3.686   7.804  0.0025 -0.1385 -0.5405
15067SOL    HW146035   3.758   3.641   7.783 -0.6945 -1.7118 -0.0287
15067SOL    HW246036   3.618   3.617   7.837 -1.8811  0.7333 -1.8231
15068SOL     OW46037   4.814   4.405   3.300  0.2796 -0.1971 -0.3711
15068SOL    HW146038   4.799   4.494   3.267 -1.9083 -0.1537  0.5656
15068SOL    HW246039   4.847   4.357   3.225 -1.4980  0.6696 -1.7721
15069SOL     OW46040   3.270   6.229   5.006  0.3134  0.4138 -0.3748
15069SOL    HW146041   3.194   6.189   5.048  0.8347  1.9703  2.2363
15069SOL    HW246042   3.335   6.160   5.004 -0.2722 -0.1582 -0.1397
15070SOL     OW46043   2.184   7.586   0.519 -0.0387 -0.0127  0.6011
15070SOL    HW146044   2.154   7.501   0.485  2.9314 -1.5594  1.5199
15070SOL    HW246045   2.172   7.647   0.446 -0.3436 -1.6819 -0.8066
15071SOL     OW46046   7.623   7.476   7.775  0.6516  0.2536  0.0782
15071SOL    HW146047   7.662   7.455   7.860 -1.5019 -0.8412  0.8918
15071SOL    HW246048   7.597   7.568   7.783  2.3714  0.7972 -0.2402
15072SOL     OW46049   1.837   1.758   2.774  0.5121  0.4393  0.4912
15072SOL    HW146050   1.826   1.664   2.762  0.7064  0.5168 -0.3832
15072SOL    HW246051   1.887   1.766   2.855  0.9403 -0.2398  0.3047
15073SOL     OW46052   4.655   7.787   7.523  0.2276  0.2000 -0.3546
15073SOL    HW146053   4.693   7.710   7.565 -1.6320 -0.4260  0.3011
15073SOL    HW246054   4.722   7.816   7.461  1.7546 -0.7688  0.7579
15074SOL     OW46055   5.109   1.843   4.949 -0.0676  0.0597 -0.2225
15074SOL    HW146056   5.184   1.789   4.973  0.0758  0.4582  0.2543
15074SOL    HW246057   5.123   1.925   4.996 -1.1871 -0.1300  0.4797
15075SOL     OW46058   3.651   2.863   4.164  0.1146 -0.4019  0.0820
15075SOL    HW146059   3.601   2.881   4.085 -0.4243  0.9485  0.6949
15075SOL    HW246060   3.705   2.787   4.142 -0.0205 -0.0516 -1.5657
15076SOL     OW46061   3.422   3.985   6.372 -0.0559  0.1726  0.0348
15076SOL    HW146062   3.423   4.030   6.456  0.0051 -1.7820  1.1511
15076SOL    HW246063   3.331   3.991   6.342 -0.2891  0.0945  0.7144
15077SOL     OW46064   6.090   1.007   0.144 -0.3907  0.2087  0.2173
15077SOL    HW146065   6.012   1.034   0.096 -0.0718  1.5072  0.3835
15077SOL    HW246066   6.162   1.021   0.083 -0.0127  1.6229  0.9505
15078SOL     OW46067   5.029   2.915   5.960  0.1215 -0.5041 -0.4914
15078SOL    HW146068   5.004   2.823   5.969 -0.3099 -0.2681  0.9003
15078SOL    HW246069   5.014   2.935   5.867 -2.4319 -1.0877 -0.2648
15079SOL     OW46070   7.924   5.983   0.950  0.4323 -0.4249 -0.3790
15079SOL    HW146071   7.959   5.993   1.038 -0.8863 -0.6524  0.1992
15079SOL    HW246072   7.841   6.030   0.952  0.1398 -0.8813 -1.3485
15080SOL     OW46073   6.031   1.807   1.717 -0.4104 -0.4784 -0.2226
15080SOL    HW146074   6.063   1.756   1.643  1.0847 -0.0020  0.0632
15080SOL    HW246075   5.992   1.885   1.678 -0.3370 -0.5990 -0.5389
15081SOL     OW46076   6.161   1.107   1.164 -0.1829  0.5071 -0.1782
15081SOL    HW146077   6.156   1.168   1.090  0.0934  2.2020  1.1230
15081SOL    HW246078   6.087   1.133   1.220 -0.8346 -1.2326 -0.1927
15082SOL     OW46079   4.630   1.670   6.629 -0.6651 -0.9349  0.6496
15082SOL    HW146080   4.566   1.700   6.693 -0.1625 -1.3478  1.3602
15082SOL    HW246081   4.712   1.713   6.655 -0.6324 -0.4141 -0.2465
15083SOL     OW46082   2.300   5.945   1.834  0.2739  0.2717 -0.5619
15083SOL    HW146083   2.220   5.895   1.814  0.1736  0.9686 -2.0515
15083SOL    HW246084   2.328   5.980   1.749  1.0506  1.6954  0.2411
15084SOL     OW46085   1.654   7.310   5.875 -0.7793  0.2491  0.2402
15084SOL    HW146086   1.730   7.369   5.881 -1.9918  2.0594 -1.1303
15084SOL    HW246087   1.666   7.264   5.791 -1.4926  1.0420 -0.3151
15085SOL     OW46088   3.589   1.438   5.261 -0.9068  0.7098  0.1758
15085SOL    HW146089   3.523   1.507   5.252 -0.7042  0.9685  0.6186
15085SOL    HW246090   3.601   1.405   5.172 -3.4941 -1.1387  0.4031
15086SOL     OW46091   6.809   4.874   3.736 -0.7665 -0.2717  0.6666
15086SOL    HW146092   6.785   4.838   3.650  0.9410 -0.3944  0.2172
15086SOL    HW246093   6.849   4.800   3.783 -1.2605 -0.0830  1.4116
15087SOL     OW46094   3.204   0.857   4.626  0.2239 -0.4709 -0.1450
15087SOL    HW146095   3.121   0.816   4.598 -0.1972  0.9218 -1.0558
15087SOL    HW246096   3.269   0.820   4.567 -0.1953  0.2825 -1.1275
15088SOL     OW46097   5.077   4.346   5.808  0.2705 -0.3237  0.1907
15088SOL    HW146098   5.070   4.368   5.901  2.2078 -1.1339  0.5901
15088SOL    HW246099   5.073   4.430   5.763  0.7338  0.2229  1.1317
15089SOL     OW46100   3.945   0.954   2.428  0.0305 -0.0431 -0.0510
15089SOL    HW146101   3.852   0.973   2.441  0.7959  2.4141  3.0731
15089SOL    HW246102   3.983   1.037   2.399  1.3687 -0.8339 -0.6553
15090SOL     OW46103   0.027   2.115   2.685 -0.1320  0.7238 -0.4626
15090SOL    HW146104   0.007   2.176   2.614 -1.1724  0.6326 -0.2750
15090SOL    HW246105  -0.039   2.134   2.752  0.3742  0.3082  0.1673
15091SOL     OW46106   6.082   6.274   7.780 -0.1573 -0.1826 -0.4890
15091SOL    HW146107   6.098   6.221   7.858 -1.9303  1.5280  1.1531
15091SOL    HW246108   6.145   6.346   7.787 -0.2318 -0.0963 -0.7102
15092SOL     OW46109   4.817   0.589   1.793  0.0625 -0.1482  0.3957
15092SOL    HW146110   4.730   0.551   1.801 -0.3548  0.5968 -0.3960
15092SOL    HW246111   4.830   0.597   1.698  1.4656 -1.2942  0.4533
15093SOL     OW46112   4.768   2.872   7.158  0.3018  0.0417 -0.1252
15093SOL    HW146113   4.862   2.854   7.165  0.4821  0.7062 -0.8148
15093SOL    HW246114   4.748   2.860   7.066 -0.0938  0.8488 -0.1500
15094SOL     OW46115   0.604   0.146   7.146 -0.1810 -0.5226  0.6316
15094SOL    HW146116   0.664   0.120   7.215 -0.3677 -2.0953  0.2447
15094SOL    HW246117   0.604   0.242   7.148  0.6643 -0.5337  2.0505
15095SOL     OW46118   7.315   0.223   6.453  0.1822 -0.2529 -0.2059
15095SOL    HW146119   7.285   0.180   6.373 -2.8852  2.3845 -0.6658
15095SOL    HW246120   7.260   0.187   6.522 -0.7240  1.0965 -0.1948
15096SOL     OW46121   6.975   6.963   0.265  0.2168  0.0407  0.6192
15096SOL    HW146122   7.057   6.991   0.225  0.1254 -1.6417 -0.8643
15096SOL    HW246123   6.914   6.953   0.192 -1.2843  1.0300  1.6693
15097SOL     OW46124   4.688   3.797   3.531 -0.1685  0.5467  0.1377
15097SOL    HW146125   4.619   3.847   3.487  0.0856  0.2547 -0.6028
15097SOL    HW246126   4.736   3.756   3.460 -0.1538 -0.4698  0.7236
15098SOL     OW46127   2.396   3.791   0.079 -0.2378  0.1827 -0.2281
15098SOL    HW146128   2.446   3.715   0.049  1.7426  2.0887 -2.0932
15098SOL    HW246129   2.432   3.810   0.166  0.3739 -0.0964 -0.4116
15099SOL     OW46130   6.889   0.403   6.075 -0.7843 -0.1758 -0.1153
15099SOL    HW146131   6.898   0.335   6.009  1.1704  0.2902 -0.3720
15099SOL    HW246132   6.817   0.457   6.044 -1.9138 -1.6865 -0.2598
15100SOL     OW46133   7.256   6.604   1.435  0.4334 -0.2984  0.1901
15100SOL    HW146134   7.268   6.673   1.500 -1.7709  0.7389 -0.4274
15100SOL    HW246135   7.206   6.536   1.480 -2.2203  0.9705 -0.6435
15101SOL     OW46136   5.169   0.629   1.508 -0.4040 -0.8403  0.4618
15101SOL    HW146137   5.196   0.543   1.540 -1.0631 -1.3603 -0.3457
15101SOL    HW246138   5.216   0.640   1.425 -0.9986 -0.8066  0.1248
15102SOL     OW46139   0.013   4.405   7.836 -0.3464 -0.3499  0.0866
15102SOL    HW146140   0.008   4.397   7.741 -1.8433  3.9214 -0.4316
15102SOL    HW246141  -0.078   4.393   7.865  0.2419 -2.5635  1.1889
15103SOL     OW46142   1.715   3.762   0.577  0.1505 -0.2153  0.6634
15103SOL    HW146143   1.709   3.680   0.528  0.7874 -0.3254  0.7719
15103SOL    HW246144   1.759   3.739   0.659  1.0144  0.3746  0.3729
15104SOL     OW46145   4.841   6.001   0.649 -0.4603 -0.1755 -0.1784
15104SOL    HW146146   4.785   5.931   0.618 -0.1987 -1.1351  1.3816
15104SOL    HW246147   4.888   6.031   0.572  1.0446 -3.2298 -0.5840
15105SOL     OW46148   3.150   4.276   2.030  0.2230 -0.5665 -0.9424
15105SOL    HW146149   3.230   4.257   1.980  0.7428  1.3641 -0.9265
15105SOL    HW246150   3.177   4.266   2.121  0.3727 -0.2240 -0.9464
15106SOL     OW46151   4.897   6.603   3.968  0.2204 -0.5055  0.1269
15106SOL    HW146152   4.867   6.621   3.879 -0.8791 -2.7943 -0.0187
15106SOL    HW246153   4.988   6.634   3.969  0.0437  0.1677 -1.5599
15107SOL     OW46154   5.340   6.298   5.260  0.8094 -0.0244  0.0745
15107SOL    HW146155   5.288   6.359   5.312  1.0307 -1.7525  2.4883
15107SOL    HW246156   5.418   6.281   5.313 -0.1106 -3.8162  0.5161
15108SOL     OW46157   3.857   4.614   7.094  0.2220 -0.4378  0.3064
15108SOL    HW146158   3.785   4.607   7.032 -0.5464  1.3632  0.9088
15108SOL    HW246159   3.933   4.580   7.047 -0.8397 -1.5723 -0.6486
15109SOL     OW46160   4.016   0.115   3.409  0.3064  0.6382 -0.2869
15109SOL    HW146161   3.936   0.090   3.456 -0.3921  0.4897 -1.5217
15109SOL    HW246162   4.056   0.181   3.465  2.1173 -2.8474  3.0378
15110SOL     OW46163   6.259   1.040   2.392 -0.3720 -0.2314 -0.3163
15110SOL    HW146164   6.295   0.955   2.415 -1.9317 -1.2697 -1.4798
15110SOL    HW246165   6.217   1.071   2.472  2.2540  0.6487  0.8302
15111SOL     OW46166   5.723   1.966   7.696  0.2306 -0.4028  0.0875
15111SOL    HW146167   5.658   1.960   7.625  0.7824  0.7466 -0.5492
15111SOL    HW246168   5.799   1.918   7.662 -0.2618 -1.7436  0.8304
15112SOL     OW46169   6.788   6.832   5.132 -0.0602 -0.4838  0.2919
15112SOL    HW146170   6.788   6.829   5.036 -0.8880 -0.3554  0.2822
15112SOL    HW246171   6.872   6.871   5.155 -0.4596  0.8276 -0.4275
15113SOL     OW46172   0.465   3.265   5.084 -0.4300  0.2423  0.2889
15113SOL    HW146173   0.551   3.305   5.096 -2.1242  4.1848  0.9477
15113SOL    HW246174   0.458   3.251   4.989  1.3785 -1.5768  0.3486
15114SOL     OW46175   6.385   5.235   7.741  0.2219 -0.1633 -0.3372
15114SOL    HW146176   6.395   5.228   7.646  3.0869  0.2469 -0.1393
15114SOL    HW246177   6.388   5.330   7.757  1.1511 -0.2873  0.2586
15115SOL     OW46178   5.842   5.127   0.227 -0.7226 -1.0486  0.6158
15115SOL    HW146179   5.924   5.111   0.181 -0.8761  0.1425 -0.1169
15115SOL    HW246180   5.864   5.117   0.319  0.5174  0.2342  0.4979
15116SOL     OW46181   4.912   6.012   2.356 -0.3391  0.6570  0.4601
15116SOL    HW146182   4.828   6.009   2.310 -0.0139 -0.7142 -0.0987
15116SOL    HW246183   4.911   5.935   2.413  0.6410  0.4706  0.2435
15117SOL     OW46184   2.642   5.786   1.369  0.1952  0.2184  0.8856
15117SOL    HW146185   2.563   5.813   1.322 -0.3734 -1.0753  1.0538
15117SOL    HW246186   2.625   5.811   1.460 -0.2078 -0.4387  0.9936
15118SOL     OW46187   4.970   2.832   1.857  0.1378  0.7481  0.3828
15118SOL    HW146188   4.881   2.801   1.839  0.5974  0.8307 -2.5100
15118SOL    HW246189   4.992   2.793   1.942 -2.4775  0.4211  1.0076
15119SOL     OW46190   1.206   4.993   0.608  0.0912  0.3062 -0.6384
15119SOL    HW146191   1.238   4.923   0.552  0.5603 -0.3470  0.4120
15119SOL    HW246192   1.246   5.072   0.574  1.6462 -0.2921 -0.2751
15120SOL     OW46193   2.987   2.697   5.002 -0.0322 -0.1360  0.3619
15120SOL    HW146194   3.075   2.661   4.997  0.2957  0.5530  1.0021
15120SOL    HW246195   2.986   2.748   5.083  0.1585  2.8984 -1.3878
15121SOL     OW46196   4.709   2.050   1.582 -0.0446  0.1697  0.1332
15121SOL    HW146197   4.750   2.102   1.651 -1.4394  0.4762  0.7789
15121SOL    HW246198   4.642   1.999   1.628 -0.5568 -0.1122 -0.9008
15122SOL     OW46199   5.159   3.356   0.757 -0.2758  0.0147 -0.5222
15122SOL    HW146200   5.227   3.319   0.701 -0.8980 -0.2075 -1.1467
15122SOL    HW246201   5.202   3.429   0.802  0.8602 -1.2261  0.4710
15123SOL     OW46202   5.846   1.278   1.621  0.3235  0.3687 -0.4733
15123SOL    HW146203   5.938   1.252   1.612  0.8228  2.1371 -0.8848
15123SOL    HW246204   5.826   1.262   1.713  1.3625  0.9111 -0.1350
15124SOL     OW46205   4.467   0.406   2.940  0.2095 -0.1939  0.9127
15124SOL    HW146206   4.530   0.449   2.881  0.5123 -1.9547 -0.1087
15124SOL    HW246207   4.436   0.331   2.891 -0.4910 -1.0217  2.5573
15125SOL     OW46208   6.098   7.582   2.267  0.2017 -0.2405 -0.6320
15125SOL    HW146209   6.014   7.560   2.227  0.3429  0.9832 -1.6956
15125SOL    HW246210   6.163   7.542   2.209  0.3759  0.4324 -0.9153
15126SOL     OW46211   2.561   4.055   4.311  0.6790 -0.1501 -0.3328
15126SOL    HW146212   2.589   3.986   4.371  0.0096 -0.9539 -0.9154
15126SOL    HW246213   2.598   4.030   4.226  0.3964  0.1783 -0.5565
15127SOL     OW46214   0.440   0.188   3.837 -0.1573  0.6820  0.3497
15127SOL    HW146215   0.475   0.275   3.859  1.4024 -0.0814  1.0664
15127SOL    HW246216   0.349   0.204   3.813  0.5969  2.7696 -1.4131
15128SOL     OW46217   6.339   3.054   6.286 -0.3852 -0.1283 -0.0701
15128SOL    HW146218   6.302   3.081   6.371  0.7927  2.3497 -0.2520
15128SOL    HW246219   6.301   3.115   6.223  1.6267  0.5355 -0.7110
15129SOL     OW46220   0.182   5.172   1.519 -0.6347  0.3309 -0.0375
15129SOL    HW146221   0.267   5.190   1.479 -1.4576 -0.0808 -2.0934
15129SOL    HW246222   0.203   5.122   1.598  0.9731 -1.4364 -1.4994
15130SOL     OW46223   0.790   0.583   0.486  0.0292  0.2213 -0.6699
15130SOL    HW146224   0.772   0.526   0.561  0.8752  0.3172 -0.3844
15130SOL    HW246225   0.816   0.666   0.526  0.8976  0.1448 -1.0606
15131SOL     OW46226   3.880   1.250   5.357 -0.3610 -0.3289  0.2923
15131SOL    HW146227   3.799   1.277   5.399  0.2134 -0.0048  1.2365
15131SOL    HW246228   3.856   1.232   5.267 -1.0662  1.8843 -0.0182
15132SOL     OW46229   4.649   4.219   2.056 -0.1261 -0.1914 -0.3195
15132SOL    HW146230   4.592   4.295   2.043 -0.2068 -0.5251 -2.2142
15132SOL    HW246231   4.599   4.161   2.113 -1.2036  0.0572 -0.9746
15133SOL     OW46232   4.758   4.859   7.816  0.0159 -0.6387 -0.0978
15133SOL    HW146233   4.714   4.898   7.741 -1.0327 -1.6962 -0.0594
15133SOL    HW246234   4.827   4.805   7.778  3.0187  2.8025 -0.1129
15134SOL     OW46235   0.746   4.310   6.102  0.6633  0.2201  0.1657
15134SOL    HW146236   0.778   4.269   6.182  1.8571  0.5427 -0.1234
15134SOL    HW246237   0.730   4.237   6.042  1.6001  0.0797  0.0690
15135SOL     OW46238   2.704   7.000   2.040  0.0930  0.2609 -0.0718
15135SOL    HW146239   2.755   6.952   2.106 -0.2753  0.4033  0.3248
15135SOL    HW246240   2.724   7.092   2.058  0.0387  0.2969 -0.1986
15136SOL     OW46241   4.356   7.297   7.225 -0.0842  0.7949  0.0232
15136SOL    HW146242   4.408   7.228   7.185  0.7469  1.0266  0.6613
15136SOL    HW246243   4.277   7.303   7.171 -0.6190 -1.2778  0.4935
15137SOL     OW46244   2.535   6.026   6.551 -0.3848 -0.0387 -0.1596
15137SOL    HW146245   2.567   6.033   6.461 -1.6996  1.1637 -0.5664
15137SOL    HW246246   2.461   5.965   6.545  0.7236 -1.4910  0.4762
15138SOL     OW46247   4.384   1.230   5.096 -0.1456  0.1156 -0.1040
15138SOL    HW146248   4.345   1.291   5.033  0.6533  0.0839 -0.6477
15138SOL    HW246249   4.470   1.269   5.115 -0.5934  0.4273  1.4087
15139SOL     OW46250   3.541   7.134   1.121  0.0277  0.1049 -0.5957
15139SOL    HW146251   3.586   7.157   1.039 -0.6786  0.0369 -1.0134
15139SOL    HW246252   3.460   7.093   1.092 -0.3638  0.3459  0.1460
15140SOL     OW46253   5.552   3.633   2.531 -0.1119 -0.8223 -0.7667
15140SOL    HW146254   5.509   3.599   2.609  1.3540 -0.6664  0.1326
15140SOL    HW246255   5.510   3.586   2.459 -0.7460 -1.7405  0.1692
15141SOL     OW46256   7.451   0.082   5.056  0.0275  0.0413 -0.2059
15141SOL    HW146257   7.367   0.112   5.020 -0.7025  0.6791  1.8468
15141SOL    HW246258   7.468  -0.001   5.012 -1.8697 -0.2710 -0.4549
15142SOL     OW46259   3.675   2.446   2.950  0.4744  0.0228 -0.5007
15142SOL    HW146260   3.744   2.381   2.967 -0.0020 -0.4141 -0.1912
15142SOL    HW246261   3.661   2.441   2.856  0.4083 -0.3716 -0.4755
15143SOL     OW46262   5.461   6.595   0.165 -0.1797  0.7085  0.0863
15143SOL    HW146263   5.380   6.643   0.148  0.2102  2.2388  2.2288
15143SOL    HW246264   5.530   6.653   0.133  0.2015  0.7436  0.9619
15144SOL     OW46265   4.587   5.467   1.318  0.0983 -0.3979 -0.1437
15144SOL    HW146266   4.551   5.553   1.295  0.2138 -0.3550 -0.1651
15144SOL    HW246267   4.511   5.408   1.317 -0.1721 -0.1053  0.8886
15145SOL     OW46268   2.722   2.877   1.099  0.1446 -0.0156 -0.0032
15145SOL    HW146269   2.786   2.808   1.079  0.7582  0.3007  0.8079
15145SOL    HW246270   2.769   2.938   1.156 -0.7287  0.4972  0.1940
15146SOL     OW46271   5.480   1.761   2.205 -0.5074 -0.0883 -0.1918
15146SOL    HW146272   5.539   1.778   2.133 -0.2139 -3.1331 -0.7898
15146SOL    HW246273   5.393   1.759   2.166 -0.7388  1.5926  0.1851
15147SOL     OW46274   6.002   1.337   6.756  0.4341  0.1278  0.4391
15147SOL    HW146275   6.047   1.398   6.697  0.2551  0.2390  0.4185
15147SOL    HW246276   5.922   1.314   6.710  0.4508 -0.0406  0.4941
15148SOL     OW46277   1.083   6.318   5.553  0.2736 -0.2617 -0.3956
15148SOL    HW146278   1.143   6.393   5.558 -0.0138 -0.0986  1.1757
15148SOL    HW246279   1.000   6.357   5.526  0.1394 -0.0101  0.3579
15149SOL     OW46280   3.907   7.608   2.078 -0.0047 -0.1838 -0.6885
15149SOL    HW146281   3.836   7.587   2.139  0.4460  1.7421  0.6165
15149SOL    HW246282   3.868   7.671   2.016 -0.0995 -1.1027 -1.5831
15150SOL     OW46283   0.996   7.697   0.574 -0.3971 -0.4433 -0.7456
15150SOL    HW146284   1.071   7.678   0.630  0.3161  0.3514 -1.4039
15150SOL    HW246285   0.923   7.712   0.634 -0.2419 -2.0137 -0.1143
15151SOL     OW46286   1.302   4.055   2.814 -0.1649  0.0869 -0.2583
15151SOL    HW146287   1.299   3.962   2.795 -0.4109 -0.1311  0.7942
15151SOL    HW246288   1.212   4.078   2.837  0.0005  0.4612  0.0257
15152SOL     OW46289   2.081   6.070   6.102 -0.3603  0.0585 -0.0373
15152SOL    HW146290   2.068   6.074   6.197 -0.3688  0.2113 -0.0438
15152SOL    HW246291   2.109   6.159   6.079 -0.5090  0.0623 -0.1999
15153SOL     OW46292   7.675   1.960   1.135  0.2444 -0.2144  0.0371
15153SOL    HW146293   7.706   2.042   1.097 -0.0881  0.0747  0.3782
15153SOL    HW246294   7.748   1.899   1.124  0.6624  0.2521  0.1929
15154SOL     OW46295   3.136   4.471   4.600  0.3374  0.2223 -0.0734
15154SOL    HW146296   3.160   4.462   4.508  1.1600 -0.5605  0.2009
15154SOL    HW246297   3.181   4.551   4.629 -0.7001  1.0071 -0.5771
15155SOL     OW46298   5.089   1.374   5.725  0.0734 -0.2806  0.3098
15155SOL    HW146299   5.087   1.284   5.693  0.2510  0.1849 -1.0574
15155SOL    HW246300   5.136   1.369   5.808  0.1281 -1.4336  0.2254
15156SOL     OW46301   6.250   2.325   1.514  0.3378  0.0718  0.0607
15156SOL    HW146302   6.291   2.397   1.563  0.7460 -0.3490  0.3434
15156SOL    HW246303   6.189   2.286   1.576  1.3205 -0.8680  0.4556
15157SOL     OW46304   6.166   2.588   0.096  0.1154  0.2261  0.2126
15157SOL    HW146305   6.207   2.553   0.016  1.8122  3.7180 -0.6374
15157SOL    HW246306   6.078   2.614   0.068  1.4932  3.7389 -1.4315
15158SOL     OW46307   7.431   4.251   0.158  0.0267 -0.4412 -0.1968
15158SOL    HW146308   7.488   4.181   0.189 -0.7623 -0.8504  0.3734
15158SOL    HW246309   7.343   4.222   0.181 -0.3319  0.6512 -0.1257
15159SOL     OW46310   3.834   3.923   4.067 -0.5118 -0.1670  0.4097
15159SOL    HW146311   3.907   3.940   4.008 -0.5264  1.7280  0.8889
15159SOL    HW246312   3.854   3.838   4.106  0.6741 -0.3580 -0.5661
15160SOL     OW46313   6.921   7.752   3.684 -0.3495  0.7758 -0.0483
15160SOL    HW146314   7.009   7.716   3.695 -0.9861 -0.5325  1.1306
15160SOL    HW246315   6.916   7.823   3.748  1.2568  3.8731 -3.0679
15161SOL     OW46316   4.777   4.735   5.380 -0.0376 -0.1880  0.1420
15161SOL    HW146317   4.774   4.646   5.414 -0.7750 -1.0042 -1.8745
15161SOL    HW246318   4.687   4.755   5.354  0.5762 -0.0128 -2.0882
15162SOL     OW46319   1.849   3.357   1.251  0.0218 -0.4932 -0.4322
15162SOL    HW146320   1.771   3.362   1.195  0.3054  0.4474 -0.7613
15162SOL    HW246321   1.888   3.273   1.230 -0.9287 -1.0012 -0.2302
15163SOL     OW46322   5.341   4.868   3.096  0.3961  0.6347 -0.7767
15163SOL    HW146323   5.304   4.938   3.150  0.4065  0.9243 -1.1425
15163SOL    HW246324   5.418   4.908   3.054  0.3219  0.4466 -1.0967
15164SOL     OW46325   6.973   5.692   7.330 -0.0666 -0.3671 -0.1577
15164SOL    HW146326   7.055   5.733   7.304  0.6060 -0.8456  1.0933
15164SOL    HW246327   6.957   5.625   7.264 -0.3218  0.8136 -1.3143
15165SOL     OW46328   1.148   2.749   6.142 -0.6380 -0.3301 -0.3417
15165SOL    HW146329   1.078   2.759   6.077 -0.7738 -0.3868 -0.2028
15165SOL    HW246330   1.227   2.780   6.096 -0.9540  0.8809 -0.1117
15166SOL     OW46331   7.807   4.324   4.657  0.1772 -0.0443  0.6331
15166SOL    HW146332   7.864   4.284   4.723 -1.0934 -1.3686  0.9849
15166SOL    HW246333   7.867   4.369   4.598  1.3159  2.9839  3.7670
15167SOL     OW46334   1.964   3.798   3.647  0.2953 -0.1704  0.5074
15167SOL    HW146335   2.060   3.805   3.643  0.2449  0.2757  0.1023
15167SOL    HW246336   1.937   3.781   3.557 -0.0148 -0.2324  0.6116
15168SOL     OW46337   4.505   7.545   1.968  0.3601  0.2487 -0.0075
15168SOL    HW146338   4.493   7.547   1.873  0.9884  1.6046 -0.0715
15168SOL    HW246339   4.562   7.619   1.987 -1.7615  1.5886  1.6913
15169SOL     OW46340   4.253   5.138   3.192 -0.1387 -0.6239  0.9334
15169SOL    HW146341   4.213   5.184   3.266 -0.8779  0.8698 -0.3595
15169SOL    HW246342   4.191   5.150   3.120  1.1170 -1.0681 -0.2465
15170SOL     OW46343   0.159   1.970   3.404 -0.1552  0.1205  0.4599
15170SOL    HW146344   0.143   2.059   3.436  1.0269  0.4891  0.0654
15170SOL    HW246345   0.130   1.972   3.313 -1.7998 -0.4194  0.9360
15171SOL     OW46346   6.291   6.496   3.564  0.3106 -0.4077  0.0658
15171SOL    HW146347   6.373   6.505   3.611  0.0682 -0.0055  0.4129
15171SOL    HW246348   6.237   6.568   3.594  0.5568  0.5808 -1.6938
15172SOL     OW46349   5.256   7.141   1.157  0.2973  0.1663  0.0857
15172SOL    HW146350   5.203   7.062   1.157  1.2142 -0.4747  0.0921
15172SOL    HW246351   5.346   7.109   1.146  0.6366  1.2402 -0.3929
15173SOL     OW46352   5.293   3.135   1.742  0.0696 -0.0268 -0.2263
15173SOL    HW146353   5.241   3.058   1.719  2.2945 -1.3402 -1.2223
15173SOL    HW246354   5.300   3.132   1.837 -0.4424 -0.6641 -0.2024
15174SOL     OW46355   4.204   7.376   3.560 -0.6419  0.3491 -0.1142
15174SOL    HW146356   4.142   7.308   3.586 -0.6575  1.0207  1.7874
15174SOL    HW246357   4.201   7.376   3.464 -1.7086 -1.3164 -0.1244
15175SOL     OW46358   2.399   6.499   3.836 -0.2982  0.0671 -0.1850
15175SOL    HW146359   2.321   6.548   3.861 -0.1470  0.6279 -0.7842
15175SOL    HW246360   2.442   6.554   3.770 -0.9700 -1.5950 -2.0968
15176SOL     OW46361   4.594   0.926   0.480 -0.1630 -0.4723 -0.1328
15176SOL    HW146362   4.535   0.887   0.415 -0.9242  1.1693 -0.4814
15176SOL    HW246363   4.628   1.005   0.437 -0.8319  0.7603  1.4861
15177SOL     OW46364   3.743   3.359   6.217  0.1790  1.3182 -0.5936
15177SOL    HW146365   3.755   3.444   6.259 -3.3963  1.0657  1.3145
15177SOL    HW246366   3.687   3.377   6.142  1.0739  0.8473 -1.4021
15178SOL     OW46367   5.719   5.447   1.866  0.3395 -0.7176  0.2623
15178SOL    HW146368   5.668   5.437   1.786  1.3522  0.8693 -0.6280
15178SOL    HW246369   5.801   5.486   1.838  0.1545  1.2870  2.2258
15179SOL     OW46370   6.261   4.785   0.925 -0.0785 -0.3130 -0.4226
15179SOL    HW146371   6.168   4.762   0.916 -0.7682  1.8569  0.6452
15179SOL    HW246372   6.261   4.877   0.949  2.3325 -0.5304  0.6837
15180SOL     OW46373   4.121   3.434   0.042  0.3015  0.0180 -0.0847
15180SOL    HW146374   4.066   3.510   0.022  1.0194  0.0542 -2.2063
15180SOL    HW246375   4.202   3.472   0.077  0.1528  0.1571  0.1103
15181SOL     OW46376   3.153   6.129   2.142 -0.5209 -0.6026  0.0529
15181SOL    HW146377   3.214   6.061   2.113 -0.2178  0.0876 -1.0343
15181SOL    HW246378   3.175   6.144   2.234  1.9956  0.6382 -0.6531
15182SOL     OW46379   4.230   6.091   7.385 -0.4787  0.0676 -0.8179
15182SOL    HW146380   4.226   6.186   7.382  0.7561  0.1441 -3.3733
15182SOL    HW246381   4.301   6.071   7.446  0.2082  0.8589 -1.3426
15183SOL     OW46382   7.565   3.385   1.322  0.0527 -0.3645  0.2768
15183SOL    HW146383   7.601   3.359   1.237  0.7287  2.9353 -0.5905
15183SOL    HW246384   7.484   3.429   1.300  0.5542  1.0872  1.2424
15184SOL     OW46385   0.087   0.832   1.927  0.2558 -0.2401  0.0101
15184SOL    HW146386   0.179   0.812   1.909  0.7011  0.7530  1.0914
15184SOL    HW246387   0.053   0.752   1.968  0.7516 -0.4536  0.0160
15185SOL     OW46388   4.133   3.516   7.694 -0.1606  0.0574  0.0029
15185SOL    HW146389   4.200   3.528   7.626  1.0064 -4.0056  0.1969
15185SOL    HW246390   4.158   3.576   7.763  1.0809  1.2772 -1.4331
15186SOL     OW46391   4.258   0.965   6.695  0.0905 -0.0394  0.0969
15186SOL    HW146392   4.322   1.030   6.665 -0.0951  0.8885  1.5876
15186SOL    HW246393   4.178   0.985   6.647 -0.0611  1.0815  0.7731
15187SOL     OW46394   6.771   4.037   2.701 -0.3944 -0.3007  0.0389
15187SOL    HW146395   6.772   3.949   2.663  0.8712 -0.0463 -0.5532
15187SOL    HW246396   6.683   4.070   2.680 -2.0732 -2.4792  2.8582
15188SOL     OW46397   1.962   6.125   7.727 -0.0174  0.2273 -0.9379
15188SOL    HW146398   2.029   6.108   7.661  0.4272  1.4474 -0.8276
15188SOL    HW246399   1.919   6.206   7.697  0.4305  0.9971  0.4247
15189SOL     OW46400   2.191   1.384   3.314 -0.1386  0.7950 -0.4027
15189SOL    HW146401   2.263   1.329   3.284 -1.5071 -1.1513 -0.2884
15189SOL    HW246402   2.175   1.357   3.404  0.8109  3.2480  0.5913
15190SOL     OW46403   7.860   7.680   6.821  0.5622 -0.3116  0.2668
15190SOL    HW146404   7.806   7.607   6.850 -1.1965  0.8774  0.1400
15190SOL    HW246405   7.876   7.732   6.900 -0.2495  0.4195 -0.0258
15191SOL     OW46406   1.340   4.835   5.566 -0.4184  0.3501 -0.2903
15191SOL    HW146407   1.408   4.868   5.506 -0.6579  1.8623  0.2134
15191SOL    HW246408   1.353   4.741   5.568  2.3506  0.6623  0.5761
15192SOL     OW46409   2.542   3.622   3.475 -0.0627  0.2305 -0.1599
15192SOL    HW146410   2.517   3.574   3.397  0.2482  0.9595 -0.7192
15192SOL    HW246411   2.517   3.565   3.548 -1.7189  0.1876 -0.7321
15193SOL     OW46412   5.598   0.405   7.426 -0.0391  0.2401 -0.0119
15193SOL    HW146413   5.610   0.496   7.397 -3.4336  1.0165  0.5881
15193SOL    HW246414   5.570   0.359   7.347 -0.8573  0.3687  0.1884
15194SOL     OW46415   2.374   5.936   7.889  0.5382  0.1213 -0.7069
15194SOL    HW146416   2.407   5.918   7.802 -0.3579  3.1340 -1.7766
15194SOL    HW246417   2.452   5.946   7.943  1.1377 -0.1401 -1.5042
15195SOL     OW46418   1.773   7.658   3.057 -0.3847  0.1409  0.5225
15195SOL    HW146419   1.749   7.696   2.973 -1.7296 -0.6320  0.5274
15195SOL    HW246420   1.868   7.649   3.053 -0.5179 -0.9086 -1.3845
15196SOL     OW46421   5.579   6.250   5.375  0.2866 -0.0655 -0.2241
15196SOL    HW146422   5.617   6.320   5.427 -0.0198  0.0086 -0.0967
15196SOL    HW246423   5.623   6.255   5.290 -0.2748  0.7715 -0.4741
15197SOL     OW46424   1.604   5.088   3.568  0.3403 -0.3739 -0.1653
15197SOL    HW146425   1.658   5.069   3.492  1.1321  0.9119  0.0416
15197SOL    HW246426   1.650   5.047   3.641  0.2890 -0.4573 -0.1790
15198SOL     OW46427   3.724   1.200   7.300 -0.0741  0.0033 -0.5791
15198SOL    HW146428   3.740   1.138   7.371  0.4535  1.3486  0.5410
15198SOL    HW246429   3.660   1.157   7.244 -2.1123 -0.3115  1.7982
15199SOL     OW46430   5.650   2.457   6.234  0.0669  0.0284 -0.4095
15199SOL    HW146431   5.740   2.432   6.253  0.9790  3.0808 -0.1807
15199SOL    HW246432   5.607   2.460   6.319  0.6308  1.3951 -0.1370
15200SOL     OW46433   4.379   3.350   3.344  0.3672 -0.7165 -0.2783
15200SOL    HW146434   4.380   3.343   3.249  3.5853 -0.3485 -0.3984
15200SOL    HW246435   4.384   3.444   3.361  0.6013 -0.8143  0.2089
15201SOL     OW46436   3.100   1.631   5.682  0.1133  0.2588 -0.2085
15201SOL    HW146437   3.140   1.556   5.726  1.0838  0.3126 -0.9806
15201SOL    HW246438   3.136   1.707   5.728  1.4744  0.3288 -1.3519
15202SOL     OW46439   4.629   6.699   0.247 -0.2639  0.1201 -0.5708
15202SOL    HW146440   4.648   6.703   0.153 -1.0595 -0.8965 -0.8014
15202SOL    HW246441   4.535   6.719   0.253 -0.7665 -2.0177 -0.2709
15203SOL     OW46442   5.927   0.563   3.569 -0.2294 -0.2482  0.1350
15203SOL    HW146443   5.970   0.479   3.552  1.0742  0.0873  1.5571
15203SOL    HW246444   5.878   0.548   3.650  1.1939  0.7320  1.2173
15204SOL     OW46445   3.939   2.361   2.253  0.1042  0.4939  0.2370
15204SOL    HW146446   3.946   2.266   2.259 -0.3171  0.4180 -0.3548
15204SOL    HW246447   3.862   2.376   2.198  0.2280  1.1790  0.2386
15205SOL     OW46448   7.833   1.541   7.267 -0.0750  0.2934 -0.2210
15205SOL    HW146449   7.770   1.538   7.194 -0.1066 -0.1838 -0.1733
15205SOL    HW246450   7.779   1.548   7.345 -0.1611 -1.8017 -0.0396
15206SOL     OW46451   7.375   1.326   5.695  0.2632  0.9514 -0.6077
15206SOL    HW146452   7.366   1.412   5.738  0.4279 -0.1866  1.8925
15206SOL    HW246453   7.321   1.267   5.749  0.0544 -0.5207 -2.3426
15207SOL     OW46454   0.625   1.223   6.959  0.0113  0.4084  0.2995
15207SOL    HW146455   0.542   1.247   6.918  0.2605  0.4378 -0.1865
15207SOL    HW246456   0.649   1.301   7.010 -0.2843  0.3792  0.4871
15208SOL     OW46457   1.030   1.639   4.034  0.5193 -0.8813 -0.4097
15208SOL    HW146458   0.986   1.590   3.965 -0.5803 -0.8057  0.2175
15208SOL    HW246459   1.114   1.595   4.046  0.0780 -1.8218 -0.7310
15209SOL     OW46460   4.450   7.939   5.878 -1.0847 -0.3687 -0.2360
15209SOL    HW146461   4.511   8.012   5.870  0.1726 -1.1654  1.5563
15209SOL    HW246462   4.363   7.980   5.877 -0.4135  1.1407  0.7152
15210SOL     OW46463   6.881   2.424   1.716 -0.2386  0.2221  0.5715
15210SOL    HW146464   6.840   2.342   1.690 -1.5640  1.3025 -0.9289
15210SOL    HW246465   6.895   2.471   1.634 -0.7596  2.0473  1.4717
15211SOL     OW46466   7.511   3.287   2.602 -0.1056  0.7072  0.2826
15211SOL    HW146467   7.568   3.360   2.577 -0.0796  0.3783 -0.6563
15211SOL    HW246468   7.569   3.211   2.604 -0.4197  0.4505 -0.2349
15212SOL     OW46469   2.027   4.685   5.910  0.1113  0.2145 -0.4478
15212SOL    HW146470   2.065   4.739   5.979  0.1043  0.1528 -0.3951
15212SOL    HW246471   1.933   4.702   5.917  0.0537 -0.2557 -0.0427
15213SOL     OW46472   6.959   1.343   3.485  0.3545 -0.1881  0.1727
15213SOL    HW146473   6.904   1.282   3.437 -0.2807  1.3927 -1.2022
15213SOL    HW246474   6.958   1.423   3.433  0.4793  1.2969  2.3117
15214SOL     OW46475   5.504   5.388   5.027 -0.0267  0.8345  0.3386
15214SOL    HW146476   5.468   5.424   5.108 -1.2869  0.5668 -0.0832
15214SOL    HW246477   5.563   5.457   4.995 -1.0314  1.7927  0.4773
15215SOL     OW46478   3.561   3.401   2.122  0.3004  0.1819 -0.0010
15215SOL    HW146479   3.556   3.493   2.097  0.1751  0.2985  0.4333
15215SOL    HW246480   3.648   3.391   2.162 -0.1911  0.4465  1.1922
15216SOL     OW46481   4.675   2.890   6.558  0.3402 -0.4397 -0.0145
15216SOL    HW146482   4.768   2.888   6.577  0.1554  0.1871  1.0550
15216SOL    HW246483   4.668   2.869   6.465  1.7125  1.5740 -0.6400
15217SOL     OW46484   4.017   5.208   4.552  0.4637 -0.1200  0.2185
15217SOL    HW146485   4.064   5.287   4.580 -0.1159  0.3095 -0.0098
15217SOL    HW246486   4.086   5.145   4.532  0.9295 -0.2002  1.8923
15218SOL     OW46487   4.846   1.220   5.387 -0.4176 -0.3075  0.8661
15218SOL    HW146488   4.779   1.160   5.356 -0.7083 -0.0349  0.9687
15218SOL    HW246489   4.926   1.192   5.342 -0.8659  0.1932 -0.2723
15219SOL     OW46490   5.388   5.910   4.976 -0.1060 -0.1139  0.0871
15219SOL    HW146491   5.348   5.982   5.025  0.5507  0.8199 -0.7249
15219SOL    HW246492   5.329   5.836   4.990 -1.8494  1.0782 -0.6510
15220SOL     OW46493   6.784   0.137   6.677  0.3238 -0.7177  0.1310
15220SOL    HW146494   6.864   0.150   6.625  0.2372  1.5012  0.4610
15220SOL    HW246495   6.727   0.087   6.619  0.6672  0.6776 -1.5139
15221SOL     OW46496   2.127   4.182   6.038  0.2219  0.0131  0.2232
15221SOL    HW146497   2.106   4.274   6.024  1.1809  0.3477  0.8191
15221SOL    HW246498   2.220   4.182   6.061  0.7924 -1.2980 -1.7677
15222SOL     OW46499   3.732   5.358   5.601  0.1585 -0.2012 -0.4822
15222SOL    HW146500   3.692   5.291   5.657  1.4852 -0.4945  0.1629
15222SOL    HW246501   3.814   5.318   5.570 -0.2042  0.2282 -2.0831
15223SOL     OW46502   6.490   2.556   6.280 -0.5227  0.6592  0.3834
15223SOL    HW146503   6.409   2.512   6.306  0.3986 -0.9780  0.6369
15223SOL    HW246504   6.558   2.491   6.297  0.4715  0.4923 -3.4205
15224SOL     OW46505   1.111   6.760   1.416 -0.0764  0.1761 -0.2033
15224SOL    HW146506   1.072   6.846   1.432  0.4308  0.6541 -1.4750
15224SOL    HW246507   1.177   6.751   1.485 -0.8615  0.3261  0.5924
15225SOL     OW46508   3.690   3.598   3.609  0.5679 -0.1868 -0.2948
15225SOL    HW146509   3.624   3.589   3.677  0.4974 -1.8474 -0.5446
15225SOL    HW246510   3.674   3.524   3.550  2.2792 -0.3112 -0.6578
15226SOL     OW46511   7.275   1.232   4.649  0.8317 -0.3271  0.2657
15226SOL    HW146512   7.348   1.185   4.690 -0.1214  0.2748  2.8635
15226SOL    HW246513   7.224   1.163   4.606  1.5986 -1.0820  0.5150
15227SOL     OW46514   4.056   4.103   2.197 -0.5310 -0.2086 -0.4387
15227SOL    HW146515   4.089   4.179   2.149  0.2447 -0.2568  0.0042
15227SOL    HW246516   3.961   4.117   2.202 -0.3664  0.8837 -0.1103
15228SOL     OW46517   3.438   2.660   6.345  0.0942  0.0190 -0.1202
15228SOL    HW146518   3.437   2.581   6.290  0.4929 -0.1410  0.0969
15228SOL    HW246519   3.346   2.687   6.350 -0.2596 -1.2788  1.0040
15229SOL     OW46520   3.680   0.561   7.453  0.3841  0.0825  0.2943
15229SOL    HW146521   3.698   0.517   7.536 -1.8127 -1.3539  0.0851
15229SOL    HW246522   3.629   0.638   7.478  0.8834  0.3927  0.3669
15230SOL     OW46523   6.908   1.559   0.868 -0.3570  0.0463  0.2923
15230SOL    HW146524   6.879   1.522   0.952 -0.2544  0.2099  0.3984
15230SOL    HW246525   6.828   1.565   0.816 -0.5087  0.4522  0.5692
15231SOL     OW46526   1.289   5.402   7.611 -0.2247  0.0797 -0.1041
15231SOL    HW146527   1.373   5.448   7.616 -0.5888  0.8837 -1.0079
15231SOL    HW246528   1.225   5.471   7.594 -1.2880 -0.3325  1.9307
15232SOL     OW46529   6.665   0.901   6.336  0.3882 -0.0578  0.2849
15232SOL    HW146530   6.653   0.962   6.408  0.8821  0.0248  0.3016
15232SOL    HW246531   6.603   0.930   6.269  1.0296  0.8243  0.0619
15233SOL     OW46532   3.389   5.229   7.171 -0.1436 -0.2143  0.0939
15233SOL    HW146533   3.404   5.141   7.137  0.7303  0.3948 -1.1896
15233SOL    HW246534   3.476   5.269   7.175 -0.4500  0.4124  1.2253
15234SOL     OW46535   7.879   6.125   4.043 -0.4189 -0.1895  0.5232
15234SOL    HW146536   7.818   6.058   4.073 -0.3667 -0.4643  0.0233
15234SOL    HW246537   7.858   6.136   3.950 -1.6431  1.7619  0.9542
15235SOL     OW46538   4.991   2.295   7.245  0.6990 -0.2289 -0.5314
15235SOL    HW146539   4.939   2.241   7.186 -0.0787 -0.3102  0.1986
15235SOL    HW246540   4.991   2.246   7.328  1.8390 -0.1656 -0.4846
15236SOL     OW46541   0.925   5.804   0.002  0.1919 -0.2300  0.7254
15236SOL    HW146542   1.001   5.746  -0.007 -1.0622 -2.1239  1.4798
15236SOL    HW246543   0.900   5.825  -0.088  1.7159  0.6244  0.4734
15237SOL     OW46544   6.068   1.054   6.241  0.1028 -0.0725 -0.3708
15237SOL    HW146545   6.107   1.028   6.158  0.3285  0.2645 -0.3729
15237SOL    HW246546   6.119   1.130   6.269  2.2120 -2.0619  1.6690
15238SOL     OW46547   6.061   6.643   6.607 -0.4523 -0.2437 -0.2023
15238SOL    HW146548   6.133   6.661   6.668 -1.0044  2.2782 -0.1753
15238SOL    HW246549   6.104   6.622   6.525  0.4995  3.2189 -0.7571
15239SOL     OW46550   3.129   1.631   2.020 -0.1080  0.3522 -0.0897
15239SOL    HW146551   3.196   1.642   2.087  1.4871  2.1111 -1.8449
15239SOL    HW246552   3.164   1.563   1.962 -0.7096 -0.0146 -0.0282
15240SOL     OW46553   2.297   5.708   5.343  0.7375  0.3863 -0.3572
15240SOL    HW146554   2.348   5.648   5.396  0.8819  2.6253  2.2815
15240SOL    HW246555   2.357   5.737   5.274  1.1257 -1.2603 -0.7510
15241SOL     OW46556   2.908   3.153   0.026 -0.2439 -0.1366  0.0984
15241SOL    HW146557   2.893   3.078   0.084 -1.6542  0.2391  0.2707
15241SOL    HW246558   2.956   3.216   0.080 -0.4326 -0.2930  0.4527
15242SOL     OW46559   7.524   7.213   5.427 -0.0566  0.5360 -0.5860
15242SOL    HW146560   7.528   7.174   5.514  0.1554  0.9772 -0.3999
15242SOL    HW246561   7.605   7.186   5.385  0.1889  0.9583 -0.3818
15243SOL     OW46562   3.160   3.770   1.871  0.5692  0.1379  0.2686
15243SOL    HW146563   3.183   3.681   1.845  2.2696  0.6808 -0.1862
15243SOL    HW246564   3.087   3.759   1.932 -0.1228 -1.4707 -0.7666
15244SOL     OW46565   3.966   6.020   7.487  0.4257  0.3760  0.4131
15244SOL    HW146566   4.060   6.026   7.473  0.2246  2.1794 -0.4149
15244SOL    HW246567   3.938   6.110   7.503 -1.1461 -0.1405  0.7013
15245SOL     OW46568   7.840   6.025   3.317  0.8357  0.0532 -0.1314
15245SOL    HW146569   7.815   5.956   3.255  2.5854 -1.2002  0.4910
15245SOL    HW246570   7.929   6.048   3.293  1.9866 -1.2111  2.4697
15246SOL     OW46571   7.019   2.988   4.860 -0.5777  0.0314  0.0270
15246SOL    HW146572   6.979   2.973   4.946  1.2071  0.8330  1.0541
15246SOL    HW246573   6.999   3.079   4.840 -1.4020 -0.2841 -0.6798
15247SOL     OW46574   5.892   7.665   2.030 -0.2688 -0.3141 -0.2747
15247SOL    HW146575   5.850   7.740   2.071  0.2507 -0.7833  1.1639
15247SOL    HW246576   5.969   7.703   1.986  0.2774 -0.0620  0.8777
15248SOL     OW46577   1.044   0.283   2.608 -0.3399 -0.3085 -0.2416
15248SOL    HW146578   1.044   0.318   2.698 -0.3723  0.1119 -0.4020
15248SOL    HW246579   1.089   0.350   2.557  0.6577 -1.0512 -0.3531
15249SOL     OW46580   3.080   0.615   4.244  0.8724  0.1524 -0.7716
15249SOL    HW146581   2.990   0.592   4.217 -0.7122  0.3050  3.6188
15249SOL    HW246582   3.126   0.531   4.246 -0.6756 -0.7285  1.4551
15250SOL     OW46583   0.680   1.004   2.307 -0.2197  0.2489 -0.3439
15250SOL    HW146584   0.723   1.020   2.391  0.2160  0.7322 -0.6558
15250SOL    HW246585   0.588   0.988   2.330 -0.0175 -0.0843  0.2622
15251SOL     OW46586   2.309   6.541   2.383  0.2317 -0.0792 -0.2302
15251SOL    HW146587   2.242   6.582   2.438 -0.4310  1.1596 -1.8862
15251SOL    HW246588   2.326   6.456   2.425 -0.7006  0.5385  1.4943
15252SOL     OW46589   7.611   7.181   3.157 -0.0901 -0.0263 -0.4947
15252SOL    HW146590   7.541   7.202   3.095 -2.2815 -2.1849  1.0605
15252SOL    HW246591   7.652   7.102   3.122  0.0127 -0.0986 -0.2210
15253SOL     OW46592   0.990   7.590   1.083 -0.0091 -0.3326  0.7563
15253SOL    HW146593   1.033   7.533   1.018 -0.8485  0.1457 -0.2547
15253SOL    HW246594   0.916   7.538   1.115 -0.4730 -0.0230  0.2112
15254SOL     OW46595   3.755   6.188   7.231  0.4371  0.2789 -0.0069
15254SOL    HW146596   3.704   6.264   7.205  0.4174 -0.5102 -2.5213
15254SOL    HW246597   3.825   6.182   7.166 -0.1622 -2.3934 -0.5465
15255SOL     OW46598   6.240   2.946   7.205  0.3090  0.1231  0.3170
15255SOL    HW146599   6.187   3.023   7.225  0.4922  0.2684  0.2461
15255SOL    HW246600   6.267   2.914   7.291  1.2355  0.8478  0.3198
15256SOL     OW46601   7.931   6.182   1.930  0.1774  0.0747  0.3461
15256SOL    HW146602   7.933   6.177   1.834  1.0419 -0.1423  0.3651
15256SOL    HW246603   7.998   6.121   1.958 -2.0662 -2.1447  1.2066
15257SOL     OW46604   5.393   0.443   6.203  0.1395 -0.2232  0.5699
15257SOL    HW146605   5.439   0.391   6.268  1.4263  2.8212  2.2914
15257SOL    HW246606   5.377   0.527   6.246 -1.4088  1.0244 -2.1618
15258SOL     OW46607   2.622   4.103   2.996  0.1715  0.0994  0.3558
15258SOL    HW146608   2.567   4.165   3.044  0.5692  0.5743  0.2138
15258SOL    HW246609   2.679   4.065   3.063  1.6285  1.7218  0.1189
15259SOL     OW46610   2.567   0.681   0.714  0.2992  0.6685 -0.3730
15259SOL    HW146611   2.658   0.678   0.744  0.5011  1.2170 -0.9129
15259SOL    HW246612   2.573   0.683   0.618 -0.2458  1.4449 -0.4066
15260SOL     OW46613   5.089   3.520   6.384 -0.4066 -0.0629  0.0750
15260SOL    HW146614   5.011   3.570   6.407 -1.9745 -2.3149  0.0622
15260SOL    HW246615   5.095   3.526   6.289  0.1593  1.0862  0.1753
15261SOL     OW46616   5.196   5.742   0.368  0.0188  0.1338 -0.0760
15261SOL    HW146617   5.286   5.728   0.337 -0.2700 -1.4587 -0.2737
15261SOL    HW246618   5.206   5.799   0.445  0.9614  2.0431 -1.5182
15262SOL     OW46619   6.999   4.503   7.472 -0.4624 -0.0933 -0.6069
15262SOL    HW146620   6.957   4.553   7.541  0.2657 -1.1604  0.6622
15262SOL    HW246621   7.021   4.419   7.513  2.0085  0.0557 -1.4589
15263SOL     OW46622   4.132   2.928   0.343 -0.1042  0.2984 -0.1441
15263SOL    HW146623   4.203   2.870   0.369 -0.4347 -0.6379 -1.2484
15263SOL    HW246624   4.172   3.014   0.336  0.8976 -0.1888 -0.6007
15264SOL     OW46625   3.988   0.300   2.464 -0.2350 -0.2518 -0.2611
15264SOL    HW146626   4.032   0.224   2.427 -0.0674  0.0539 -0.7078
15264SOL    HW246627   3.895   0.285   2.444 -0.1631 -0.1643 -0.6851
15265SOL     OW46628   3.946   1.614   2.531 -0.4043 -0.0580 -0.1178
15265SOL    HW146629   4.008   1.661   2.587 -1.4048  0.6872  0.3841
15265SOL    HW246630   4.000   1.579   2.460  0.6867  0.0475  0.6417
15266SOL     OW46631   0.412   6.338   5.574  0.0724 -0.3466 -0.6372
15266SOL    HW146632   0.465   6.351   5.495 -0.1349 -0.1488 -0.7414
15266SOL    HW246633   0.422   6.419   5.623 -0.3377 -0.2154 -0.7739
15267SOL     OW46634   2.026   6.340   5.817  0.0648 -0.4289 -0.1448
15267SOL    HW146635   2.057   6.298   5.737 -1.4476  0.3434 -1.1886
15267SOL    HW246636   1.941   6.299   5.835 -0.0249  0.0310  0.5416
15268SOL     OW46637   6.713   6.638   2.339 -0.1937 -0.4385 -0.4522
15268SOL    HW146638   6.739   6.656   2.430  1.5327  0.6640 -1.1102
15268SOL    HW246639   6.625   6.675   2.332  0.7940  2.2952  0.0169
15269SOL     OW46640   1.673   0.205   4.526  0.3358  0.3054  0.4235
15269SOL    HW146641   1.651   0.233   4.615 -0.4492  0.2271  0.2550
15269SOL    HW246642   1.721   0.123   4.538 -0.9865 -0.4560  0.7187
15270SOL     OW46643   7.520   1.386   4.509  0.2786  0.1724 -0.1913
15270SOL    HW146644   7.583   1.454   4.488  0.3912  0.6071  1.3992
15270SOL    HW246645   7.571   1.305   4.510  0.3527  0.2055 -1.0781
15271SOL     OW46646   5.411   5.811   6.968  0.9468  0.0866 -0.2281
15271SOL    HW146647   5.322   5.779   6.983  1.2215 -0.5765  0.0428
15271SOL    HW246648   5.418   5.889   7.022  0.3227  0.5106 -0.7536
15272SOL     OW46649   6.293   2.696   4.567 -0.3383 -0.3290 -0.7284
15272SOL    HW146650   6.284   2.783   4.528 -1.8439  0.0926  0.4717
15272SOL    HW246651   6.208   2.679   4.608  0.6453 -1.4157  0.9697
15273SOL     OW46652   4.204   4.403   0.155 -0.2283 -0.1567 -0.6837
15273SOL    HW146653   4.297   4.385   0.141 -0.4989 -0.6315 -2.0391
15273SOL    HW246654   4.164   4.396   0.068 -1.4437  0.6107 -0.2197
15274SOL     OW46655   7.898   6.005   4.827 -0.2328 -0.0678 -0.0240
15274SOL    HW146656   7.952   6.067   4.874  1.3901 -0.3809 -1.3855
15274SOL    HW246657   7.905   6.032   4.735 -0.0706 -1.8200 -0.5571
15275SOL     OW46658   4.101   7.340   5.792 -0.1163  0.8268 -0.4284
15275SOL    HW146659   4.150   7.313   5.870 -0.0050  0.5195 -0.6046
15275SOL    HW246660   4.054   7.261   5.765 -0.8634  1.1689 -0.1455
15276SOL     OW46661   0.559   2.776   6.057  0.4251  0.0261 -0.2655
15276SOL    HW146662   0.601   2.709   6.002  2.7921  1.2694 -0.0936
15276SOL    HW246663   0.595   2.762   6.144 -1.4287 -0.3657  0.4810
15277SOL     OW46664   2.510   7.902   7.510 -0.2141  0.0724 -0.0791
15277SOL    HW146665   2.418   7.930   7.505  0.1615  1.3897 -0.1077
15277SOL    HW246666   2.510   7.834   7.577 -0.7978  2.1124  2.1496
15278SOL     OW46667   6.973   3.048   3.423  0.0032 -0.0485 -0.5078
15278SOL    HW146668   6.917   3.118   3.457  0.3583 -0.4273  0.9131
15278SOL    HW246669   7.044   3.094   3.379  0.2463  0.5136  0.4374
15279SOL     OW46670   1.549   0.592   1.759 -0.3437  0.2741  0.0904
15279SOL    HW146671   1.550   0.621   1.850  2.3190 -0.0058  0.2052
15279SOL    HW246672   1.637   0.610   1.726 -0.4031 -2.1147 -1.6303
15280SOL     OW46673   6.926   4.981   2.407  0.0443 -0.0260 -0.0467
15280SOL    HW146674   6.927   5.032   2.487  1.9757  0.2709 -0.2000
15280SOL    HW246675   6.961   4.895   2.433 -0.6687 -0.4056 -0.3079
15281SOL     OW46676   0.115   2.041   2.295 -0.7219  0.3286  0.5487
15281SOL    HW146677   0.074   2.051   2.381 -3.1213  0.4183 -0.5080
15281SOL    HW246678   0.051   1.990   2.244 -0.2825  1.8755 -1.7190
15282SOL     OW46679   1.162   1.193   0.394 -0.0207  0.0174  0.2826
15282SOL    HW146680   1.207   1.163   0.315  0.8957  0.7880  0.4879
15282SOL    HW246681   1.233   1.226   0.450 -0.7830  0.6834  0.8741
15283SOL     OW46682   7.796   4.536   6.426  0.6438 -0.1314  0.2460
15283SOL    HW146683   7.866   4.479   6.395  0.2894 -0.1929 -0.4608
15283SOL    HW246684   7.724   4.521   6.365 -0.2983 -0.7183  1.4478
15284SOL     OW46685   2.797   1.569   0.357  0.2445  0.3216  0.6260
15284SOL    HW146686   2.724   1.522   0.317 -0.5141  0.6139  1.6479
15284SOL    HW246687   2.850   1.501   0.398  1.2486 -0.0350 -1.1259
15285SOL     OW46688   1.312   5.597   6.108 -0.2995 -0.4772 -0.0786
15285SOL    HW146689   1.402   5.629   6.116 -0.6664  0.8039 -0.8186
15285SOL    HW246690   1.261   5.654   6.165 -1.1219  1.0504 -2.2148
15286SOL     OW46691   6.304   3.792   2.440 -0.3414  0.3533  0.3077
15286SOL    HW146692   6.280   3.835   2.358  0.4931  0.8158  0.2927
15286SOL    HW246693   6.398   3.810   2.450 -0.0281 -1.2021  0.4570
15287SOL     OW46694   6.407   6.910   7.907 -0.3364  0.0911  0.7321
15287SOL    HW146695   6.347   6.839   7.927  1.0337 -0.9494  1.3151
15287SOL    HW246696   6.352   6.989   7.909 -2.0790 -1.0020 -0.9543
15288SOL     OW46697   5.674   3.325   3.886  0.2048  0.1438 -0.1165
15288SOL    HW146698   5.621   3.305   3.963  1.5172 -0.5149  0.6496
15288SOL    HW246699   5.664   3.419   3.873 -0.8528  0.0891  0.2210
15289SOL     OW46700   5.628   7.060   5.007  0.1064 -0.0127  0.5710
15289SOL    HW146701   5.619   7.154   4.992  1.6889  0.2703  1.2631
15289SOL    HW246702   5.715   7.049   5.046 -0.1867 -1.7273  0.8401
15290SOL     OW46703   6.729   5.316   6.846  0.2809  0.6516 -0.3697
15290SOL    HW146704   6.674   5.317   6.924  3.3861 -3.0398  2.1628
15290SOL    HW246705   6.666   5.323   6.773 -3.1196  0.3548  2.2814
15291SOL     OW46706   6.746   4.855   6.433 -0.1151 -0.2233 -0.3834
15291SOL    HW146707   6.808   4.821   6.498  0.6276 -1.2883 -1.5868
15291SOL    HW246708   6.753   4.950   6.440  0.7285 -0.3269  0.3682
15292SOL     OW46709   2.922   1.524   6.264 -0.4301  0.2267  0.2963
15292SOL    HW146710   2.883   1.606   6.233  1.2981  0.5873 -1.0484
15292SOL    HW246711   2.970   1.549   6.344  1.2874  0.8884 -0.8839
15293SOL     OW46712   6.876   3.033   7.466  0.0512  0.3067  0.3249
15293SOL    HW146713   6.954   3.087   7.460 -0.3479  0.8848  0.2303
15293SOL    HW246714   6.839   3.052   7.552 -1.1664  1.7161 -0.4638
15294SOL     OW46715   6.969   0.494   6.798  0.4276  0.2464  0.0263
15294SOL    HW146716   6.985   0.400   6.793  0.0896  0.2140 -0.6631
15294SOL    HW246717   7.049   0.534   6.763  1.4443  0.3171  2.2301
15295SOL     OW46718   5.676   5.373   4.136 -0.3062  0.4122 -0.6532
15295SOL    HW146719   5.690   5.456   4.182 -0.2637  0.1361 -0.1666
15295SOL    HW246720   5.760   5.328   4.141 -0.6611 -0.1807  0.1313
15296SOL     OW46721   4.171   6.009   0.395 -0.0850  0.2004 -0.1782
15296SOL    HW146722   4.128   5.925   0.384  1.2154 -0.4689 -0.3885
15296SOL    HW246723   4.161   6.030   0.487 -1.6945  0.5502 -0.4110
15297SOL     OW46724   5.220   1.435   1.618  0.7803 -0.2174  0.1743
15297SOL    HW146725   5.254   1.524   1.608  1.8947 -0.4948  1.1598
15297SOL    HW246726   5.128   1.446   1.641  0.3178  0.5950 -1.8174
15298SOL     OW46727   4.770   7.318   7.276  0.0189 -0.0493 -0.3480
15298SOL    HW146728   4.694   7.276   7.236 -0.1318  0.6076 -0.7704
15298SOL    HW246729   4.840   7.254   7.267 -0.1746 -0.1642 -1.1190
15299SOL     OW46730   0.239   1.006   4.887  0.2922  0.3576 -0.1661
15299SOL    HW146731   0.239   1.102   4.877 -0.6130  0.4729  0.8084
15299SOL    HW246732   0.250   0.973   4.798 -1.7233  1.3555 -0.8314
15300SOL     OW46733   2.912   2.966   7.220  0.5777 -0.4069  0.3640
15300SOL    HW146734   2.996   2.963   7.175  0.4365  0.1167  0.0528
15300SOL    HW246735   2.873   3.049   7.192  0.9772  0.4980  2.3141
15301SOL     OW46736   1.916   7.809   2.731 -0.7619 -0.2288  0.4306
15301SOL    HW146737   1.831   7.780   2.765 -0.8346 -1.5806 -0.8047
15301SOL    HW246738   1.950   7.867   2.799 -2.1907 -0.5125  1.4430
15302SOL     OW46739   2.600   1.577   6.251  0.4970 -0.3626  0.7782
15302SOL    HW146740   2.584   1.671   6.242  1.7105 -0.1529  0.5777
15302SOL    HW246741   2.639   1.567   6.338  0.3985 -0.6835  0.7886
15303SOL     OW46742   4.283   5.360   6.495 -0.1569  0.0112  0.1396
15303SOL    HW146743   4.230   5.374   6.573 -0.2057 -0.0688  0.1215
15303SOL    HW246744   4.225   5.383   6.422 -0.1228  0.0539  0.1259
15304SOL     OW46745   7.255   0.205   2.260 -0.1133 -0.3437  0.2595
15304SOL    HW146746   7.225   0.296   2.269 -0.0670 -0.3930  0.9009
15304SOL    HW246747   7.223   0.161   2.339  2.3812 -0.2100  1.4247
15305SOL     OW46748   2.017   5.606   5.335 -0.3321  0.0962 -0.1141
15305SOL    HW146749   2.011   5.686   5.283 -0.1023  0.9684  1.1445
15305SOL    HW246750   2.110   5.589   5.343 -0.3942 -1.1179 -1.5289
15306SOL     OW46751   3.508   6.714   6.119 -0.3670  0.2924  0.1494
15306SOL    HW146752   3.520   6.619   6.111 -1.1292  0.3162 -1.6971
15306SOL    HW246753   3.417   6.724   6.148 -0.5026  0.4588 -0.3192
15307SOL     OW46754   3.653   7.362   6.050  0.1799  0.1432  0.0490
15307SOL    HW146755   3.564   7.329   6.063 -0.2048  1.1850  0.2172
15307SOL    HW246756   3.692   7.303   5.986 -0.9613  0.2181 -0.7477
15308SOL     OW46757   3.489   7.420   4.678 -0.7168 -0.0212 -0.1568
15308SOL    HW146758   3.498   7.461   4.592  1.1187  1.4538  0.6724
15308SOL    HW246759   3.562   7.360   4.684 -2.7132 -2.7241 -0.8735
15309SOL     OW46760   6.853   7.633   2.622  0.1960  0.4909 -0.4906
15309SOL    HW146761   6.784   7.688   2.585 -0.1756  0.6272  0.3872
15309SOL    HW246762   6.806   7.561   2.663  0.4750  1.2884  1.2948
15310SOL     OW46763   0.935   0.530   3.618 -0.0145 -0.0277  0.7400
15310SOL    HW146764   0.962   0.506   3.530  0.4615  4.0245 -0.4250
15310SOL    HW246765   0.999   0.486   3.675  0.9318 -1.0911 -1.0340
15311SOL     OW46766   6.209   5.938   4.064  0.5984  0.0367  0.0739
15311SOL    HW146767   6.224   5.882   4.140 -0.1306  0.2834  0.4184
15311SOL    HW246768   6.209   6.027   4.100 -1.4811  0.0674  0.1246
15312SOL     OW46769   0.454   7.670   6.344 -0.3295 -0.4989 -0.1914
15312SOL    HW146770   0.385   7.604   6.349 -1.9322  0.6872 -3.6814
15312SOL    HW246771   0.413   7.750   6.375 -0.9075  0.3933 -3.0509
15313SOL     OW46772   4.687   4.839   3.499  0.3785 -0.4024 -0.3410
15313SOL    HW146773   4.715   4.925   3.529  1.9029 -1.6887  2.2829
15313SOL    HW246774   4.623   4.810   3.563 -0.3578 -1.1424 -1.3690
15314SOL     OW46775   1.055   2.746   1.156 -0.1148 -0.1353 -0.4258
15314SOL    HW146776   0.976   2.694   1.144 -1.3350  1.6066 -0.2741
15314SOL    HW246777   1.095   2.710   1.236 -1.0426 -0.6708 -0.1857
15315SOL     OW46778   2.609   7.558   3.059  0.3769  0.0970  0.1737
15315SOL    HW146779   2.583   7.488   3.119  1.3800  0.6878  1.3478
15315SOL    HW246780   2.619   7.514   2.975  0.8569 -1.1703  0.8535
15316SOL     OW46781   3.084   7.622   1.665 -0.3296  0.6058  0.3164
15316SOL    HW146782   3.149   7.552   1.672  0.2411  1.1796  0.9220
15316SOL    HW246783   3.033   7.600   1.587 -0.6100 -0.8445  0.8834
15317SOL     OW46784   6.807   5.284   7.299  1.0144  0.0791  0.3707
15317SOL    HW146785   6.719   5.282   7.262  0.6042  1.4085  1.1909
15317SOL    HW246786   6.853   5.211   7.257 -0.4784 -0.6566 -0.0467
15318SOL     OW46787   4.593   0.003   6.196 -0.2460 -0.2982 -0.1968
15318SOL    HW146788   4.638   0.009   6.111  1.1069 -1.0885  0.4192
15318SOL    HW246789   4.548   0.087   6.206 -0.2392 -0.1092 -1.5910
15319SOL     OW46790   2.999   3.327   5.128 -0.0197 -0.7408  0.4340
15319SOL    HW146791   2.952   3.300   5.208  0.2317 -1.0623  0.4762
15319SOL    HW246792   3.025   3.245   5.087  2.0825 -0.5802  1.3484
15320SOL     OW46793   7.617   6.943   4.999 -0.0272 -0.2138  0.0371
15320SOL    HW146794   7.636   6.927   4.907 -0.6781  1.1484 -0.3594
15320SOL    HW246795   7.666   6.876   5.046  1.8269  0.2316 -1.1847
15321SOL     OW46796   1.642   7.654   4.540  0.1661 -0.2950  0.0672
15321SOL    HW146797   1.560   7.605   4.536 -0.1004  0.0654  0.8343
15321SOL    HW246798   1.710   7.588   4.523 -0.1821 -0.9810  1.2166
15322SOL     OW46799   4.697   0.527   3.398  0.5606 -1.0259 -0.0815
15322SOL    HW146800   4.634   0.524   3.325 -0.1226 -0.0100  0.4511
15322SOL    HW246801   4.655   0.477   3.468  0.0144  0.2201  0.5088
15323SOL     OW46802   0.475   1.950   0.283 -0.5488 -0.3711 -0.0591
15323SOL    HW146803   0.414   1.974   0.352  1.4392  2.9552  0.7921
15323SOL    HW246804   0.558   1.936   0.329  0.7504  1.6396 -1.6203
15324SOL     OW46805   4.934   4.638   7.774  0.1440 -0.1557  0.5227
15324SOL    HW146806   5.023   4.620   7.744  0.3099 -0.2006  1.0250
15324SOL    HW246807   4.880   4.630   7.696  0.4329 -1.2478  0.4213
15325SOL     OW46808   1.767   0.174   2.839  0.2270  0.8600  0.2875
15325SOL    HW146809   1.836   0.108   2.832 -0.4069  0.1368  0.6588
15325SOL    HW246810   1.813   0.257   2.833  1.2216  0.4081  1.1848
15326SOL     OW46811   2.013   2.126   5.743  0.3821 -0.2370  0.4304
15326SOL    HW146812   1.970   2.082   5.669  0.4505 -0.0468  0.2787
15326SOL    HW246813   2.093   2.162   5.706 -0.6632  1.8289  0.0633
15327SOL     OW46814   0.703   4.773   5.449 -0.1976  0.0112  0.5516
15327SOL    HW146815   0.773   4.768   5.384 -0.3887  0.8134  0.2762
15327SOL    HW246816   0.630   4.725   5.410 -0.1441  0.0667  0.3801
15328SOL     OW46817   3.325   2.384   1.963  0.2736 -0.3744 -0.5736
15328SOL    HW146818   3.388   2.415   2.028  1.5130 -0.0625 -1.8639
15328SOL    HW246819   3.264   2.457   1.952 -1.7592 -1.4502  2.2796
15329SOL     OW46820   5.798   7.493   6.322 -0.3785  0.7036 -0.2616
15329SOL    HW146821   5.709   7.516   6.349 -0.8888 -1.7685  0.5084
15329SOL    HW246822   5.854   7.526   6.392 -0.7269  1.9213 -0.5467
15330SOL     OW46823   3.362   6.498   6.943  0.1636  0.7145 -1.0264
15330SOL    HW146824   3.269   6.504   6.921 -0.0138 -0.0159 -0.5313
15330SOL    HW246825   3.394   6.588   6.940 -0.6426  1.0100 -0.8453
15331SOL     OW46826   5.884   6.423   5.277 -0.0537 -0.2383  0.0885
15331SOL    HW146827   5.823   6.486   5.238 -0.0060 -0.8367 -0.9765
15331SOL    HW246828   5.970   6.462   5.263 -0.0250 -0.5220 -0.5561
15332SOL     OW46829   4.781   7.863   2.724  0.0440 -0.1096 -0.0010
15332SOL    HW146830   4.820   7.791   2.674 -0.8740 -0.3780 -0.3508
15332SOL    HW246831   4.832   7.940   2.699  0.6765 -0.5378 -0.0524
15333SOL     OW46832   0.205   1.932   0.804  0.3014  0.3756  0.6091
15333SOL    HW146833   0.216   1.876   0.882 -0.6347 -1.8706 -0.7582
15333SOL    HW246834   0.240   2.017   0.830  2.2127 -0.9376  2.7165
15334SOL     OW46835   7.853   4.098   3.718  0.2225  0.0600 -0.2383
15334SOL    HW146836   7.940   4.138   3.721 -0.5462  2.0840 -1.9022
15334SOL    HW246837   7.811   4.140   3.643 -1.9512 -1.3817  0.0985
15335SOL     OW46838   5.296   2.187   7.494  0.0134  0.3850 -0.1216
15335SOL    HW146839   5.206   2.159   7.477  0.5019 -0.6553 -1.1342
15335SOL    HW246840   5.335   2.114   7.543  0.8991 -0.1281 -1.5416
15336SOL     OW46841   1.291   3.831   1.398 -0.6683 -0.0668  0.0235
15336SOL    HW146842   1.264   3.759   1.341 -2.7017 -0.0749  0.9066
15336SOL    HW246843   1.300   3.791   1.485  2.1645 -0.0118 -0.1537
15337SOL     OW46844   6.246   1.129   3.209 -0.0174 -0.1328 -0.5196
15337SOL    HW146845   6.270   1.060   3.272 -0.0326  0.8562  0.6127
15337SOL    HW246846   6.299   1.204   3.235 -0.7707  0.6020 -1.0642
15338SOL     OW46847   6.769   2.086   6.408 -0.2638 -0.4470 -0.1273
15338SOL    HW146848   6.838   2.025   6.434 -0.1621 -0.5326 -0.5779
15338SOL    HW246849   6.697   2.068   6.468  0.6240  0.6781  1.3468
15339SOL     OW46850   0.228   6.524   2.826  0.2545  0.4071  0.4446
15339SOL    HW146851   0.209   6.612   2.860  1.1710  0.8641 -0.2101
15339SOL    HW246852   0.313   6.532   2.783  0.5713 -0.9178  0.7831
15340SOL     OW46853   3.021   4.777   5.008  0.5013 -0.5223  0.3037
15340SOL    HW146854   3.103   4.727   5.004  1.2211  0.7240 -1.4845
15340SOL    HW246855   3.048   4.868   5.004 -0.9925 -0.0924 -0.5610
15341SOL     OW46856   3.987   3.195   0.088  0.2896 -0.3050  0.0984
15341SOL    HW146857   4.033   3.278   0.071 -0.2427 -0.3928 -2.0306
15341SOL    HW246858   4.025   3.133   0.026 -1.8621 -0.6565 -0.9805
15342SOL     OW46859   2.473   7.310   5.822 -0.1540 -0.1147  0.3413
15342SOL    HW146860   2.401   7.247   5.819 -0.3491  0.1394 -0.4675
15342SOL    HW246861   2.440   7.381   5.878 -1.4870  1.1183 -1.8510
15343SOL     OW46862   0.722   0.821   4.126 -0.5892  0.3235 -0.2448
15343SOL    HW146863   0.728   0.844   4.033 -1.8579 -0.0386 -0.4278
15343SOL    HW246864   0.629   0.809   4.142 -0.3233 -0.3262  0.9108
15344SOL     OW46865   3.791   4.086   2.561 -0.0203 -0.4474  0.1511
15344SOL    HW146866   3.799   4.108   2.654 -1.6846  1.3252 -0.0411
15344SOL    HW246867   3.714   4.029   2.557  0.2363 -0.7775 -0.1118
15345SOL     OW46868   7.810   0.862   6.292 -0.3398  0.5605 -0.4115
15345SOL    HW146869   7.801   0.767   6.291  0.2209  0.4989 -0.3874
15345SOL    HW246870   7.721   0.895   6.301 -0.4888  0.0214  0.2048
15346SOL     OW46871   2.340   3.454   1.853 -0.2210 -0.3164  0.2728
15346SOL    HW146872   2.406   3.508   1.809  0.3303  0.1684  1.6286
15346SOL    HW246873   2.350   3.476   1.946 -0.5753 -2.1103  0.7742
15347SOL     OW46874   3.687   5.177   1.541  0.0204  0.0457 -0.4257
15347SOL    HW146875   3.649   5.256   1.580  0.6389  0.1009  0.0877
15347SOL    HW246876   3.781   5.190   1.547  0.1269 -0.5242 -0.7682
15348SOL     OW46877   7.886   4.992   1.127 -0.1346  0.2300 -0.0084
15348SOL    HW146878   7.841   4.964   1.207  0.8865 -0.8438  0.2178
15348SOL    HW246879   7.830   4.961   1.056 -0.4850  0.1855  0.2833
15349SOL     OW46880   5.848   6.387   3.241 -0.5756  0.1961  0.6329
15349SOL    HW146881   5.875   6.373   3.332  1.5132 -1.2188 -0.1404
15349SOL    HW246882   5.825   6.480   3.237  1.2197  0.7631  2.1555
15350SOL     OW46883   0.227   0.174   3.464  1.0088 -0.5480  0.5128
15350SOL    HW146884   0.200   0.230   3.537  0.7831 -0.4038  0.3199
15350SOL    HW246885   0.286   0.229   3.413  4.0089 -1.7108  2.4243
15351SOL     OW46886   0.748   6.996   5.411  0.0472  0.2416 -0.0678
15351SOL    HW146887   0.696   6.918   5.426  1.6856 -0.7555  0.7312
15351SOL    HW246888   0.836   6.973   5.442  0.4980  2.5259  0.5422
15352SOL     OW46889   0.907   0.814   0.567  0.0106 -0.5479 -0.4815
15352SOL    HW146890   0.975   0.832   0.502 -0.1907 -2.3819 -1.2731
15352SOL    HW246891   0.878   0.901   0.596  0.6757  0.3166 -2.2473
15353SOL     OW46892   0.166   6.189   2.264 -0.3557 -0.3039 -0.0528
15353SOL    HW146893   0.234   6.154   2.206 -1.0718 -0.7796 -0.6264
15353SOL    HW246894   0.208   6.194   2.350  0.9995  1.1796 -0.7274
15354SOL     OW46895   1.821   5.977   4.541  0.2644 -0.5313 -0.1988
15354SOL    HW146896   1.738   5.955   4.585  0.7101 -0.6383  0.6079
15354SOL    HW246897   1.809   5.945   4.451 -0.6915 -0.2448 -0.1870
15355SOL     OW46898   0.441   0.311   7.470 -0.6701  0.3022 -0.2110
15355SOL    HW146899   0.512   0.255   7.498 -0.0887  1.4545  0.7244
15355SOL    HW246900   0.459   0.330   7.378 -1.2872 -1.5845 -0.7722
15356SOL     OW46901   1.723   4.518   5.877  0.1736 -0.0446 -0.7434
15356SOL    HW146902   1.682   4.509   5.791  1.3522  0.6519 -1.4108
15356SOL    HW246903   1.753   4.609   5.880  0.6443 -0.2216  0.1706
15357SOL     OW46904   7.350   5.972   2.537  0.0430  0.0455 -0.3227
15357SOL    HW146905   7.419   5.937   2.593  0.3600  0.0185 -0.7265
15357SOL    HW246906   7.323   5.897   2.483 -1.7427 -0.5176  1.2290
15358SOL     OW46907   6.793   3.205   5.811  0.3415 -0.6408  0.4447
15358SOL    HW146908   6.825   3.123   5.850  0.7058 -1.0252 -0.6413
15358SOL    HW246909   6.699   3.203   5.827  0.2670 -1.5391 -0.0516
15359SOL     OW46910   1.654   5.292   5.192  0.4275  0.4919  0.5419
15359SOL    HW146911   1.603   5.265   5.268 -0.4941 -1.4022 -0.6451
15359SOL    HW246912   1.591   5.341   5.138  0.6607  0.5673  0.3378
15360SOL     OW46913   6.653   4.544   5.939  0.5735  0.4035  0.1727
15360SOL    HW146914   6.668   4.601   6.014 -0.2062  1.2552 -0.2922
15360SOL    HW246915   6.740   4.516   5.912  0.7986 -1.0291  2.2103
15361SOL     OW46916   4.026   1.866   5.973 -0.0927  0.8618 -0.5315
15361SOL    HW146917   4.103   1.878   5.917  0.0141  0.3205 -0.5003
15361SOL    HW246918   3.955   1.911   5.927  0.4705  2.3342 -0.0341
15362SOL     OW46919   0.049   5.134   3.503 -0.6070  0.0633  0.3078
15362SOL    HW146920  -0.018   5.071   3.476  0.7917 -0.8939 -1.1372
15362SOL    HW246921   0.130   5.084   3.502  0.0422  0.8476  3.2674
15363SOL     OW46922   6.209   6.822   0.899  0.2397  0.0915 -0.7272
15363SOL    HW146923   6.141   6.886   0.919  1.8576  1.4616  0.6747
15363SOL    HW246924   6.267   6.866   0.838  0.6391 -0.5589 -0.8272
15364SOL     OW46925   3.807   7.351   3.347  0.3578  0.5780  0.4833
15364SOL    HW146926   3.799   7.283   3.280  0.2185  0.1490  0.9272
15364SOL    HW246927   3.755   7.318   3.420 -0.1543  1.4115  0.5088
15365SOL     OW46928   1.732   7.421   1.658 -0.1126  0.4386  0.3782
15365SOL    HW146929   1.704   7.513   1.650 -0.8109  0.3254  1.2709
15365SOL    HW246930   1.826   7.423   1.644 -0.3063  1.0921 -1.0187
15366SOL     OW46931   4.439   1.080   2.589  0.4267  0.0745 -0.9204
15366SOL    HW146932   4.428   1.145   2.521  1.1575  0.3955 -0.7434
15366SOL    HW246933   4.363   1.023   2.581 -0.3981  1.1459 -0.8487
15367SOL     OW46934   4.282   2.912   3.857  0.4721 -0.4439 -0.3556
15367SOL    HW146935   4.212   2.847   3.868  2.2299 -2.2134  1.1332
15367SOL    HW246936   4.333   2.906   3.937  1.0608  2.4357 -0.4377
15368SOL     OW46937   0.041   4.176   5.463 -0.2598  0.1536  0.2388
15368SOL    HW146938  -0.018   4.128   5.405 -1.2651  0.6980  0.7877
15368SOL    HW246939   0.128   4.144   5.440 -0.4663  1.2325 -2.4656
15369SOL     OW46940   4.506   4.280   4.649  0.2399  0.7001  0.2893
15369SOL    HW146941   4.501   4.203   4.705  2.7144 -0.5409 -1.0158
15369SOL    HW246942   4.590   4.321   4.671  0.1759  1.5154 -0.8682
15370SOL     OW46943   6.932   5.171   1.063 -0.2520 -0.3821 -0.2034
15370SOL    HW146944   6.907   5.151   1.153 -2.2519 -0.6052 -0.7546
15370SOL    HW246945   6.949   5.086   1.023 -0.5987 -0.3865 -0.3493
15371SOL     OW46946   3.119   5.687   5.339  0.4070 -0.0879  0.2169
15371SOL    HW146947   3.136   5.661   5.430  2.3929 -2.4939 -0.7338
15371SOL    HW246948   3.049   5.629   5.310  0.4009  0.0591 -0.0697
15372SOL     OW46949   6.471   7.772   1.994  0.1605  0.1324 -0.3770
15372SOL    HW146950   6.392   7.732   2.030  0.2132 -0.0105 -0.4183
15372SOL    HW246951   6.533   7.699   1.985 -0.0251  0.0709 -1.2503
15373SOL     OW46952   0.790   7.815   1.388 -0.3334  0.1133 -0.4877
15373SOL    HW146953   0.705   7.838   1.351 -1.5897 -1.1941  1.3949
15373SOL    HW246954   0.805   7.880   1.457  0.1479  0.2552 -0.7197
15374SOL     OW46955   6.707   1.544   6.380  0.2866 -0.1474  0.5034
15374SOL    HW146956   6.799   1.534   6.358 -0.0108  0.3510 -1.0993
15374SOL    HW246957   6.663   1.475   6.331 -0.1943 -0.4624  1.3562
15375SOL     OW46958   5.382   1.876   6.116  0.3614  0.8998  0.3548
15375SOL    HW146959   5.373   1.941   6.047 -2.0332 -0.9362 -1.2234
15375SOL    HW246960   5.455   1.820   6.088 -0.5409  0.2189 -0.6921
15376SOL     OW46961   4.048   1.428   6.403 -0.2207  0.0282 -0.1988
15376SOL    HW146962   3.982   1.441   6.472 -0.7821 -0.6258 -0.5973
15376SOL    HW246963   4.032   1.498   6.340  0.1501  0.4959  0.2221
15377SOL     OW46964   4.481   6.598   6.773 -0.4942 -0.1042 -0.1088
15377SOL    HW146965   4.547   6.551   6.825 -1.8024 -0.5725  1.1896
15377SOL    HW246966   4.436   6.653   6.836 -0.7846  0.8803 -1.1473
15378SOL     OW46967   1.698   1.783   1.697 -0.0823 -0.4255 -0.1554
15378SOL    HW146968   1.628   1.831   1.653  1.8227  1.7203 -1.0681
15378SOL    HW246969   1.685   1.692   1.671 -1.9612  0.0486 -1.0398
15379SOL     OW46970   5.789   2.623   3.732  0.1583 -0.4641 -0.0539
15379SOL    HW146971   5.695   2.641   3.741  0.5574  1.3840  0.7111
15379SOL    HW246972   5.796   2.529   3.752 -1.5878 -0.7969 -0.7463
15380SOL     OW46973   1.247   7.608   3.680 -0.2945  0.6301 -0.6266
15380SOL    HW146974   1.158   7.575   3.664  0.3736 -0.9264 -1.2471
15380SOL    HW246975   1.234   7.702   3.697 -1.8449  0.9105 -2.9196
15381SOL     OW46976   5.058   1.460   2.566 -0.1221  0.6565  0.5719
15381SOL    HW146977   5.083   1.530   2.627  0.8542  0.3676  0.5275
15381SOL    HW246978   5.132   1.399   2.568 -0.8309 -0.2247  0.3779
15382SOL     OW46979   5.867   1.807   3.818  0.2783  0.2280  0.2465
15382SOL    HW146980   5.916   1.727   3.838 -0.8202 -0.3630  0.6436
15382SOL    HW246981   5.782   1.776   3.786 -0.1845  1.2328  0.4561
15383SOL     OW46982   3.029   3.091   4.402  0.4982  0.2977  0.2063
15383SOL    HW146983   3.074   3.013   4.371 -2.0119  0.0194 -3.2166
15383SOL    HW246984   3.078   3.164   4.364  1.1454  0.3198  1.0329
15384SOL     OW46985   5.022   3.849   5.291 -0.1167 -0.1061 -0.0917
15384SOL    HW146986   4.981   3.766   5.265  0.5229 -0.6173  0.4844
15384SOL    HW246987   4.973   3.916   5.244 -0.1065 -0.8700 -1.2329
15385SOL     OW46988   2.097   2.817   1.440  0.3938  0.2437 -0.2600
15385SOL    HW146989   2.095   2.742   1.500  2.2767  0.7168  0.4786
15385SOL    HW246990   2.126   2.890   1.495 -1.0184  1.4383 -1.0572
15386SOL     OW46991   1.333   0.182   5.511 -0.4681  0.5846 -0.2101
15386SOL    HW146992   1.267   0.120   5.542 -0.6617  0.4888 -0.7911
15386SOL    HW246993   1.289   0.267   5.513 -0.1846  0.7248  0.6411
15387SOL     OW46994   5.509   2.080   7.322  0.0707  0.2757  0.3912
15387SOL    HW146995   5.465   2.144   7.377 -1.9813 -0.0617 -0.7345
15387SOL    HW246996   5.493   2.110   7.233  0.0249 -1.1818 -0.1222
15388SOL     OW46997   1.658   0.943   6.307  0.2681 -0.3343  0.1886
15388SOL    HW146998   1.724   0.963   6.374  0.9543 -0.0013 -0.5751
15388SOL    HW246999   1.645   0.849   6.314  0.0480 -0.2511  1.0453
15389SOL     OW47000   2.583   2.941   0.682  0.2180  0.1454 -0.2991
15389SOL    HW147001   2.629   3.025   0.691 -0.9707  0.6683  1.5760
15389SOL    HW247002   2.495   2.966   0.652  0.0530 -0.4806 -0.3490
15390SOL     OW47003   2.232   1.603   4.075  0.4263 -0.0908 -0.0915
15390SOL    HW147004   2.268   1.586   4.162  1.4247 -0.5920 -0.5884
15390SOL    HW247005   2.306   1.591   4.016 -0.1153  0.7617 -0.9673
15391SOL     OW47006   2.336   1.976   1.736 -0.1173  0.2615 -0.5404
15391SOL    HW147007   2.379   2.033   1.800 -0.8256 -0.4973  0.6338
15391SOL    HW247008   2.293   2.037   1.676 -0.2319  0.9818  0.2502
15392SOL     OW47009   4.429   0.183   7.262 -0.6840 -0.0582  0.1903
15392SOL    HW147010   4.399   0.263   7.306  3.3072  2.2317 -0.7982
15392SOL    HW247011   4.429   0.206   7.169  0.3323 -1.2877 -0.1282
15393SOL     OW47012   7.778   3.168   6.928  0.3643  0.3509 -0.2156
15393SOL    HW147013   7.758   3.262   6.931 -3.8616 -0.3114 -1.1333
15393SOL    HW247014   7.818   3.156   6.842  1.7467  1.3548  0.2433
15394SOL     OW47015   5.528   4.631   2.427  0.3582 -0.7386  0.1662
15394SOL    HW147016   5.619   4.604   2.437  0.5339 -0.2713 -0.1732
15394SOL    HW247017   5.478   4.555   2.458  0.8427 -0.0950  2.6948
15395SOL     OW47018   2.299   3.181   0.299 -1.2520 -0.3331  0.0243
15395SOL    HW147019   2.372   3.166   0.239 -2.2717 -2.4086 -0.7894
15395SOL    HW247020   2.262   3.265   0.271  1.4545  1.4353  1.2402
15396SOL     OW47021   3.719   4.120   3.205 -0.0362  0.5503  0.1824
15396SOL    HW147022   3.803   4.165   3.206  0.0989  0.3426 -0.9247
15396SOL    HW247023   3.702   4.100   3.297  1.0519  0.7183  0.4336
15397SOL     OW47024   0.437   5.875   2.569 -0.1919 -0.2573 -0.6101
15397SOL    HW147025   0.527   5.906   2.563 -0.6965  1.2613 -0.7658
15397SOL    HW247026   0.443   5.792   2.616  1.1334  0.5094  0.6442
15398SOL     OW47027   5.304   1.120   3.374 -0.5514 -0.1651  0.0044
15398SOL    HW147028   5.339   1.127   3.463  0.0069  0.0232 -0.2291
15398SOL    HW247029   5.326   1.203   3.332  1.6083 -1.2335 -1.1524
15399SOL     OW47030   0.309   0.390   6.284 -0.1058  0.1247 -0.0235
15399SOL    HW147031   0.300   0.297   6.262 -1.2283  0.2898 -0.3634
15399SOL    HW247032   0.371   0.392   6.357 -1.8166 -1.1328  1.5685
15400SOL     OW47033   2.455   3.513   3.221 -0.2252 -0.1600  0.0647
15400SOL    HW147034   2.493   3.433   3.185  1.1259  0.2293  0.5602
15400SOL    HW247035   2.368   3.518   3.181 -0.2162 -1.7005 -0.2140
15401SOL     OW47036   7.279   7.936   1.655  0.3831 -0.0832 -0.1000
15401SOL    HW147037   7.283   7.992   1.732 -0.6511 -1.0059  0.6464
15401SOL    HW247038   7.220   7.865   1.679 -1.2605  0.4428 -2.2835
15402SOL     OW47039   7.944   0.241   2.928 -0.1947  0.4064  0.3187
15402SOL    HW147040   7.984   0.299   2.993 -0.1788  0.6121  0.1272
15402SOL    HW247041   7.856   0.275   2.916  0.2115  1.1656 -0.7132
15403SOL     OW47042   7.589   4.511   3.592 -0.3934  0.0793  0.3975
15403SOL    HW147043   7.584   4.596   3.635 -0.8928 -0.3671  1.2544
15403SOL    HW247044   7.595   4.448   3.664  1.3865 -0.5350 -0.2346
15404SOL     OW47045   1.071   6.602   2.639  0.1019  0.2058 -0.3475
15404SOL    HW147046   1.158   6.639   2.623  0.0025  0.3988 -0.4588
15404SOL    HW247047   1.074   6.568   2.728  0.2802  0.2464 -0.3390
15405SOL     OW47048   3.846   2.662   0.848 -0.1844 -0.4567  0.2261
15405SOL    HW147049   3.927   2.653   0.898 -0.7367 -0.0355  1.2179
15405SOL    HW247050   3.841   2.582   0.794  1.1901 -0.1992 -0.3157
15406SOL     OW47051   0.835   1.521   6.125 -0.0579  0.0097 -0.4441
15406SOL    HW147052   0.900   1.453   6.143  1.3551  1.5176  0.3359
15406SOL    HW247053   0.866   1.564   6.046  0.1967  1.0756  0.2245
15407SOL     OW47054   0.474   3.596   6.657 -0.0022 -0.0785 -0.3324
15407SOL    HW147055   0.458   3.509   6.695  1.3324  0.5600  1.8388
15407SOL    HW247056   0.389   3.624   6.624 -0.7522 -1.6208  0.2085
15408SOL     OW47057   1.604   7.029   2.786  0.1481  0.3440 -0.0317
15408SOL    HW147058   1.648   7.085   2.849 -0.3269  0.1835  0.4541
15408SOL    HW247059   1.649   7.045   2.703  0.5703  0.7955  0.2817
15409SOL     OW47060   5.549   4.615   3.187  0.3925  0.5347 -0.2514
15409SOL    HW147061   5.532   4.674   3.260 -0.3261  1.6532 -1.2833
15409SOL    HW247062   5.567   4.673   3.113  2.5622 -0.5735 -0.6672
15410SOL     OW47063   5.645   3.302   0.172  0.2848  0.4828  0.2277
15410SOL    HW147064   5.671   3.296   0.263 -0.8663  0.6581  0.5866
15410SOL    HW247065   5.554   3.333   0.175  0.8016  2.2947 -1.0232
15411SOL     OW47066   0.827   6.462   5.140  0.4751  0.1650 -0.0960
15411SOL    HW147067   0.872   6.493   5.218  0.1210  0.7698 -0.1293
15411SOL    HW247068   0.889   6.476   5.068 -0.2974  2.4570 -0.3958
15412SOL     OW47069   7.165   1.865   3.481  0.0277 -0.1883  0.6042
15412SOL    HW147070   7.234   1.931   3.468 -1.0720  0.7179 -1.0027
15412SOL    HW247071   7.149   1.830   3.393 -0.1620 -1.8642  1.2668
15413SOL     OW47072   2.219   6.635   6.527  0.1625  0.6187  0.3655
15413SOL    HW147073   2.233   6.614   6.620  0.1224 -0.1341  0.2018
15413SOL    HW247074   2.162   6.566   6.495  0.8428  0.4198 -0.4283
15414SOL     OW47075   5.910   2.867   0.844 -0.4374  0.0154 -0.1019
15414SOL    HW147076   5.868   2.862   0.930 -0.7915  1.0023 -0.2049
15414SOL    HW247077   5.997   2.830   0.858 -0.2860  0.6914  0.8143
15415SOL     OW47078   6.839   5.669   7.591  0.4773 -0.3857  0.2522
15415SOL    HW147079   6.869   5.645   7.503 -0.7791  0.2374 -0.3839
15415SOL    HW247080   6.752   5.629   7.598  0.3941 -0.0759  1.0449
15416SOL     OW47081   0.611   7.788   3.862  0.8347 -0.4258 -0.4296
15416SOL    HW147082   0.526   7.780   3.819  1.3375 -1.4403 -1.2629
15416SOL    HW247083   0.593   7.766   3.954  0.3016 -1.2746 -0.7256
15417SOL     OW47084   3.870   0.661   1.874 -0.4266  0.2039 -0.1982
15417SOL    HW147085   3.923   0.705   1.941 -0.9140  0.4955  0.0003
15417SOL    HW247086   3.888   0.709   1.794  1.0873 -0.8714 -0.5657
15418SOL     OW47087   7.378   0.663   1.418 -0.0218  0.3274 -0.4448
15418SOL    HW147088   7.307   0.604   1.393 -0.2876  0.1593  0.6750
15418SOL    HW247089   7.339   0.750   1.416 -0.4513  0.1759  0.7972
15419SOL     OW47090   1.403   4.555   6.243 -0.1448 -0.2552  0.6183
15419SOL    HW147091   1.335   4.619   6.265 -1.2222 -1.7791  1.9691
15419SOL    HW247092   1.474   4.607   6.206 -1.5689  1.5290  0.2733
15420SOL     OW47093   4.074   4.531   3.210  0.4897 -0.0202 -0.2146
15420SOL    HW147094   4.106   4.443   3.191  1.0514 -0.2489  1.6084
15420SOL    HW247095   4.129   4.562   3.282 -0.3110  1.4610 -0.1885
15421SOL     OW47096   6.289   0.433   0.360 -0.2147 -0.2969  0.3756
15421SOL    HW147097   6.323   0.367   0.299 -0.2893  0.1693 -0.1834
15421SOL    HW247098   6.228   0.385   0.415 -1.2149 -0.4606 -0.8277
15422SOL     OW47099   6.656   3.953   6.724 -0.2624  0.5528  0.0467
15422SOL    HW147100   6.658   3.956   6.629 -0.8894  0.8266  0.0394
15422SOL    HW247101   6.732   4.004   6.751  0.9723 -1.0181 -0.3087
15423SOL     OW47102   7.619   7.421   3.306  0.7191 -0.2313 -0.2770
15423SOL    HW147103   7.528   7.437   3.281 -0.3369 -2.8127  1.5074
15423SOL    HW247104   7.653   7.365   3.236  0.1883 -1.1563  0.1925
15424SOL     OW47105   6.568   1.061   4.051  0.1783  0.1185  0.0406
15424SOL    HW147106   6.497   1.057   3.987  0.9034  0.4528 -0.8023
15424SOL    HW247107   6.605   1.149   4.041  1.5060 -0.4599 -0.4221
15425SOL     OW47108   7.604   5.069   4.434 -0.1300 -0.1246 -0.7228
15425SOL    HW147109   7.570   5.157   4.448  0.2237 -0.0361 -0.3954
15425SOL    HW247110   7.536   5.024   4.383  0.7460  1.0450 -3.0304
15426SOL     OW47111   7.742   2.169   7.576 -0.2848  0.0829  0.2108
15426SOL    HW147112   7.685   2.221   7.632  0.3141  3.3517 -1.9227
15426SOL    HW247113   7.816   2.227   7.556  2.9023 -3.2813  1.2606
15427SOL     OW47114   5.607   7.521   0.648 -0.0511 -0.0152  0.1436
15427SOL    HW147115   5.550   7.578   0.597  0.6773  0.4083 -0.2127
15427SOL    HW247116   5.620   7.444   0.592  1.5484  0.8814 -0.7598
15428SOL     OW47117   4.511   1.371   2.114  0.2197 -0.0907 -0.7936
15428SOL    HW147118   4.508   1.291   2.062 -1.5504 -0.5781 -0.0152
15428SOL    HW247119   4.464   1.436   2.061  0.5826  0.0954 -0.8879
15429SOL     OW47120   1.570   4.569   1.187 -0.2871 -0.4264 -0.3764
15429SOL    HW147121   1.499   4.516   1.225 -0.2381  0.1693  0.5895
15429SOL    HW247122   1.582   4.641   1.249  2.9680 -1.9223  0.9500
15430SOL     OW47123   7.885   1.347   6.087  0.1530 -0.1052  0.5764
15430SOL    HW147124   7.832   1.329   6.010  2.4422 -0.6921 -0.9715
15430SOL    HW247125   7.918   1.261   6.114 -1.4037 -0.0767  2.9268
15431SOL     OW47126   5.520   5.408   6.998 -0.4994 -0.1011 -0.0233
15431SOL    HW147127   5.477   5.430   6.915  0.6507 -0.5242 -0.7572
15431SOL    HW247128   5.610   5.385   6.973  0.7319  2.4772  1.6020
15432SOL     OW47129   6.354   0.577   5.890 -0.1796  0.3612  0.0132
15432SOL    HW147130   6.305   0.530   5.822 -1.0709  0.7387  0.3690
15432SOL    HW247131   6.286   0.604   5.952  0.6227 -0.0322  1.0813
15433SOL     OW47132   0.646   6.571   0.999 -0.1970  0.5186  0.4038
15433SOL    HW147133   0.691   6.613   0.925 -1.6751 -0.3680 -1.0625
15433SOL    HW247134   0.685   6.484   1.005 -2.4952 -0.7828 -1.7791
15434SOL     OW47135   6.001   6.182   5.290  0.2483  0.7147  0.2771
15434SOL    HW147136   6.018   6.169   5.197 -0.0753 -0.2197  0.3336
15434SOL    HW247137   5.961   6.269   5.295 -1.1090  0.1883 -0.6630
15435SOL     OW47138   1.660   0.746   3.964  0.2335 -0.1477 -0.0378
15435SOL    HW147139   1.622   0.780   4.045 -1.7715 -0.4828 -0.7739
15435SOL    HW247140   1.620   0.659   3.954  2.2099 -1.0956 -0.2494
15436SOL     OW47141   0.836   2.010   7.266  0.5486  0.1069 -0.2375
15436SOL    HW147142   0.900   2.079   7.283  0.2877  0.1929  0.4411
15436SOL    HW247143   0.814   2.019   7.174  0.1811  1.2346 -0.0520
15437SOL     OW47144   2.925   7.203   0.012  0.3963  0.3766 -0.0598
15437SOL    HW147145   2.931   7.278   0.070  0.4269  0.4331 -0.1362
15437SOL    HW247146   2.926   7.240  -0.076  0.1732  0.3017 -0.0946
15438SOL     OW47147   5.351   7.120   4.609  0.3340  0.3397  0.2149
15438SOL    HW147148   5.261   7.141   4.583  0.3793  0.7988  0.4094
15438SOL    HW247149   5.377   7.194   4.664  1.3839  1.0011 -1.1128
15439SOL     OW47150   1.886   5.286   1.628 -0.5867  0.4388 -0.1752
15439SOL    HW147151   1.979   5.265   1.618 -0.3185  0.3883  2.0557
15439SOL    HW247152   1.875   5.369   1.582  0.7153  0.7996  0.1325
15440SOL     OW47153   3.206   1.398   7.395  0.3104 -0.2478 -0.6295
15440SOL    HW147154   3.235   1.463   7.331 -2.5191  0.8340 -0.9741
15440SOL    HW247155   3.130   1.356   7.353 -1.4217  0.2409  1.8335
15441SOL     OW47156   4.596   1.367   2.589 -0.5129 -0.6543  0.0720
15441SOL    HW147157   4.659   1.419   2.539 -0.5570 -0.4608  0.2173
15441SOL    HW247158   4.650   1.311   2.645 -0.4643 -0.8325 -0.1523
15442SOL     OW47159   5.850   0.345   1.167  0.1504 -0.2334 -0.7804
15442SOL    HW147160   5.800   0.410   1.118 -0.5765 -0.4091 -0.2848
15442SOL    HW247161   5.860   0.383   1.254 -0.8294 -1.0503 -0.2999
15443SOL     OW47162   3.987   5.145   7.661  0.3432 -0.0636  0.2096
15443SOL    HW147163   4.047   5.154   7.587 -0.1226  0.1395 -0.1501
15443SOL    HW247164   4.039   5.169   7.738  0.3582  1.4109 -0.2388
15444SOL     OW47165   0.555   0.409   7.125  0.7734 -0.1020 -0.0050
15444SOL    HW147166   0.529   0.479   7.184  2.1410  0.3218  0.1342
15444SOL    HW247167   0.620   0.449   7.067  0.0640 -0.7198 -1.2781
15445SOL     OW47168   1.963   5.132   0.727 -0.1892 -0.4917 -0.5138
15445SOL    HW147169   1.992   5.217   0.694  2.2339 -0.7127  0.8194
15445SOL    HW247170   1.882   5.151   0.774  1.0462  1.4157  1.0066
15446SOL     OW47171   5.571   1.372   7.644 -0.1569  0.2869  0.1875
15446SOL    HW147172   5.614   1.456   7.625 -1.0835  0.5300 -0.9143
15446SOL    HW247173   5.584   1.320   7.565 -1.6782  0.2894 -0.0916
15447SOL     OW47174   3.231   6.516   5.664  0.7059  0.5081 -0.5489
15447SOL    HW147175   3.225   6.607   5.693  0.4101 -0.0163  1.1330
15447SOL    HW247176   3.319   6.489   5.692 -0.0485 -0.3841  1.1124
15448SOL     OW47177   0.344   4.322   3.107  0.3258  0.3666 -0.7583
15448SOL    HW147178   0.430   4.341   3.143 -0.4378  0.9555  0.8554
15448SOL    HW247179   0.362   4.278   3.024  2.1741  1.9859 -1.2980
15449SOL     OW47180   1.850   3.657   3.339 -0.0034 -0.3121  0.7713
15449SOL    HW147181   1.914   3.729   3.334 -0.2953 -0.1330 -0.5462
15449SOL    HW247182   1.833   3.633   3.248 -1.0006 -1.0912  1.1479
15450SOL     OW47183   5.590   4.205   5.783  0.2515 -0.4608  0.1139
15450SOL    HW147184   5.651   4.174   5.849  0.0184 -0.0233  0.5427
15450SOL    HW247185   5.504   4.181   5.817  0.1130  0.0291  0.1234
15451SOL     OW47186   3.299   1.475   6.891 -0.0402  0.1154  0.0707
15451SOL    HW147187   3.289   1.392   6.935  0.1136 -0.3287 -0.7068
15451SOL    HW247188   3.347   1.454   6.811  0.6308  1.0582  0.2080
15452SOL     OW47189   5.168   6.667   3.952  0.1040 -0.2797 -0.3764
15452SOL    HW147190   5.234   6.697   4.015 -2.2863 -1.1325  2.7684
15452SOL    HW247191   5.195   6.578   3.930  0.5619 -0.2413  0.0163
15453SOL     OW47192   6.149   3.217   5.205 -0.0727  0.4190 -0.2566
15453SOL    HW147193   6.187   3.133   5.231 -0.9693 -0.2318 -0.9818
15453SOL    HW247194   6.195   3.281   5.258  1.6164 -0.3879 -0.6534
15454SOL     OW47195   5.064   5.049   1.863 -0.2667 -0.5490  0.7145
15454SOL    HW147196   5.020   4.988   1.803 -0.8863 -0.0801  0.6743
15454SOL    HW247197   5.094   4.994   1.935  1.3192 -1.2746 -0.4472
15455SOL     OW47198   2.485   4.706   4.771  0.8801  0.1707 -0.0821
15455SOL    HW147199   2.477   4.649   4.695 -0.8691  1.2470 -0.7747
15455SOL    HW247200   2.577   4.700   4.797  0.9494 -2.2069 -0.6759
15456SOL     OW47201   0.191   3.925   4.819 -0.4759  0.2211 -0.6612
15456SOL    HW147202   0.183   3.873   4.899  2.1941 -1.2049 -1.2150
15456SOL    HW247203   0.113   3.902   4.768 -1.0320 -0.6295  0.5124
15457SOL     OW47204   1.052   4.497   2.155  0.0679  0.2643 -0.1349
15457SOL    HW147205   1.105   4.563   2.110 -0.3368 -0.3151 -1.4953
15457SOL    HW247206   1.112   4.460   2.221  1.0920  0.2336 -1.0549
15458SOL     OW47207   7.471   4.959   1.080  0.2584 -0.1008 -0.6167
15458SOL    HW147208   7.403   4.932   1.019 -0.2767 -1.1017  0.3687
15458SOL    HW247209   7.548   4.909   1.055  0.1246 -0.2845 -0.6577
15459SOL     OW47210   5.069   3.139   6.318 -0.6707 -0.1291 -0.4158
15459SOL    HW147211   5.085   3.201   6.389  0.2987  0.0055 -0.7350
15459SOL    HW247212   5.136   3.071   6.330  0.3789  0.5713 -1.9459
15460SOL     OW47213   0.358   1.371   2.988  0.0102 -0.1814  0.1727
15460SOL    HW147214   0.336   1.407   2.902 -1.1010  1.2768  1.0311
15460SOL    HW247215   0.408   1.440   3.031 -0.2095 -0.5465  1.0286
15461SOL     OW47216   4.091   1.488   2.325  0.3887  0.4269 -1.0815
15461SOL    HW147217   4.111   1.407   2.371  1.2198  0.4574 -1.3764
15461SOL    HW247218   4.063   1.460   2.238 -1.9634  0.3236 -0.3495
15462SOL     OW47219   4.599   5.228   7.708 -0.4025  0.7172  0.2766
15462SOL    HW147220   4.595   5.133   7.697  0.6731  0.3762  2.4220
15462SOL    HW247221   4.679   5.254   7.663 -0.9889  0.7207 -0.8018
15463SOL     OW47222   5.431   7.752   2.984 -0.0404 -0.0315  0.0875
15463SOL    HW147223   5.421   7.719   3.074  0.0630  0.1505  0.1673
15463SOL    HW247224   5.385   7.835   2.984  0.3957  0.2143  0.1149
15464SOL     OW47225   7.379   6.227   4.853  0.0016  0.2081 -0.4006
15464SOL    HW147226   7.319   6.188   4.789  0.9495 -2.0913  0.0180
15464SOL    HW247227   7.465   6.220   4.812  0.5484 -0.7624  0.8424
15465SOL     OW47228   0.010   4.353   5.672 -0.2063  0.6025 -0.1221
15465SOL    HW147229  -0.081   4.354   5.703  0.1669 -0.0136  1.0379
15465SOL    HW247230   0.010   4.290   5.600 -0.5504 -0.0529  0.4286
15466SOL     OW47231   3.714   1.270   5.707  0.0130 -0.3060  0.0288
15466SOL    HW147232   3.708   1.362   5.733 -0.1952 -0.5141  0.7597
15466SOL    HW247233   3.685   1.269   5.616 -1.2883  0.1830  0.4038
15467SOL     OW47234   7.149   2.490   6.317 -0.0723  0.0562 -0.2004
15467SOL    HW147235   7.181   2.467   6.229 -0.7860  0.7482 -0.6513
15467SOL    HW247236   7.116   2.408   6.353  1.1187 -0.4377 -0.1825
15468SOL     OW47237   0.795   5.648   5.590 -0.2133  0.0184 -0.0742
15468SOL    HW147238   0.798   5.628   5.496 -0.6728 -0.3594 -0.0111
15468SOL    HW247239   0.724   5.594   5.624 -1.4094  1.6546  0.1366
15469SOL     OW47240   1.096   1.613   7.165 -0.0674 -0.6586  0.2682
15469SOL    HW147241   1.117   1.654   7.080  0.3119 -0.0333  0.6503
15469SOL    HW247242   1.005   1.635   7.180  0.0238 -0.2820  0.2851
15470SOL     OW47243   6.998   1.343   4.275 -0.9467  0.2300  0.1231
15470SOL    HW147244   7.093   1.334   4.283 -0.8055  1.0403 -0.6076
15470SOL    HW247245   6.964   1.257   4.301  0.0671 -0.5793 -1.1385
15471SOL     OW47246   4.308   7.840   6.228  0.1608  0.4616 -0.2218
15471SOL    HW147247   4.338   7.843   6.319 -1.5764  0.7201  0.3790
15471SOL    HW247248   4.383   7.869   6.177  0.3973  2.9036  1.3425
15472SOL     OW47249   3.852   1.175   5.095 -0.3591 -0.9057  0.1620
15472SOL    HW147250   3.931   1.143   5.051 -1.1228 -2.3947 -0.2181
15472SOL    HW247251   3.789   1.188   5.023 -0.3640  0.6363  0.4160
15473SOL     OW47252   2.252   7.545   3.912 -0.4139  0.0981 -0.0551
15473SOL    HW147253   2.209   7.609   3.969  1.1972  0.3288  0.9825
15473SOL    HW247254   2.308   7.598   3.854  2.2270 -0.3024  1.9081
15474SOL     OW47255   3.129   3.876   2.400 -0.5269 -0.5418 -0.4285
15474SOL    HW147256   3.042   3.914   2.411 -0.5695 -0.6454 -0.4011
15474SOL    HW247257   3.174   3.892   2.484 -0.2957  0.0754 -0.6660
15475SOL     OW47258   5.197   0.123   4.156 -0.5236  0.2012  0.1027
15475SOL    HW147259   5.172   0.201   4.108  0.0259  0.4159  0.1552
15475SOL    HW247260   5.272   0.088   4.107 -0.4781 -0.0378  0.3382
15476SOL     OW47261   0.877   1.785   5.110  0.4576 -0.3382  0.0117
15476SOL    HW147262   0.940   1.787   5.182 -0.3271 -1.1863  0.7394
15476SOL    HW247263   0.902   1.859   5.054 -1.1550  2.8559  3.0748
15477SOL     OW47264   0.327   6.055   0.497 -0.8856  0.5800 -0.5349
15477SOL    HW147265   0.409   6.048   0.548 -0.5300 -0.3620 -1.2247
15477SOL    HW247266   0.350   6.112   0.423 -0.8696  0.3518 -0.7045
15478SOL     OW47267   2.823   4.661   0.555  0.1213 -0.2337 -0.1008
15478SOL    HW147268   2.878   4.705   0.619  0.4387 -0.8444  0.0480
15478SOL    HW247269   2.882   4.602   0.508 -0.1969 -0.1198 -0.6527
15479SOL     OW47270   7.316   5.658   3.831 -0.0562  0.2225  0.1260
15479SOL    HW147271   7.229   5.625   3.851  0.5149 -0.7417  1.1114
15479SOL    HW247272   7.301   5.724   3.763 -1.5774  0.3237  0.5158
15480SOL     OW47273   7.752   0.386   5.329 -0.5944  0.2530  0.1463
15480SOL    HW147274   7.657   0.374   5.326 -0.5042 -0.6118  0.3712
15480SOL    HW247275   7.782   0.316   5.387  0.3897 -0.8600 -1.6164
15481SOL     OW47276   0.321   2.315   4.019  0.1153  0.0489 -0.2182
15481SOL    HW147277   0.254   2.368   3.976 -0.6960 -1.7084 -1.2293
15481SOL    HW247278   0.272   2.264   4.084  0.0539 -2.6839 -2.2710
15482SOL     OW47279   6.649   3.247   0.670  0.3517 -0.5827  0.0721
15482SOL    HW147280   6.699   3.252   0.751  0.5761 -1.2538 -0.0224
15482SOL    HW247281   6.715   3.236   0.602  0.0617 -2.2547  0.0212
15483SOL     OW47282   0.229   5.074   0.422 -0.2033  0.2702 -0.2516
15483SOL    HW147283   0.196   5.145   0.367 -0.9948 -0.0005 -0.1351
15483SOL    HW247284   0.289   5.026   0.364 -1.6650 -0.5079 -1.1767
15484SOL     OW47285   3.460   3.790   2.787 -0.1723 -0.4195 -0.0315
15484SOL    HW147286   3.495   3.848   2.855  0.1081 -0.8368  0.1886
15484SOL    HW247287   3.519   3.802   2.713 -1.1636  0.9238 -0.6329
15485SOL     OW47288   4.521   4.517   1.680  0.1433 -0.2105 -0.6060
15485SOL    HW147289   4.598   4.554   1.725  0.1311 -2.3054  1.3304
15485SOL    HW247290   4.558   4.467   1.607  0.5850 -0.4192 -0.2511
15486SOL     OW47291   1.131   5.207   3.282  0.1800 -0.5696  0.7716
15486SOL    HW147292   1.134   5.129   3.227 -0.6420  1.2118 -2.0326
15486SOL    HW247293   1.209   5.201   3.337  0.1512 -3.2862  0.6513
15487SOL     OW47294   6.269   6.085   7.514 -0.2261 -0.2207 -0.2789
15487SOL    HW147295   6.329   6.114   7.445 -0.0597 -0.8455 -0.4072
15487SOL    HW247296   6.309   6.116   7.595 -0.3616  0.4195 -0.4522
15488SOL     OW47297   2.951   7.099   2.605 -0.8344 -0.0406 -0.0578
15488SOL    HW147298   3.008   7.164   2.645  0.4630  0.4164 -2.4665
15488SOL    HW247299   2.893   7.149   2.548 -0.7972 -0.8490 -0.8321
15489SOL     OW47300   7.312   2.525   4.857 -0.0714  0.4596  0.1695
15489SOL    HW147301   7.236   2.578   4.832  0.1738  0.0203 -1.6340
15489SOL    HW247302   7.296   2.502   4.949 -1.4903  1.4186  0.1921
15490SOL     OW47303   2.739   7.631   4.012  0.5260 -0.2044 -0.0644
15490SOL    HW147304   2.669   7.566   4.008 -0.1796  0.5540 -0.3041
15490SOL    HW247305   2.820   7.580   4.001  0.1498 -1.3098  1.8473
15491SOL     OW47306   4.452   1.690   7.078 -0.2525 -0.0895 -0.1487
15491SOL    HW147307   4.528   1.642   7.111  0.4792  0.3946 -1.0846
15491SOL    HW247308   4.457   1.680   6.983 -0.8897  0.6498 -0.2688
15492SOL     OW47309   4.503   7.044   3.462 -0.0465  0.1411  0.1167
15492SOL    HW147310   4.561   7.000   3.524 -1.7799 -1.5364  0.6385
15492SOL    HW247311   4.539   7.132   3.454  0.5563  0.2740  3.1127
15493SOL     OW47312   2.454   1.404   6.441  0.2497  0.2532 -0.5689
15493SOL    HW147313   2.391   1.476   6.446  1.0367  0.9247  0.1706
15493SOL    HW247314   2.443   1.368   6.354  0.1196  1.5613 -1.1196
15494SOL     OW47315   1.986   5.805   3.797  0.1409 -0.0076  0.2351
15494SOL    HW147316   1.934   5.726   3.779  0.8755 -0.4150 -0.1790
15494SOL    HW247317   1.959   5.868   3.730  0.4739 -0.3682 -0.2503
15495SOL     OW47318   0.433   5.367   6.567 -0.4098  0.4009 -0.2850
15495SOL    HW147319   0.491   5.443   6.570 -0.0153  0.0892  2.0077
15495SOL    HW247320   0.390   5.373   6.482  3.2274  0.4279 -2.3200
15496SOL     OW47321   1.908   0.769   2.462  0.0270 -0.0475 -0.4505
15496SOL    HW147322   1.980   0.816   2.505 -0.6197  1.2559 -0.7486
15496SOL    HW247323   1.865   0.721   2.533  0.9799 -0.5861 -0.2169
15497SOL     OW47324   2.289   6.612   3.213  0.8149  0.6653  0.2299
15497SOL    HW147325   2.383   6.628   3.220  0.9695  0.0965 -0.5027
15497SOL    HW247326   2.281   6.530   3.165 -0.0385  0.1627  1.1937
15498SOL     OW47327   4.685   0.505   7.754  0.3790 -0.4154 -0.0390
15498SOL    HW147328   4.763   0.520   7.700  1.2027  1.6449  1.5874
15498SOL    HW247329   4.631   0.582   7.740  0.0490 -0.4213  1.1221
15499SOL     OW47330   3.165   7.141   0.781 -0.4126  0.0376 -0.0530
15499SOL    HW147331   3.075   7.111   0.766 -0.6601  0.0016  1.3671
15499SOL    HW247332   3.158   7.236   0.786 -0.3865  0.0267  0.1763
15500SOL     OW47333   1.626   7.006   5.064  0.6788  0.1414 -0.3559
15500SOL    HW147334   1.689   6.975   5.129  0.4973 -0.2271 -0.3514
15500SOL    HW247335   1.644   7.099   5.055  0.4306  0.2773  0.5194
15501SOL     OW47336   0.773   5.668   3.515 -0.7308  0.6427 -0.0478
15501SOL    HW147337   0.714   5.651   3.589 -0.0161 -1.2794  0.1231
15501SOL    HW247338   0.714   5.682   3.441 -1.4481 -0.9273  0.1827
15502SOL     OW47339   6.896   5.524   7.151  0.2136 -0.6134 -0.0612
15502SOL    HW147340   6.834   5.558   7.086  0.2312 -1.2548 -0.4289
15502SOL    HW247341   6.846   5.459   7.199  0.9368 -2.1186 -1.2438
15503SOL     OW47342   6.709   1.592   3.478 -0.7122  0.4187  0.0981
15503SOL    HW147343   6.677   1.511   3.517  2.5807 -0.4357  1.3365
15503SOL    HW247344   6.804   1.582   3.477 -0.1446  4.3595  0.4819
15504SOL     OW47345   5.017   7.629   0.413  0.1574  0.1094  0.5911
15504SOL    HW147346   5.061   7.681   0.480 -0.1983  1.4388 -0.1796
15504SOL    HW247347   4.941   7.682   0.388  0.8610  0.1500 -1.6166
15505SOL     OW47348   0.908   5.721   0.740  0.6454 -1.0140  0.3927
15505SOL    HW147349   0.856   5.779   0.796  1.7391 -0.8457  1.2708
15505SOL    HW247350   0.853   5.705   0.664  1.0257  2.8275 -0.9026
15506SOL     OW47351   7.754   7.720   1.972  0.3788  0.1380  0.3384
15506SOL    HW147352   7.803   7.785   2.021  0.5526  0.3319 -0.0848
15506SOL    HW247353   7.686   7.770   1.927 -0.5977 -0.2015  1.3819
15507SOL     OW47354   2.846   4.553   5.166  0.5593 -0.2013  0.1015
15507SOL    HW147355   2.772   4.605   5.198  0.1144  0.5111 -1.9278
15507SOL    HW247356   2.897   4.614   5.113  1.7018 -1.1052  0.1190
15508SOL     OW47357   1.833   2.032   2.142 -1.0985  0.0669 -0.1267
15508SOL    HW147358   1.796   2.107   2.096 -0.9311 -0.1299 -0.5901
15508SOL    HW247359   1.757   1.980   2.169 -1.1985  0.1763 -0.1954
15509SOL     OW47360   1.771   1.758   6.168 -0.1726  0.2032 -0.0263
15509SOL    HW147361   1.782   1.838   6.220 -1.9653  1.0776 -0.9268
15509SOL    HW247362   1.677   1.743   6.165  0.1255 -1.9927  0.1470
15510SOL     OW47363   2.894   0.323   1.667 -0.0141 -0.3070  0.4380
15510SOL    HW147364   2.866   0.246   1.717  1.8317 -0.9439  0.5546
15510SOL    HW247365   2.986   0.307   1.647 -0.0029  1.1613 -0.9127
15511SOL     OW47366   4.350   5.035   2.935 -0.2383 -0.2512  0.2046
15511SOL    HW147367   4.354   5.111   2.993  0.0349 -0.7066  0.7994
15511SOL    HW247368   4.261   5.002   2.944 -0.5223  0.3187 -0.4792
15512SOL     OW47369   7.497   7.225   7.212  0.2508 -0.1265  0.3149
15512SOL    HW147370   7.552   7.176   7.152  0.4847 -1.5285  1.6109
15512SOL    HW247371   7.433   7.161   7.244  0.5544  0.3899  2.0603
15513SOL     OW47372   5.659   7.238   5.753  0.0240  0.1973 -0.4759
15513SOL    HW147373   5.682   7.323   5.715  2.6249 -0.7271 -1.2192
15513SOL    HW247374   5.729   7.221   5.817  1.2952 -2.6106 -2.4325
15514SOL     OW47375   6.680   6.318   6.147  0.5335 -0.0914  0.3215
15514SOL    HW147376   6.765   6.285   6.176  0.9634  0.4992 -0.2360
15514SOL    HW247377   6.642   6.247   6.096  0.0370 -0.9125  1.7972
15515SOL     OW47378   1.241   6.639   5.253 -0.1627 -0.0666  0.4695
15515SOL    HW147379   1.238   6.733   5.271 -2.2898  0.0507 -0.2432
15515SOL    HW247380   1.281   6.632   5.166  0.9296  0.0695  0.9389
15516SOL     OW47381   2.813   6.545   2.898 -0.3001  0.0733 -0.8228
15516SOL    HW147382   2.719   6.539   2.879 -0.6398 -0.1828  0.7741
15516SOL    HW247383   2.834   6.638   2.883 -0.9631  0.2769 -0.5383
15517SOL     OW47384   3.096   5.141   2.151 -0.1563 -0.2206 -0.0023
15517SOL    HW147385   3.040   5.069   2.121  0.7783 -0.2862 -1.6771
15517SOL    HW247386   3.183   5.103   2.157 -0.3846 -0.5184  3.9951
15518SOL     OW47387   3.036   4.780   1.641 -0.2286  0.3622  0.5167
15518SOL    HW147388   2.962   4.811   1.692  0.0560 -0.1972  1.2811
15518SOL    HW247389   3.086   4.859   1.619 -0.6742  0.6626  0.5891
15519SOL     OW47390   6.986   6.766   6.498 -1.0471 -0.1510 -0.0369
15519SOL    HW147391   7.045   6.714   6.553 -1.8007 -2.5193 -1.3435
15519SOL    HW247392   6.944   6.827   6.559  1.5620  0.5712  1.1843
15520SOL     OW47393   4.203   5.572   5.955  0.7571  0.2551  0.1701
15520SOL    HW147394   4.148   5.596   5.880  1.9068  0.7899 -0.5275
15520SOL    HW247395   4.217   5.478   5.947  1.0073  0.3375 -0.3928
15521SOL     OW47396   1.012   5.539   1.778  0.6830  0.8459  0.4044
15521SOL    HW147397   1.069   5.472   1.741  1.7583  0.6644  2.2816
15521SOL    HW247398   0.932   5.492   1.804  0.6798  0.6514  0.0556
15522SOL     OW47399   6.549   2.348   2.347 -0.4522  0.3825 -0.5475
15522SOL    HW147400   6.597   2.420   2.305  0.5546 -1.1140 -2.1120
15522SOL    HW247401   6.613   2.276   2.351 -1.9565 -1.0205 -0.7450
15523SOL     OW47402   3.714   6.738   2.108 -0.1261  0.3535 -0.3239
15523SOL    HW147403   3.683   6.792   2.181 -0.0103 -0.8515  0.6459
15523SOL    HW247404   3.634   6.700   2.071 -0.2105  1.1745 -1.0281
15524SOL     OW47405   3.679   0.154   1.168  0.4384 -0.1695 -0.6163
15524SOL    HW147406   3.602   0.127   1.217  0.3221  1.2578  0.0576
15524SOL    HW247407   3.692   0.086   1.103 -0.5989 -1.1016  0.1183
15525SOL     OW47408   4.713   5.095   0.430 -0.3729  0.2578  0.1908
15525SOL    HW147409   4.800   5.133   0.423 -0.3407  0.0569 -0.6322
15525SOL    HW247410   4.728   5.006   0.461 -0.1492 -0.2547 -1.2954
15526SOL     OW47411   3.445   2.330   4.756  0.0805  0.0346 -0.2644
15526SOL    HW147412   3.452   2.250   4.703 -2.7425 -0.6025  0.1472
15526SOL    HW247413   3.430   2.400   4.692  2.3684  0.2724 -0.6144
15527SOL     OW47414   2.581   2.490   4.458 -0.2314  0.0111 -0.7263
15527SOL    HW147415   2.590   2.471   4.364 -1.2677 -0.9108 -0.6631
15527SOL    HW247416   2.560   2.583   4.461  0.7662  0.2777 -1.3346
15528SOL     OW47417   7.632   0.325   1.041  0.1976 -0.2955  0.2549
15528SOL    HW147418   7.550   0.304   1.086 -0.7793  1.8828 -0.3880
15528SOL    HW247419   7.617   0.301   0.950  0.3209  0.0046  0.1537
15529SOL     OW47420   2.067   1.139   6.957  0.2371 -0.3552  0.0842
15529SOL    HW147421   2.019   1.142   7.039 -0.9206 -0.5777 -0.5681
15529SOL    HW247422   2.150   1.096   6.979  0.6246  1.0159  1.4422
15530SOL     OW47423   6.114   1.153   3.975  0.3941 -0.0595 -0.3078
15530SOL    HW147424   6.052   1.097   4.022 -0.3046 -0.7381 -1.9464
15530SOL    HW247425   6.122   1.231   4.029 -0.1974 -0.8898  1.0214
15531SOL     OW47426   7.261   5.162   5.490  0.0477  0.0788  0.1108
15531SOL    HW147427   7.321   5.089   5.473 -0.5966 -0.2713 -0.7305
15531SOL    HW247428   7.176   5.120   5.505 -0.3582  0.6540 -0.5278
15532SOL     OW47429   4.451   2.831   1.151 -0.6046  0.1800 -0.1726
15532SOL    HW147430   4.381   2.774   1.120 -0.1251 -0.7520  0.4070
15532SOL    HW247431   4.508   2.773   1.203 -0.4774  1.3326  1.0250
15533SOL     OW47432   0.746   7.616   4.598  0.0076  0.2065  0.4245
15533SOL    HW147433   0.781   7.532   4.567  1.5297  0.6181  0.9413
15533SOL    HW247434   0.813   7.680   4.574 -1.0710  1.2653  0.1647
15534SOL     OW47435   3.470   2.758   0.819 -0.4858 -0.1615 -0.3724
15534SOL    HW147436   3.466   2.707   0.738  0.6709 -1.4760  0.3437
15534SOL    HW247437   3.389   2.736   0.866 -0.6856 -0.1867 -0.7312
15535SOL     OW47438   1.911   4.609   4.111 -0.2341 -0.4097  0.4352
15535SOL    HW147439   1.892   4.691   4.155 -1.3112 -0.0900 -0.5904
15535SOL    HW247440   1.888   4.624   4.019 -0.2568 -1.7844  0.1849
15536SOL     OW47441   2.834   6.347   1.620  0.6045 -0.7901 -0.0563
15536SOL    HW147442   2.807   6.404   1.548  0.1943  1.5482  1.8160
15536SOL    HW247443   2.928   6.333   1.606  0.6010 -0.0797 -0.8577
15537SOL     OW47444   0.591   7.616   6.626 -0.1676  0.7566 -0.5588
15537SOL    HW147445   0.605   7.594   6.534 -1.2327 -1.2736 -0.2880
15537SOL    HW247446   0.500   7.644   6.630  0.0402  1.3934 -0.2059
15538SOL     OW47447   6.765   6.589   4.954 -0.3445 -0.0792 -0.0409
15538SOL    HW147448   6.854   6.593   4.920 -0.8790  0.8414 -1.4454
15538SOL    HW247449   6.713   6.640   4.891 -1.8091 -0.3383  0.9018
15539SOL     OW47450   5.596   7.288   0.194 -0.0034  0.4339  0.0997
15539SOL    HW147451   5.594   7.204   0.239  1.5070 -1.2021 -2.6347
15539SOL    HW247452   5.546   7.273   0.113  2.0450  1.4598 -1.4316
15540SOL     OW47453   3.658   0.369   5.217 -0.2300 -0.3003 -0.6230
15540SOL    HW147454   3.632   0.354   5.308 -1.1578  0.5573 -0.7363
15540SOL    HW247455   3.587   0.333   5.165 -0.3840  0.4893 -0.9750
15541SOL     OW47456   7.258   5.324   1.176  0.2087 -0.4529 -0.0623
15541SOL    HW147457   7.326   5.390   1.193  0.6987 -0.6541 -1.1507
15541SOL    HW247458   7.294   5.271   1.105  0.2506 -2.5138  1.4073
15542SOL     OW47459   4.117   4.202   0.339  0.1070  0.6710 -0.5143
15542SOL    HW147460   4.101   4.271   0.275  0.2606  0.3574 -0.8913
15542SOL    HW247461   4.198   4.161   0.310  0.9359  1.4106  0.6595
15543SOL     OW47462   2.229   5.205   5.001  0.4514 -0.2970 -0.2432
15543SOL    HW147463   2.141   5.177   4.977  0.1151  1.5046 -1.3194
15543SOL    HW247464   2.221   5.231   5.093 -0.4379  0.7996 -0.5971
15544SOL     OW47465   0.079   4.843   6.990  0.1821  0.2448 -0.0940
15544SOL    HW147466   0.136   4.879   7.059 -0.4795  0.1509  0.5189
15544SOL    HW247467   0.071   4.750   7.013  2.3681 -0.5108 -1.9965
15545SOL     OW47468   0.943   3.633   3.230 -0.3881 -0.2290 -0.1144
15545SOL    HW147469   0.869   3.662   3.283 -1.0742 -0.2716 -1.0139
15545SOL    HW247470   0.945   3.695   3.156 -0.7825 -1.3958 -1.1358
15546SOL     OW47471   3.536   7.307   5.636 -0.8342 -0.0719  0.4053
15546SOL    HW147472   3.506   7.246   5.568  0.6280  1.0900 -1.3736
15546SOL    HW247473   3.458   7.359   5.656 -1.3299 -0.5049 -0.2981
15547SOL     OW47474   1.064   3.989   0.171  0.1568 -0.4579  0.5003
15547SOL    HW147475   1.021   4.027   0.094 -1.9271  0.8654  2.1808
15547SOL    HW247476   1.002   3.924   0.203  0.8282 -0.7299  1.2708
15548SOL     OW47477   5.284   5.947   4.379  0.4519 -0.3787 -0.1764
15548SOL    HW147478   5.221   5.958   4.308  0.6267 -0.7305 -0.3876
15548SOL    HW247479   5.334   5.868   4.356  1.8460  0.6111 -0.6875
15549SOL     OW47480   7.182   3.624   0.474 -0.0431 -0.3063  1.0769
15549SOL    HW147481   7.104   3.636   0.420  1.3858  0.4740 -0.9290
15549SOL    HW247482   7.153   3.568   0.546 -2.1976 -0.8837 -0.1576
15550SOL     OW47483   4.396   3.439   4.106  0.2480 -0.5291  0.0062
15550SOL    HW147484   4.321   3.445   4.166 -0.8479  1.5746 -1.4515
15550SOL    HW247485   4.374   3.366   4.048 -0.2697 -0.4598  0.1122
15551SOL     OW47486   1.684   6.039   3.383  0.1292  0.5441  0.3727
15551SOL    HW147487   1.604   6.006   3.423  0.7667 -0.4199  0.9025
15551SOL    HW247488   1.678   6.014   3.291  0.1318 -0.1705  0.5588
15552SOL     OW47489   4.584   4.141   7.180 -0.1293  0.3345 -0.6712
15552SOL    HW147490   4.551   4.077   7.243  0.7740  0.9535  0.4775
15552SOL    HW247491   4.619   4.088   7.108 -0.6209 -0.4038 -0.3789
15553SOL     OW47492   3.909   2.975   7.506  0.4974 -0.2461  0.5990
15553SOL    HW147493   3.855   3.018   7.572 -1.7023 -1.0293 -0.5894
15553SOL    HW247494   3.886   2.882   7.512  1.4346 -0.5527 -0.1976
15554SOL     OW47495   1.886   3.062   3.842  0.0286  0.7856 -0.1603
15554SOL    HW147496   1.868   3.036   3.933 -1.3824  1.4596 -0.2227
15554SOL    HW247497   1.839   2.998   3.789  1.3030  0.0643 -0.4484
15555SOL     OW47498   7.514   1.280   0.917  0.0594 -0.4917 -0.8658
15555SOL    HW147499   7.537   1.275   0.824 -0.5661 -2.3074 -0.9448
15555SOL    HW247500   7.424   1.248   0.922 -1.4587  3.3149 -0.0990
15556SOL     OW47501   2.771   6.108   2.756  0.0596  0.2301  0.1930
15556SOL    HW147502   2.771   6.178   2.691  1.6659  0.3015  0.2244
15556SOL    HW247503   2.804   6.031   2.709 -1.8771 -0.6174  0.1001
15557SOL     OW47504   5.305   5.294   1.370  0.2007  0.5425 -0.5348
15557SOL    HW147505   5.363   5.262   1.301 -0.4498  0.1970 -0.9318
15557SOL    HW247506   5.217   5.285   1.334 -0.1048  1.0845  0.0494
15558SOL     OW47507   6.284   7.577   3.163 -0.3152  0.2817 -0.1013
15558SOL    HW147508   6.285   7.672   3.176  2.1713  0.0650  2.1691
15558SOL    HW247509   6.305   7.541   3.249 -2.1329 -2.4247 -0.6718
15559SOL     OW47510   0.420   6.654   3.216 -0.1170  0.2430 -0.2467
15559SOL    HW147511   0.397   6.625   3.305  1.3378  3.1295  1.2186
15559SOL    HW247512   0.341   6.697   3.184 -0.4156 -0.1577 -0.0594
15560SOL     OW47513   2.057   2.589   0.388 -0.0343  0.2688 -0.4053
15560SOL    HW147514   2.009   2.528   0.445 -0.4366  1.4416  0.5526
15560SOL    HW247515   2.150   2.570   0.405 -0.1476 -0.4750 -0.5763
15561SOL     OW47516   0.188   6.387   7.545  0.2534 -0.0196 -0.1046
15561SOL    HW147517   0.103   6.430   7.532 -1.5515 -3.1295  0.1830
15561SOL    HW247518   0.245   6.425   7.479 -1.0382  2.8398  0.2767
15562SOL     OW47519   6.451   0.935   6.727 -0.0852 -0.2997  0.0901
15562SOL    HW147520   6.370   0.887   6.715 -1.3814  0.9697  2.8481
15562SOL    HW247521   6.516   0.867   6.749 -1.1683 -1.0822  0.9897
15563SOL     OW47522   1.190   4.748   2.378 -0.1758  0.3317  0.4580
15563SOL    HW147523   1.124   4.814   2.398  0.0895  0.5127  0.7545
15563SOL    HW247524   1.151   4.665   2.405 -0.2746  0.4394  0.6524
15564SOL     OW47525   0.901   6.905   3.749  0.6343 -0.8442 -0.0500
15564SOL    HW147526   0.886   6.811   3.760  0.1338 -0.7403  0.2104
15564SOL    HW247527   0.871   6.924   3.660 -0.8517 -0.6415  0.4615
15565SOL     OW47528   4.830   6.077   1.116  0.2108  0.0510 -0.4544
15565SOL    HW147529   4.842   6.038   1.203  3.1963  1.9891  0.1952
15565SOL    HW247530   4.910   6.054   1.069  0.1575  1.7360 -1.4673
15566SOL     OW47531   7.076   4.425   1.460  0.0629 -0.5157 -0.3051
15566SOL    HW147532   7.075   4.515   1.427  0.2275 -0.2537  0.3778
15566SOL    HW247533   7.140   4.380   1.405 -0.3614 -0.3348 -0.9536
15567SOL     OW47534   7.607   5.529   1.766 -0.3400  1.0201 -0.1890
15567SOL    HW147535   7.674   5.595   1.745 -0.6063  1.2135 -0.4474
15567SOL    HW247536   7.541   5.541   1.698 -0.0688  0.0224 -0.6418
15568SOL     OW47537   5.723   1.828   0.529 -0.3498  0.1410 -0.0155
15568SOL    HW147538   5.719   1.732   0.529  0.6200  0.0845  0.9382
15568SOL    HW247539   5.800   1.848   0.475 -0.5631  0.3907 -0.2291
15569SOL     OW47540   2.340   7.693   5.665 -0.5132  0.9381  0.2740
15569SOL    HW147541   2.352   7.717   5.757  0.9639  0.7541  0.1519
15569SOL    HW247542   2.268   7.749   5.635 -0.9353  1.0820  1.4965
15570SOL     OW47543   2.033   0.645   7.437  0.2211  0.0995  0.1799
15570SOL    HW147544   1.978   0.635   7.515  0.2358 -0.9701  0.0546
15570SOL    HW247545   1.971   0.666   7.367  0.2455  1.4925  0.5272
15571SOL     OW47546   3.533   2.432   3.351  0.5500  0.2122 -0.0753
15571SOL    HW147547   3.464   2.396   3.407  0.9608 -0.9878 -0.3216
15571SOL    HW247548   3.489   2.502   3.302 -0.2891  0.0147  0.3705
15572SOL     OW47549   4.365   7.730   0.079  0.1427  0.2487  0.0350
15572SOL    HW147550   4.412   7.662   0.031 -1.9793 -0.5387 -1.0504
15572SOL    HW247551   4.423   7.806   0.075  2.3521 -1.2765  0.8357
15573SOL     OW47552   4.042   3.746   2.718  0.1087 -0.3625 -0.0365
15573SOL    HW147553   3.993   3.786   2.790 -0.8075 -3.7238  1.3994
15573SOL    HW247554   4.004   3.786   2.639 -1.7123  0.5189  1.1966
15574SOL     OW47555   6.870   3.092   5.578 -0.0213  0.4433  0.3095
15574SOL    HW147556   6.848   3.159   5.642 -1.5299  0.9493 -0.6713
15574SOL    HW247557   6.948   3.049   5.613  0.9737  2.6725  0.9912
15575SOL     OW47558   1.840   7.098   4.434  0.0401 -0.5107  0.1221
15575SOL    HW147559   1.910   7.051   4.480  0.4619 -0.5811 -0.5760
15575SOL    HW247560   1.768   7.036   4.430 -0.3477 -0.1826  1.5050
15576SOL     OW47561   2.520   3.884   3.521  0.6582 -0.3394  0.7264
15576SOL    HW147562   2.517   3.791   3.502 -1.5302 -0.0383 -0.7142
15576SOL    HW247563   2.587   3.919   3.462  0.1123 -0.7225 -0.1235
15577SOL     OW47564   2.332   7.073   1.684  0.1960 -0.2037  0.0527
15577SOL    HW147565   2.293   7.160   1.690  0.2828 -0.2384  1.2881
15577SOL    HW247566   2.361   7.053   1.773  0.9778 -1.1285 -0.3886
15578SOL     OW47567   3.342   5.312   5.249  0.4440 -0.2788  0.6404
15578SOL    HW147568   3.299   5.283   5.329 -1.3630 -0.8827 -0.4884
15578SOL    HW247569   3.286   5.383   5.216  0.8191 -0.4392 -0.3887
15579SOL     OW47570   6.980   1.451   7.757  0.8125  0.0389  0.2308
15579SOL    HW147571   7.065   1.463   7.714  1.6142  1.0135  1.9615
15579SOL    HW247572   6.957   1.537   7.790 -0.7737 -0.2577 -0.0098
15580SOL     OW47573   5.995   6.029   3.237 -0.5385 -0.0901 -0.2007
15580SOL    HW147574   6.090   6.018   3.239 -0.2371  2.1557 -0.1553
15580SOL    HW247575   5.980   6.108   3.185 -2.5348 -1.4227 -1.8607
15581SOL     OW47576   0.027   1.107   6.150 -0.2266  0.1536  0.4890
15581SOL    HW147577  -0.019   1.039   6.200  1.3667 -2.7513 -1.6574
15581SOL    HW247578   0.113   1.114   6.192  0.4456 -0.9593 -0.6048
15582SOL     OW47579   0.149   3.737   7.851  0.0346  0.4990 -0.6726
15582SOL    HW147580   0.077   3.724   7.788 -0.6531  0.9694 -0.0033
15582SOL    HW247581   0.207   3.801   7.808 -0.5218  0.9535 -0.7618
15583SOL     OW47582   1.997   0.129   7.001  0.4088  0.0372  0.1879
15583SOL    HW147583   1.961   0.210   6.964  0.0836 -0.3294 -0.3132
15583SOL    HW247584   1.935   0.102   7.068  0.0581 -0.2593 -0.2468
15584SOL     OW47585   2.006   2.110   2.575 -0.5150 -0.1689 -0.2647
15584SOL    HW147586   1.936   2.045   2.579  1.7828 -2.8274  0.6421
15584SOL    HW247587   2.019   2.136   2.666 -1.2552  1.4904 -0.5976
15585SOL     OW47588   2.376   1.971   2.347  0.2210  0.2136 -0.0306
15585SOL    HW147589   2.344   2.061   2.356  1.0914  0.3592  2.1902
15585SOL    HW247590   2.469   1.977   2.369  1.0778 -0.7845 -2.8880
15586SOL     OW47591   3.707   4.605   1.507 -0.2225 -0.0173  0.0308
15586SOL    HW147592   3.667   4.528   1.465 -0.8878  1.0194 -1.2986
15586SOL    HW247593   3.795   4.576   1.530 -0.4446 -1.1624 -0.4749
15587SOL     OW47594   7.342   6.676   1.169  0.4593  0.1633 -0.4593
15587SOL    HW147595   7.249   6.674   1.195  0.8276  1.7829  1.2268
15587SOL    HW247596   7.383   6.609   1.223  0.7623  1.6455  1.2223
15588SOL     OW47597   0.307   4.997   2.103 -0.0823  0.8210  0.5264
15588SOL    HW147598   0.361   4.917   2.100 -1.2626  0.0174 -1.2588
15588SOL    HW247599   0.369   5.067   2.083  0.8489  0.2970  1.4352
15589SOL     OW47600   3.838   2.251   3.114 -0.1471  0.2880 -0.2684
15589SOL    HW147601   3.846   2.307   3.191 -1.7182 -0.6707  0.6358
15589SOL    HW247602   3.794   2.172   3.145  1.2829 -1.1534 -1.6766
15590SOL     OW47603   7.216   6.957   1.151  0.0458  0.2277  0.2430
15590SOL    HW147604   7.247   7.045   1.132 -0.0746 -0.0153 -1.1903
15590SOL    HW247605   7.296   6.906   1.166  0.1420  0.4362  0.4475
15591SOL     OW47606   0.121   1.663   2.409 -0.0094 -0.2677 -0.0322
15591SOL    HW147607   0.203   1.677   2.457 -0.9347  1.1716  1.2118
15591SOL    HW247608   0.068   1.740   2.429 -1.5486 -0.9919 -1.1154
15592SOL     OW47609   3.267   7.412   1.616  0.1303  0.2071  0.0629
15592SOL    HW147610   3.268   7.340   1.553  0.4187 -1.5767  2.0012
15592SOL    HW247611   3.227   7.375   1.695 -0.4884  2.4340  0.8782
15593SOL     OW47612   3.049   7.071   6.708 -0.4686  0.6606  0.1489
15593SOL    HW147613   2.960   7.086   6.740 -0.0041  1.6821  1.0088
15593SOL    HW247614   3.064   7.140   6.644 -0.1320  0.7669  0.3398
15594SOL     OW47615   5.324   0.032   2.930 -0.4038 -0.7091  0.2672
15594SOL    HW147616   5.251   0.029   2.869  0.4290 -1.0177 -0.7536
15594SOL    HW247617   5.367   0.115   2.911 -0.6039 -0.4305  1.0097
15595SOL     OW47618   2.366   5.015   1.323 -0.2160  0.3207 -0.3956
15595SOL    HW147619   2.411   4.953   1.379 -0.8127  1.2928  1.2169
15595SOL    HW247620   2.430   5.037   1.255  1.0850  0.2693  0.7729
15596SOL     OW47621   7.518   7.356   0.155  0.3197 -0.0806  0.1167
15596SOL    HW147622   7.463   7.417   0.205  0.5731  0.6057 -0.4367
15596SOL    HW247623   7.462   7.327   0.083 -0.1873 -1.3868  0.9880
15597SOL     OW47624   7.303   6.058   4.077 -0.0058  0.0419 -0.0220
15597SOL    HW147625   7.365   6.056   4.004 -0.1127  0.1728 -0.1166
15597SOL    HW247626   7.275   5.967   4.087 -0.2673  0.0791 -0.3837
15598SOL     OW47627   4.295   4.460   3.875  0.0813  0.1268  0.4826
15598SOL    HW147628   4.379   4.482   3.835  0.1083 -0.5913  0.1248
15598SOL    HW247629   4.311   4.462   3.969  0.9046 -1.4338  0.4178
15599SOL     OW47630   4.875   5.164   6.521  0.1032 -0.2021 -0.8631
15599SOL    HW147631   4.927   5.218   6.461  0.7856 -0.8362 -0.8498
15599SOL    HW247632   4.837   5.096   6.466 -0.1530 -0.1463 -0.7552
15600SOL     OW47633   5.737   0.898   5.705 -0.9627  0.0221  0.7427
15600SOL    HW147634   5.759   0.980   5.662 -0.7370 -0.8976 -1.0080
15600SOL    HW247635   5.644   0.885   5.685 -0.6429 -0.8503 -0.3279
15601SOL     OW47636   2.578   5.331   0.728  0.4144  0.9185  0.0871
15601SOL    HW147637   2.608   5.270   0.796 -1.8676 -1.2874 -0.7307
15601SOL    HW247638   2.504   5.376   0.768 -0.3377  0.2958 -0.5601
15602SOL     OW47639   1.363   2.443   4.440  0.4542 -0.2194  0.0020
15602SOL    HW147640   1.448   2.486   4.448  0.6768 -0.6082 -0.2392
15602SOL    HW247641   1.367   2.369   4.500  0.0672  0.0926  0.4220
15603SOL     OW47642   7.902   1.962   7.868  0.2018  0.9213  0.2240
15603SOL    HW147643   7.859   1.897   7.813 -1.5779  0.6035  1.8876
15603SOL    HW247644   7.936   2.027   7.806  1.7438 -1.3436 -1.4622
15604SOL     OW47645   1.717   0.059   6.582 -0.2940  0.0091  0.2772
15604SOL    HW147646   1.648   0.030   6.641  0.3586  0.4066  1.2713
15604SOL    HW247647   1.727   0.152   6.601  0.5840 -0.0645  0.2283
15605SOL     OW47648   5.252   6.020   5.193  0.0652  0.0068  0.0374
15605SOL    HW147649   5.268   6.110   5.222 -0.4879  0.3268 -0.6310
15605SOL    HW247650   5.217   5.976   5.271  0.2817  0.3777  0.3491
15606SOL     OW47651   0.499   3.313   6.063  0.2987  0.0466 -0.5233
15606SOL    HW147652   0.472   3.316   6.154 -0.4491  2.4954 -0.7649
15606SOL    HW247653   0.431   3.261   6.020  0.3322 -0.6109  0.1924
15607SOL     OW47654   3.324   0.095   2.383 -0.3520  0.3000 -0.3281
15607SOL    HW147655   3.387   0.064   2.317 -0.0237 -0.3422  0.2778
15607SOL    HW247656   3.304   0.185   2.356 -2.1549 -0.7279 -2.7432
15608SOL     OW47657   2.125   6.909   6.131  0.5125 -0.8754 -0.2066
15608SOL    HW147658   2.053   6.929   6.190  0.6032  2.9622 -1.1389
15608SOL    HW247659   2.088   6.918   6.043  1.6237 -0.9858 -0.7071
15609SOL     OW47660   0.235   7.469   1.254  0.0697  0.2401  0.6716
15609SOL    HW147661   0.248   7.439   1.164 -0.1383 -0.5885  0.9109
15609SOL    HW247662   0.179   7.403   1.294  1.6383 -0.3860  1.9558
15610SOL     OW47663   6.290   7.100   3.953 -0.1904 -0.0840 -0.3416
15610SOL    HW147664   6.335   7.018   3.936 -1.7134 -0.3669 -3.6830
15610SOL    HW247665   6.359   7.160   3.982  1.4084 -1.7567 -0.5028
15611SOL     OW47666   0.841   6.721   6.526  0.2023 -0.4846 -0.6599
15611SOL    HW147667   0.924   6.681   6.550  0.0512  0.0872  0.9326
15611SOL    HW247668   0.865   6.805   6.486  0.4071 -0.6623 -0.9114
15612SOL     OW47669   5.228   4.751   7.624 -0.1581  0.4928  0.0943
15612SOL    HW147670   5.309   4.720   7.584 -0.4087 -0.5060  0.3461
15612SOL    HW247671   5.183   4.672   7.653 -1.3104  1.0159 -0.1941
15613SOL     OW47672   1.732   5.526   2.312  0.1469 -0.2698  0.0367
15613SOL    HW147673   1.681   5.472   2.252 -0.2561  2.5626 -2.3932
15613SOL    HW247674   1.809   5.552   2.262  1.0438  0.2766  1.6111
15614SOL     OW47675   6.382   5.236   4.474 -0.3280  0.1092  0.0041
15614SOL    HW147676   6.405   5.220   4.566 -1.0567  0.6509  0.2916
15614SOL    HW247677   6.466   5.253   4.431  0.1037 -0.9190  0.3973
15615SOL     OW47678   4.119   1.086   2.166 -0.2584  1.2459  0.2792
15615SOL    HW147679   4.146   1.172   2.133  1.3058  0.4364 -0.6746
15615SOL    HW247680   4.150   1.084   2.256  1.5465  0.9543 -0.3088
15616SOL     OW47681   6.839   1.296   0.050  0.4540  0.0877 -0.2078
15616SOL    HW147682   6.925   1.324   0.080  1.4922 -1.5272 -1.4942
15616SOL    HW247683   6.840   1.311  -0.044 -0.9292  0.6313 -0.1629
15617SOL     OW47684   2.859   7.251   3.939  0.7322  0.1110 -0.3115
15617SOL    HW147685   2.892   7.340   3.926  2.0361 -0.1139  1.1923
15617SOL    HW247686   2.931   7.205   3.982 -0.3517 -1.3599 -0.0066
15618SOL     OW47687   3.517   2.148   6.005  0.1577  0.6280 -0.9988
15618SOL    HW147688   3.559   2.083   6.061 -0.4939  0.2572 -0.9239
15618SOL    HW247689   3.550   2.232   6.036  1.7246  0.3066 -1.6990
15619SOL     OW47690   5.952   2.462   4.824  0.0543  0.5120 -0.2020
15619SOL    HW147691   5.937   2.489   4.915 -0.7947 -1.6439  0.3468
15619SOL    HW247692   6.008   2.385   4.831 -0.1151  0.2570 -1.5002
15620SOL     OW47693   5.443   5.387   3.670  0.0593 -0.7081 -0.0521
15620SOL    HW147694   5.359   5.396   3.625  0.2764 -0.6328 -0.4453
15620SOL    HW247695   5.431   5.435   3.752  0.4323  1.2273 -1.0680
15621SOL     OW47696   2.522   3.813   1.084  0.5343 -0.0772  0.1009
15621SOL    HW147697   2.524   3.740   1.022 -0.3987  0.7064 -0.9021
15621SOL    HW247698   2.511   3.771   1.170  1.3998 -1.1633 -0.2879
15622SOL     OW47699   7.331   4.988   5.878 -0.2975 -0.5764 -0.2939
15622SOL    HW147700   7.401   4.957   5.820  0.7544 -0.7270  1.0192
15622SOL    HW247701   7.326   4.922   5.947 -1.2102 -0.1647  0.0440
15623SOL     OW47702   3.245   0.121   4.250  0.0846 -0.4021 -0.4552
15623SOL    HW147703   3.188   0.050   4.280  0.8602 -0.3082  1.3854
15623SOL    HW247704   3.333   0.083   4.252  0.7715  1.0543  2.4666
15624SOL     OW47705   0.623   7.664   0.996 -0.2173 -0.7089  0.1486
15624SOL    HW147706   0.598   7.574   1.017 -0.2968 -0.7640 -0.1925
15624SOL    HW247707   0.570   7.717   1.056  0.0572 -0.8976  0.5699
15625SOL     OW47708   5.959   6.530   1.142  0.1028  0.4660  0.1519
15625SOL    HW147709   6.051   6.531   1.118  0.2753  0.1855  0.8032
15625SOL    HW247710   5.916   6.485   1.069  0.5175  0.3063  0.0056
15626SOL     OW47711   5.670   6.366   2.827 -1.2049 -0.3267  0.2453
15626SOL    HW147712   5.643   6.432   2.764  0.1332 -1.9667 -2.1924
15626SOL    HW247713   5.747   6.403   2.870 -0.5440 -0.2128 -1.0017
15627SOL     OW47714   3.197   3.683   4.662  0.0274  0.2567 -0.8544
15627SOL    HW147715   3.290   3.658   4.664 -0.2241 -0.7571  1.8696
15627SOL    HW247716   3.152   3.603   4.634 -0.3560 -1.1504  3.1169
15628SOL     OW47717   6.901   2.787   6.540 -0.2747  0.2758 -0.7186
15628SOL    HW147718   6.860   2.873   6.545 -1.4537 -0.1972 -1.6456
15628SOL    HW247719   6.829   2.725   6.554  0.2478 -0.5792 -1.6351
15629SOL     OW47720   2.140   0.286   2.938  0.0791 -0.2018  0.1934
15629SOL    HW147721   2.145   0.364   2.882 -1.1978 -0.7980 -0.8104
15629SOL    HW247722   2.228   0.249   2.935  1.8321  2.9911  3.5371
15630SOL     OW47723   1.190   0.719   3.972  0.2983 -0.2331 -0.0976
15630SOL    HW147724   1.227   0.801   3.943  0.1586 -0.7307 -1.7777
15630SOL    HW247725   1.136   0.742   4.048  0.3017  1.2050 -0.5141
15631SOL     OW47726   1.750   1.348   3.350  0.1928 -0.0416  0.1744
15631SOL    HW147727   1.683   1.288   3.382 -0.2659  0.7720  0.7906
15631SOL    HW247728   1.825   1.292   3.329 -0.6212 -0.9428 -0.3672
15632SOL     OW47729   5.190   0.703   2.151  0.0625  0.8403 -0.3584
15632SOL    HW147730   5.278   0.732   2.128  0.0715  0.8945 -0.2537
15632SOL    HW247731   5.137   0.728   2.076  0.6192 -1.6608 -1.6851
15633SOL     OW47732   2.041   0.407   7.701  0.0492  0.8542  0.2129
15633SOL    HW147733   1.961   0.450   7.667  0.3906  0.9193 -0.5266
15633SOL    HW247734   2.112   0.450   7.654  0.3534 -1.5209 -1.7372
15634SOL     OW47735   0.028   4.725   3.577  0.4532 -0.5233 -0.2155
15634SOL    HW147736   0.107   4.765   3.614 -0.5003  2.1846 -0.8557
15634SOL    HW247737  -0.043   4.757   3.633 -0.2540 -2.9927  0.4204
15635SOL     OW47738   7.791   5.956   5.987 -0.7557 -0.1088  0.7406
15635SOL    HW147739   7.757   5.996   5.907  0.3555 -0.6631 -0.0434
15635SOL    HW247740   7.823   6.029   6.039  0.2329  0.1601 -0.1838
15636SOL     OW47741   5.932   7.702   4.660  0.2008 -0.0529 -0.7903
15636SOL    HW147742   5.991   7.627   4.653 -1.7931 -1.7832 -0.1026
15636SOL    HW247743   5.916   7.711   4.754 -0.7849  0.2239 -0.9772
15637SOL     OW47744   7.837   1.105   5.533  0.4127 -0.4679  0.3476
15637SOL    HW147745   7.846   1.026   5.586 -2.1056 -1.2752 -0.2930
15637SOL    HW247746   7.771   1.157   5.579  0.9105  0.5730 -0.0754
15638SOL     OW47747   4.306   1.930   7.888 -0.3013  0.3756 -0.0212
15638SOL    HW147748   4.220   1.910   7.853 -0.5280  2.3114 -0.6958
15638SOL    HW247749   4.367   1.895   7.823 -0.6310  0.5448 -0.4273
15639SOL     OW47750   4.726   3.453   1.525 -0.3391 -0.2290  0.1799
15639SOL    HW147751   4.684   3.507   1.592  0.2674  0.2693  0.1713
15639SOL    HW247752   4.659   3.389   1.499 -0.9354  0.2688  0.4777
15640SOL     OW47753   4.819   7.922   1.137 -0.9439  0.1431  0.0645
15640SOL    HW147754   4.894   7.872   1.169  0.1704  0.8199 -1.3928
15640SOL    HW247755   4.743   7.881   1.179  0.3091  0.2319  2.5500
15641SOL     OW47756   4.541   3.225   5.584 -0.0770 -0.5114 -0.0900
15641SOL    HW147757   4.624   3.182   5.606  1.9048  3.8012  2.0071
15641SOL    HW247758   4.504   3.249   5.669 -1.3049  1.2868 -1.0858
15642SOL     OW47759   2.500   6.634   0.360 -0.2648  0.3881 -0.5505
15642SOL    HW147760   2.555   6.631   0.438 -0.6938  0.0765 -0.2545
15642SOL    HW247761   2.447   6.713   0.371 -0.4779  0.2277 -0.4206
15643SOL     OW47762   3.290   4.956   1.070 -0.3191  0.4128 -0.0297
15643SOL    HW147763   3.309   4.935   1.161 -1.0191 -1.1466 -0.2161
15643SOL    HW247764   3.353   5.025   1.047  0.3908  0.2551  1.3761
15644SOL     OW47765   6.817   2.031   1.326 -0.3823 -0.5247 -0.1980
15644SOL    HW147766   6.828   1.939   1.351 -0.0483 -0.7336 -1.0863
15644SOL    HW247767   6.837   2.033   1.232 -1.8371  0.1913 -0.5205
15645SOL     OW47768   2.162   5.271   0.545  0.3940 -0.5130 -0.0964
15645SOL    HW147769   2.253   5.242   0.541  0.0423 -1.6357 -0.4014
15645SOL    HW247770   2.158   5.328   0.622  1.8237  1.3822 -1.3256
15646SOL     OW47771   5.336   3.204   0.259 -0.3555 -0.2975  0.1936
15646SOL    HW147772   5.243   3.183   0.255 -0.1079 -1.2200 -1.4488
15646SOL    HW247773   5.349   3.270   0.191  0.7176 -2.5395 -1.9155
15647SOL     OW47774   6.947   3.381   1.384 -0.5449 -0.8485 -0.2904
15647SOL    HW147775   7.027   3.405   1.431  0.2772 -0.6809 -1.7015
15647SOL    HW247776   6.906   3.465   1.363 -0.5312 -0.8872 -0.4768
15648SOL     OW47777   6.468   2.897   3.180  0.3719  0.1126 -0.5475
15648SOL    HW147778   6.494   2.809   3.207 -0.8185  0.0800  0.6325
15648SOL    HW247779   6.417   2.883   3.100  1.1190 -0.1417 -0.9907
15649SOL     OW47780   0.350   1.368   6.816  0.0944  0.3353 -0.0079
15649SOL    HW147781   0.399   1.443   6.784 -0.0186 -0.0142 -1.0478
15649SOL    HW247782   0.369   1.365   6.910  1.0158  0.9707 -0.1601
15650SOL     OW47783   1.629   2.994   7.360  0.5120  0.0664 -0.6769
15650SOL    HW147784   1.669   3.044   7.289 -0.1959  2.0774  0.2360
15650SOL    HW247785   1.669   3.029   7.439  0.9288 -1.7850 -0.0370
15651SOL     OW47786   0.127   1.077   4.104 -0.1500  0.7370  0.4071
15651SOL    HW147787   0.150   1.107   4.016  2.0705 -0.0911  0.6423
15651SOL    HW247788   0.110   0.984   4.094  0.6833  0.5163  0.9254
15652SOL     OW47789   2.774   1.797   2.443  0.0551  0.0410  0.1551
15652SOL    HW147790   2.697   1.823   2.494  0.4202  1.1034  0.1875
15652SOL    HW247791   2.847   1.842   2.485  0.8725 -1.7593  0.7422
15653SOL     OW47792   3.033   0.720   2.582  0.0361  0.5154  0.0329
15653SOL    HW147793   3.107   0.709   2.522 -1.8078  0.0937 -2.3170
15653SOL    HW247794   3.067   0.695   2.668  2.5442  0.1937 -0.9882
15654SOL     OW47795   1.408   2.862   0.889  0.4423  0.3547  1.0252
15654SOL    HW147796   1.346   2.904   0.948  0.6499  1.7191  0.3151
15654SOL    HW247797   1.414   2.921   0.814 -0.4836 -1.7489 -0.8160
15655SOL     OW47798   5.937   5.437   3.944  0.0184  0.0162  0.0524
15655SOL    HW147799   6.030   5.429   3.924 -0.2113 -0.8283 -0.7953
15655SOL    HW247800   5.913   5.351   3.980 -0.1150  0.7312  1.7828
15656SOL     OW47801   2.089   1.974   3.757  0.1668 -0.3416  0.8588
15656SOL    HW147802   2.125   2.057   3.790  2.5624 -1.2593  0.7437
15656SOL    HW247803   2.055   1.930   3.835 -0.5778  0.4616  1.0069
15657SOL     OW47804   3.431   2.622   3.185  0.4760 -0.1587  0.2630
15657SOL    HW147805   3.493   2.665   3.126 -0.5319  1.6206  0.4200
15657SOL    HW247806   3.404   2.543   3.138 -0.9769  1.6355 -2.1848
15658SOL     OW47807   6.532   3.262   6.180  0.1396  0.8020 -0.2160
15658SOL    HW147808   6.476   3.334   6.208 -0.3447  0.3604 -0.0388
15658SOL    HW247809   6.494   3.185   6.221  0.5880  0.4266 -0.4979
15659SOL     OW47810   7.898   6.048   7.924  0.7504  0.0952  0.4422
15659SOL    HW147811   7.911   5.959   7.890  0.2152  0.5276 -0.9354
15659SOL    HW247812   7.921   6.041   8.017  3.4612 -0.8552 -0.1901
15660SOL     OW47813   2.294   0.770   2.005 -0.1574  0.0898 -0.3938
15660SOL    HW147814   2.348   0.846   1.984  0.4103 -0.1137  0.2949
15660SOL    HW247815   2.271   0.782   2.097 -0.3268 -0.4162 -0.3694
15661SOL     OW47816   7.645   4.752   2.791 -0.4888  0.6499  0.0178
15661SOL    HW147817   7.557   4.726   2.818 -0.3896  0.3193  0.0265
15661SOL    HW247818   7.703   4.691   2.837 -0.3012  0.3155 -0.6451
15662SOL     OW47819   6.575   5.257   5.049 -0.6775  0.0088 -0.4230
15662SOL    HW147820   6.633   5.245   4.974 -1.1433 -0.3580 -0.7361
15662SOL    HW247821   6.521   5.177   5.050  1.0434 -1.2488  1.8539
15663SOL     OW47822   2.827   1.936   6.115  0.0474 -0.1370 -0.0011
15663SOL    HW147823   2.811   1.938   6.209 -0.4093  1.0291 -0.0820
15663SOL    HW247824   2.746   1.901   6.078  0.2090 -0.5496  0.0296
15664SOL     OW47825   7.628   5.477   6.445 -0.0268 -0.7995  0.0418
15664SOL    HW147826   7.577   5.422   6.385  2.2173 -2.7056 -0.2328
15664SOL    HW247827   7.618   5.435   6.530  0.6583 -0.9086  0.0741
15665SOL     OW47828   6.004   3.778   1.656  0.2269 -0.0345  0.1941
15665SOL    HW147829   6.062   3.750   1.726  1.2248 -0.5160 -0.7876
15665SOL    HW247830   5.954   3.699   1.633 -0.7740  0.3527  0.9708
15666SOL     OW47831   7.829   1.982   6.604  0.0378  0.6340 -0.1570
15666SOL    HW147832   7.863   1.901   6.642 -0.5123 -1.1622 -3.1191
15666SOL    HW247833   7.906   2.037   6.592  0.8443 -0.5064 -0.4010
15667SOL     OW47834   4.199   1.991   5.290 -0.5922  0.0962 -0.2730
15667SOL    HW147835   4.224   1.998   5.198 -2.1009 -0.2221 -0.7414
15667SOL    HW247836   4.233   1.906   5.318  1.0935  0.7967 -0.1061
15668SOL     OW47837   5.267   5.202   4.461  0.0010  0.5407 -0.0696
15668SOL    HW147838   5.361   5.213   4.475  0.5601 -3.3356  0.5554
15668SOL    HW247839   5.232   5.185   4.549 -1.4115  2.3284 -0.2453
15669SOL     OW47840   5.354   5.485   3.394 -0.9270 -0.0739 -0.3591
15669SOL    HW147841   5.296   5.455   3.324 -0.7422  0.2723 -0.6652
15669SOL    HW247842   5.305   5.553   3.439 -2.4801 -2.6180  2.0891
15670SOL     OW47843   2.196   0.623   1.003 -0.0182 -0.2359 -0.7170
15670SOL    HW147844   2.268   0.585   0.953 -0.0468 -0.0691 -0.8868
15670SOL    HW247845   2.203   0.717   0.987  1.7762  0.1732  1.8995
15671SOL     OW47846   5.107   1.119   5.627  0.3069  0.0012  0.5875
15671SOL    HW147847   5.118   1.024   5.634  0.3286 -0.2177 -1.7626
15671SOL    HW247848   5.091   1.135   5.534 -2.4970  2.0263  1.2715
15672SOL     OW47849   3.772   0.361   1.410 -0.5400  0.6727  0.8234
15672SOL    HW147850   3.713   0.314   1.469  1.2970 -1.6955  0.9206
15672SOL    HW247851   3.726   0.362   1.326 -0.9897 -0.5997  1.0357
15673SOL     OW47852   6.117   6.908   7.233 -0.0485 -0.4060 -0.1733
15673SOL    HW147853   6.189   6.891   7.293 -1.9020 -0.3513  2.2368
15673SOL    HW247854   6.066   6.827   7.233 -1.4734  0.4547  0.4152
15674SOL     OW47855   6.207   5.149   1.884 -0.0838  0.2095 -0.0352
15674SOL    HW147856   6.252   5.065   1.893 -2.4543 -1.1481 -0.0032
15674SOL    HW247857   6.209   5.186   1.972  1.1230  0.3022 -0.0802
15675SOL     OW47858   6.443   6.718   4.616 -0.2606  0.6078  0.1159
15675SOL    HW147859   6.351   6.730   4.640 -0.7973  0.9092 -1.9667
15675SOL    HW247860   6.491   6.771   4.680 -1.4098 -0.3745  1.8982
15676SOL     OW47861   6.340   6.810   6.996 -0.8525  0.1599 -0.2358
15676SOL    HW147862   6.316   6.729   6.951  1.1721 -0.5810 -0.0719
15676SOL    HW247863   6.305   6.799   7.085 -0.9927 -0.3362 -0.3507
15677SOL     OW47864   5.825   4.368   0.096  0.3087 -0.0077  0.5003
15677SOL    HW147865   5.797   4.456   0.071 -0.1560 -0.3989 -0.4331
15677SOL    HW247866   5.789   4.355   0.184 -0.6893  0.2807  0.1509
15678SOL     OW47867   0.976   4.166   7.498 -0.8624 -0.1597  0.0946
15678SOL    HW147868   1.043   4.232   7.514 -1.9059  0.4532  2.2347
15678SOL    HW247869   0.996   4.133   7.410  1.2178  1.1600  0.0034
15679SOL     OW47870   2.764   3.027   3.581  0.1689  0.1273 -0.0591
15679SOL    HW147871   2.774   2.947   3.633  2.5890  0.3424 -0.1243
15679SOL    HW247872   2.709   3.083   3.635  0.3979 -0.6797  1.0541
15680SOL     OW47873   3.986   6.887   7.749  0.2350  0.0973  0.4399
15680SOL    HW147874   3.937   6.866   7.828 -1.3120 -1.0121 -0.7380
15680SOL    HW247875   4.016   6.802   7.717  0.4463  0.4801 -0.3972
15681SOL     OW47876   3.629   2.306   6.921  0.1637 -0.2356  0.0884
15681SOL    HW147877   3.720   2.283   6.904  0.0740 -0.8943  0.4891
15681SOL    HW247878   3.581   2.224   6.914 -0.9043  0.4806 -3.1251
15682SOL     OW47879   7.631   4.562   5.039  0.6773  0.1220 -0.2269
15682SOL    HW147880   7.551   4.610   5.016  0.0182 -0.8066  0.1052
15682SOL    HW247881   7.642   4.499   4.968  1.3025  0.4580 -0.4374
15683SOL     OW47882   0.581   3.202   1.681 -0.1841  0.4200  0.3981
15683SOL    HW147883   0.601   3.293   1.658 -0.6425  0.5162  0.3737
15683SOL    HW247884   0.521   3.173   1.612  1.2990 -0.4592 -0.6019
15684SOL     OW47885   4.357   5.202   1.328  0.2469  0.4278 -0.0350
15684SOL    HW147886   4.399   5.118   1.310 -0.7756 -0.3206  0.8559
15684SOL    HW247887   4.391   5.228   1.414  1.3040  1.4476 -0.7292
15685SOL     OW47888   3.536   2.094   5.017  0.2687  0.1433  0.2209
15685SOL    HW147889   3.456   2.123   5.061  0.5756  0.4393  0.5903
15685SOL    HW247890   3.593   2.066   5.088  0.4009 -0.3033 -0.0597
15686SOL     OW47891   4.324   7.891   5.522  0.9776 -0.0029  0.4057
15686SOL    HW147892   4.270   7.823   5.563 -0.7766  1.8737  1.4194
15686SOL    HW247893   4.342   7.858   5.434 -1.4788 -0.9557  0.1866
15687SOL     OW47894   0.893   2.853   7.126 -0.2592  0.0076 -0.1832
15687SOL    HW147895   0.953   2.906   7.074  1.1220 -0.6602  0.6652
15687SOL    HW247896   0.808   2.895   7.116  0.1045  0.3402 -2.3279
15688SOL     OW47897   4.022   1.503   3.161  0.0283 -0.8333  0.0226
15688SOL    HW147898   4.088   1.570   3.141 -0.7757  0.1320  0.5072
15688SOL    HW247899   4.070   1.436   3.209  1.0977 -1.1907 -1.4863
15689SOL     OW47900   0.517   2.548   7.406  0.1119 -0.2446  0.1007
15689SOL    HW147901   0.572   2.478   7.369 -2.5008 -2.7582  0.6361
15689SOL    HW247902   0.537   2.546   7.500  0.5875  0.2931  0.0167
15690SOL     OW47903   1.187   0.404   5.485  0.0325  0.6728  0.2640
15690SOL    HW147904   1.102   0.407   5.441  0.5332  0.2020 -0.7631
15690SOL    HW247905   1.238   0.474   5.444 -0.0861  1.4695  1.4160
15691SOL     OW47906   5.991   2.917   0.389 -0.7624  0.5506 -0.5511
15691SOL    HW147907   5.955   2.977   0.455 -0.0803  0.6070 -0.2290
15691SOL    HW247908   6.081   2.947   0.376 -0.6534  0.0575 -0.9407
15692SOL     OW47909   2.402   0.296   1.369  0.0294  0.5597 -0.4875
15692SOL    HW147910   2.416   0.276   1.461 -2.1163  0.8741 -0.0407
15692SOL    HW247911   2.481   0.264   1.325  0.0517 -1.8016  1.1378
15693SOL     OW47912   5.318   3.660   4.636  0.0684  0.2532 -0.3401
15693SOL    HW147913   5.259   3.693   4.704  0.5690 -0.2205  0.3512
15693SOL    HW247914   5.391   3.721   4.636  0.1897  0.1118 -0.2578
15694SOL     OW47915   1.421   7.866   5.648  0.2057 -0.5465  0.0100
15694SOL    HW147916   1.347   7.927   5.649  1.0809  0.5741 -0.2830
15694SOL    HW247917   1.404   7.809   5.573 -0.4399 -0.3943  0.0377
15695SOL     OW47918   0.838   4.601   6.743 -0.4304  0.1413  0.1033
15695SOL    HW147919   0.756   4.551   6.748 -0.2331 -0.2519 -0.5879
15695SOL    HW247920   0.833   4.661   6.818 -0.5475 -1.0836  1.1104
15696SOL     OW47921   5.317   0.070   6.856 -0.1547 -0.4490  0.2627
15696SOL    HW147922   5.398   0.041   6.898 -0.0094 -0.9224 -0.3261
15696SOL    HW247923   5.345   0.106   6.772 -0.6739 -2.1261 -0.6833
15697SOL     OW47924   3.812   7.242   1.529 -0.0000  0.0675  0.2121
15697SOL    HW147925   3.772   7.299   1.595  0.3552 -0.7775  1.1985
15697SOL    HW247926   3.739   7.191   1.494  0.0027 -0.5969  1.1184
15698SOL     OW47927   1.112   6.406   2.440 -0.0045  0.0499  0.3241
15698SOL    HW147928   1.065   6.488   2.451 -0.0118  0.1601 -0.4470
15698SOL    HW247929   1.205   6.431   2.437  0.0427 -0.0564  0.8547
15699SOL     OW47930   2.718   6.136   5.724  0.3306  0.1512  0.4819
15699SOL    HW147931   2.713   6.192   5.801  0.1245 -1.4492  1.6960
15699SOL    HW247932   2.636   6.086   5.725 -0.6030  1.4655 -1.9416
15700SOL     OW47933   3.013   0.714   0.213 -0.5139  0.5517  0.0929
15700SOL    HW147934   3.061   0.664   0.280 -1.0405  1.3522  1.0916
15700SOL    HW247935   3.079   0.770   0.173  0.1454 -1.0553 -1.2230
15701SOL     OW47936   7.131   4.405   4.172 -0.2075  0.1951  0.1972
15701SOL    HW147937   7.166   4.462   4.104 -2.5685  1.3370 -0.1466
15701SOL    HW247938   7.054   4.364   4.133 -0.3215 -0.8758  1.4665
15702SOL     OW47939   7.350   1.532   3.908 -0.1805 -0.3474  0.0205
15702SOL    HW147940   7.266   1.556   3.947 -0.2742 -1.1658  0.3431
15702SOL    HW247941   7.398   1.614   3.902 -0.9108  0.0911  0.0561
15703SOL     OW47942   2.064   3.469   5.209  0.1121 -0.0228  0.6657
15703SOL    HW147943   2.086   3.540   5.148  0.2097  0.0746  0.8142
15703SOL    HW247944   1.969   3.467   5.210  0.1024 -0.7745 -0.3639
15704SOL     OW47945   3.415   5.998   4.995 -0.0154 -0.3590 -0.3504
15704SOL    HW147946   3.481   5.941   4.955  0.4483 -0.8300  1.0196
15704SOL    HW247947   3.433   5.994   5.089 -0.6425  1.2397 -0.1277
15705SOL     OW47948   6.315   3.934   0.941 -0.1917 -0.0334  0.1928
15705SOL    HW147949   6.408   3.948   0.920 -0.4952  0.9500 -0.5670
15705SOL    HW247950   6.285   4.020   0.971 -0.7385 -0.4786  0.9513
15706SOL     OW47951   2.612   3.791   4.485 -0.3093 -0.1955  0.3352
15706SOL    HW147952   2.615   3.793   4.580 -0.0209 -1.8341  0.3882
15706SOL    HW247953   2.701   3.766   4.458  0.1696  2.1415 -0.4831
15707SOL     OW47954   2.954   2.542   7.411 -0.4693 -0.2484 -0.4494
15707SOL    HW147955   3.042   2.572   7.386 -0.2772 -0.3275  0.1227
15707SOL    HW247956   2.895   2.604   7.369 -0.1482 -0.3229 -1.0216
15708SOL     OW47957   3.434   0.957   6.433  0.1241 -0.1028 -0.1003
15708SOL    HW147958   3.412   1.035   6.382 -0.5867 -0.4162 -0.2732
15708SOL    HW247959   3.407   0.883   6.378 -1.4321 -0.4397  1.0614
15709SOL     OW47960   1.181   3.143   4.085 -0.1066 -0.4776  0.5245
15709SOL    HW147961   1.208   3.235   4.081 -1.0648 -0.0598  2.2388
15709SOL    HW247962   1.150   3.123   3.997  1.0768  0.5217 -0.1504
15710SOL     OW47963   7.932   6.404   3.709  0.5276  0.1892  0.9234
15710SOL    HW147964   7.922   6.489   3.753  0.7589  0.2776  0.8047
15710SOL    HW247965   8.026   6.393   3.700  0.4799  0.1659  0.4532
15711SOL     OW47966   1.396   4.607   6.534 -0.2253 -0.7183 -0.1822
15711SOL    HW147967   1.492   4.612   6.537 -0.1991 -0.2073 -1.2624
15711SOL    HW247968   1.374   4.636   6.446 -1.4957  1.0745  0.6818
15712SOL     OW47969   1.647   3.925   3.000 -0.3319 -0.4950 -0.4384
15712SOL    HW147970   1.591   3.911   3.076 -1.0842 -1.9884 -1.2192
15712SOL    HW247971   1.731   3.885   3.026 -0.3488 -0.3366 -0.1285
15713SOL     OW47972   7.565   7.864   6.390 -0.3949  0.0608  0.1711
15713SOL    HW147973   7.636   7.901   6.443  0.3362 -1.0263  0.0061
15713SOL    HW247974   7.541   7.933   6.329  1.2791  0.1117 -0.4848
15714SOL     OW47975   2.614   0.583   7.896  0.7477 -0.1253 -0.0384
15714SOL    HW147976   2.626   0.651   7.831  1.6591 -1.3036 -1.1471
15714SOL    HW247977   2.698   0.538   7.901  0.0531 -1.4710  0.3091
15715SOL     OW47978   2.771   5.084   6.074 -0.1220  0.6675  0.3930
15715SOL    HW147979   2.708   5.064   6.005  1.0229  0.2258 -0.5475
15715SOL    HW247980   2.832   5.146   6.034 -0.6750  2.1422  1.6973
15716SOL     OW47981   6.953   7.034   6.360 -0.6950 -0.2485  0.0372
15716SOL    HW147982   6.986   6.948   6.388 -1.9821 -0.4541  1.0424
15716SOL    HW247983   6.866   7.015   6.324 -0.9580  0.6264  0.1928
15717SOL     OW47984   6.897   4.412   3.350 -0.0843  0.2390  0.0446
15717SOL    HW147985   6.977   4.436   3.305  0.1975 -0.4571  0.1643
15717SOL    HW247986   6.829   4.414   3.282  0.1554  0.1761 -0.1975
15718SOL     OW47987   1.778   7.577   6.696 -0.0174  0.0418  0.1653
15718SOL    HW147988   1.849   7.513   6.691 -0.4469 -0.6714  2.2602
15718SOL    HW247989   1.813   7.655   6.652  1.3502 -0.8872 -0.4600
15719SOL     OW47990   2.934   2.468   0.051 -0.6123  0.3858 -0.4414
15719SOL    HW147991   2.944   2.558   0.019 -1.6363  0.4267 -0.6907
15719SOL    HW247992   2.937   2.476   0.147 -0.8807  0.7122 -0.4582
15720SOL     OW47993   4.142   3.241   7.157  0.2159 -0.2966  0.7339
15720SOL    HW147994   4.106   3.219   7.242 -0.7887 -0.2320  0.3387
15720SOL    HW247995   4.071   3.224   7.095  1.5287 -2.2727 -0.3613
15721SOL     OW47996   4.047   5.669   0.865  0.0446 -0.2947 -0.0466
15721SOL    HW147997   4.042   5.758   0.829 -0.7619  0.5365  1.9582
15721SOL    HW247998   4.052   5.612   0.789 -0.8892  1.3962 -1.4323
15722SOL     OW47999   3.556   3.600   3.865 -0.0694 -0.5217 -0.3822
15722SOL    HW148000   3.650   3.579   3.872  0.0779 -0.1561 -1.1576
15722SOL    HW248001   3.519   3.572   3.949  1.1171  1.3012  0.8203
15723SOL     OW48002   5.026   3.747   2.668 -0.1801 -0.1745  0.1266
15723SOL    HW148003   5.024   3.679   2.600 -0.3852 -0.5154  0.4702
15723SOL    HW248004   5.104   3.727   2.720  0.6707  0.8011 -0.7258
15724SOL     OW48005   3.154   6.932   5.250  0.2789  0.1334 -0.0753
15724SOL    HW148006   3.079   6.970   5.204 -0.3465 -0.0333  0.7727
15724SOL    HW248007   3.146   6.965   5.340  0.2855 -1.1806  0.4349
15725SOL     OW48008   3.076   0.262   2.871  1.0225  0.0013 -0.0157
15725SOL    HW148009   3.134   0.188   2.887  0.7198  0.1235  1.8342
15725SOL    HW248010   3.081   0.277   2.776  3.3419 -0.5239 -0.0219
15726SOL     OW48011   7.913   1.257   0.092 -0.2935  0.2700  0.2813
15726SOL    HW148012   7.888   1.344   0.063  0.1732  0.4121  0.3058
15726SOL    HW248013   7.956   1.217   0.016 -3.5214 -1.2215 -0.9380
15727SOL     OW48014   3.375   5.044   5.740  0.6208  0.6419 -0.2179
15727SOL    HW148015   3.432   4.972   5.767 -0.0751  0.1617  0.0149
15727SOL    HW248016   3.287   5.012   5.760  0.3529  1.9616  0.8131
15728SOL     OW48017   6.158   5.384   2.756 -0.1126  0.4336  0.2350
15728SOL    HW148018   6.112   5.466   2.775 -0.7445  0.1039  0.1633
15728SOL    HW248019   6.123   5.322   2.819 -0.9400 -0.2272 -0.8358
15729SOL     OW48020   0.380   6.968   7.639 -0.0206  0.6096  0.0702
15729SOL    HW148021   0.464   6.934   7.608 -1.2244 -0.9241 -1.7917
15729SOL    HW248022   0.388   7.063   7.631  0.7386  0.4098 -2.5398
15730SOL     OW48023   7.396   3.886   6.598 -0.3778  0.1900  0.2858
15730SOL    HW148024   7.353   3.935   6.668 -1.2108  0.1888 -0.2204
15730SOL    HW248025   7.339   3.896   6.522 -0.3941 -1.2701  0.0729
15731SOL     OW48026   3.172   3.977   3.872 -0.9221  0.3024  0.3553
15731SOL    HW148027   3.184   3.939   3.785 -0.4261  1.2465  0.0009
15731SOL    HW248028   3.170   4.071   3.857 -1.8527  0.4450  1.2518
15732SOL     OW48029   0.007   0.055   0.865  0.4958 -0.3213 -0.4679
15732SOL    HW148030   0.023   0.126   0.927 -0.1101 -0.1320 -0.5286
15732SOL    HW248031  -0.079   0.021   0.889  1.5639 -2.3198  0.8178
15733SOL     OW48032   5.703   0.146   2.431 -0.2912  0.2831 -0.0398
15733SOL    HW148033   5.787   0.103   2.443 -0.5495 -0.0588  0.5742
15733SOL    HW248034   5.675   0.169   2.519 -0.7822  0.5177 -0.2510
15734SOL     OW48035   3.833   5.334   0.627 -0.1785 -0.3608  0.5313
15734SOL    HW148036   3.772   5.271   0.588  0.9079 -0.4410 -1.1500
15734SOL    HW248037   3.801   5.419   0.599  0.1061 -0.3614  0.2018
15735SOL     OW48038   6.417   6.156   2.784  0.0643  0.5128 -0.3009
15735SOL    HW148039   6.366   6.119   2.712  1.3200  1.2234 -1.5992
15735SOL    HW248040   6.458   6.080   2.826  1.2138  0.2515 -1.8388
15736SOL     OW48041   4.526   5.396   0.275 -0.4767 -0.6192  1.0478
15736SOL    HW148042   4.540   5.360   0.363 -2.3608 -1.5891  1.0046
15736SOL    HW248043   4.606   5.373   0.228  0.8628  0.4902  2.6423
15737SOL     OW48044   1.708   3.442   0.872 -0.7842  0.4528  0.3964
15737SOL    HW148045   1.733   3.364   0.921 -1.1189  0.4087  0.4965
15737SOL    HW248046   1.636   3.414   0.816 -0.4240  0.5067 -0.1056
15738SOL     OW48047   7.627   7.545   4.571 -0.4839 -0.0357  0.0291
15738SOL    HW148048   7.557   7.601   4.605 -0.1339  0.1544  0.4480
15738SOL    HW248049   7.708   7.586   4.601 -0.2383 -1.3542  1.3070
15739SOL     OW48050   1.436   4.210   2.334  0.2167 -0.3442 -0.1477
15739SOL    HW148051   1.384   4.150   2.387 -1.3271  0.8535 -0.2197
15739SOL    HW248052   1.498   4.154   2.288 -0.9966 -1.8463 -0.0267
15740SOL     OW48053   5.064   0.557   0.753  0.0924  0.1306 -0.0034
15740SOL    HW148054   5.017   0.548   0.670  1.0667  0.9079 -0.6483
15740SOL    HW248055   5.034   0.482   0.805 -2.7329  1.1795  0.0556
15741SOL     OW48056   5.979   3.846   4.010 -0.3888  0.0809 -0.5354
15741SOL    HW148057   6.006   3.905   4.081  0.4506 -1.4015  0.4325
15741SOL    HW248058   5.883   3.855   4.007 -0.1814  2.9154 -1.7704
15742SOL     OW48059   7.672   4.264   0.050  0.1344 -0.9046 -0.5058
15742SOL    HW148060   7.583   4.290   0.072  0.2926 -0.2046 -0.6763
15742SOL    HW248061   7.719   4.263   0.133  0.6187  1.2951 -0.7065
15743SOL     OW48062   3.560   2.063   0.283  0.2189 -0.5239  0.2693
15743SOL    HW148063   3.608   1.995   0.236 -0.2059 -0.6522  0.0098
15743SOL    HW248064   3.590   2.056   0.373  1.3516 -0.0039 -0.0556
15744SOL     OW48065   6.122   6.353   2.163 -0.2426  0.7672 -0.3409
15744SOL    HW148066   6.055   6.404   2.117 -0.0673  1.2831 -0.0428
15744SOL    HW248067   6.082   6.267   2.176 -0.7545  0.9924 -0.3766
15745SOL     OW48068   1.059   3.534   4.709 -0.1511 -0.4836 -0.0649
15745SOL    HW148069   1.131   3.559   4.652  0.6834 -0.0764  1.1205
15745SOL    HW248070   1.076   3.442   4.730 -0.5858 -0.7015 -0.6326
15746SOL     OW48071   3.101   5.807   4.502  0.1418  0.0123  0.1897
15746SOL    HW148072   3.030   5.857   4.545 -1.8662  0.5685 -3.3693
15746SOL    HW248073   3.171   5.871   4.491 -0.9883  1.1144 -1.0352
15747SOL     OW48074   1.189   2.338   1.883 -0.1614  0.2257 -0.0176
15747SOL    HW148075   1.254   2.314   1.949 -1.2401 -1.7066  0.4373
15747SOL    HW248076   1.234   2.327   1.799  0.3319 -0.3721  0.3137
15748SOL     OW48077   4.925   7.157   5.619 -0.6479  0.0750 -0.5434
15748SOL    HW148078   4.940   7.192   5.706  0.1462 -3.0677  0.7201
15748SOL    HW248079   5.009   7.166   5.574 -0.3918 -0.4188 -0.1596
15749SOL     OW48080   5.885   6.027   4.335  0.0942 -0.0346  0.2715
15749SOL    HW148081   5.804   6.038   4.385 -0.0519 -0.8045  0.2041
15749SOL    HW248082   5.889   5.934   4.314  0.3243  0.2140 -0.8680
15750SOL     OW48083   7.364   7.611   2.546  0.4794  0.3858 -0.3744
15750SOL    HW148084   7.359   7.700   2.580  0.6499 -0.1648  1.1318
15750SOL    HW248085   7.332   7.619   2.456  1.1721  2.0819 -0.5076
15751SOL     OW48086   6.473   3.906   7.070 -0.4553 -0.8136 -0.2738
15751SOL    HW148087   6.475   3.978   7.007 -2.1126  0.6565  1.2552
15751SOL    HW248088   6.534   3.933   7.139 -2.2726 -0.0569  1.0867
15752SOL     OW48089   3.333   1.690   4.986  0.0642  0.0189  0.2979
15752SOL    HW148090   3.288   1.772   5.006  0.4253  0.1983  0.3946
15752SOL    HW248091   3.311   1.632   5.060 -2.3330 -0.8868 -1.0260
15753SOL     OW48092   0.494   4.235   3.706  0.0483  0.3323  0.0477
15753SOL    HW148093   0.415   4.282   3.733 -0.5143 -0.5116 -0.0945
15753SOL    HW248094   0.467   4.181   3.632  0.3216 -1.2516  1.0438
15754SOL     OW48095   7.916   0.682   1.489  0.2144  0.7332  0.2538
15754SOL    HW148096   7.989   0.636   1.530  0.8759  2.2456  0.8112
15754SOL    HW248097   7.954   0.723   1.411 -0.4886 -0.0536 -0.5323
15755SOL     OW48098   2.659   1.098   2.083  0.4705 -0.3108 -0.0208
15755SOL    HW148099   2.733   1.142   2.125 -1.0036  1.1725  1.1563
15755SOL    HW248100   2.664   1.007   2.113  2.1827 -0.4246 -0.5406
15756SOL     OW48101   0.017   6.036   7.571  0.1942  0.1558 -0.0611
15756SOL    HW148102  -0.034   5.957   7.553  0.7835 -0.2874  0.1749
15756SOL    HW248103   0.092   6.005   7.621  1.4221  0.5750 -1.5655
15757SOL     OW48104   7.105   6.260   6.910  0.5775 -0.0552 -0.1144
15757SOL    HW148105   7.139   6.171   6.898 -0.4457 -0.3462 -0.9622
15757SOL    HW248106   7.174   6.305   6.958  0.7849 -1.5165  1.0234
15758SOL     OW48107   3.388   1.560   7.259  0.5539  0.0201 -0.3266
15758SOL    HW148108   3.442   1.612   7.200 -0.0714 -0.1558 -1.0637
15758SOL    HW248109   3.299   1.587   7.240  0.4104  1.0183  1.5641
15759SOL     OW48110   3.617   5.131   6.769  0.3028 -0.9217 -0.1000
15759SOL    HW148111   3.653   5.088   6.846  1.1489  0.0227  0.0694
15759SOL    HW248112   3.669   5.211   6.760  1.0676 -1.5689 -2.3434
15760SOL     OW48113   0.288   7.598   0.166  0.0896  0.6655  0.1201
15760SOL    HW148114   0.227   7.542   0.213  0.6689 -0.2896 -0.2367
15760SOL    HW248115   0.352   7.625   0.231  0.8213 -0.5550 -0.0591
15761SOL     OW48116   2.065   0.566   2.779  0.3424 -0.3109  0.8442
15761SOL    HW148117   2.141   0.616   2.810  0.8321  0.5082 -1.4936
15761SOL    HW248118   2.068   0.574   2.684 -1.5746 -1.9352  0.5831
15762SOL     OW48119   1.344   1.145   1.128  0.4012 -0.0728 -0.2995
15762SOL    HW148120   1.258   1.141   1.170 -0.8064  0.2391 -2.5692
15762SOL    HW248121   1.400   1.089   1.182 -0.7236  1.0891  2.2485
15763SOL     OW48122   0.695   6.817   0.520  0.4505  0.2683 -0.5561
15763SOL    HW148123   0.781   6.828   0.478  0.5331 -0.2806 -0.5361
15763SOL    HW248124   0.654   6.903   0.511  0.1341 -0.0387 -2.5353
15764SOL     OW48125   5.077   6.276   3.046 -0.1301 -0.0115 -0.1903
15764SOL    HW148126   5.116   6.232   3.121 -0.8373 -2.0592 -0.9678
15764SOL    HW248127   5.142   6.267   2.977  0.4633  1.7545  0.0918
15765SOL     OW48128   5.262   4.045   7.038  0.1661  0.1427  0.0345
15765SOL    HW148129   5.251   3.973   6.976  2.2808 -0.3086  0.0836
15765SOL    HW248130   5.296   4.117   6.985  0.4813  0.2680  0.4012
15766SOL     OW48131   1.344   3.431   1.116 -0.2318  0.2428 -0.0989
15766SOL    HW148132   1.364   3.359   1.175 -0.4604  0.7917  0.6652
15766SOL    HW248133   1.303   3.390   1.040  1.9079 -0.7079 -0.8258
15767SOL     OW48134   2.684   6.556   3.963 -0.5619  0.2102  0.3576
15767SOL    HW148135   2.632   6.518   3.892 -1.0120 -1.1050  1.3497
15767SOL    HW248136   2.774   6.528   3.944 -0.8504 -1.2060  0.9344
15768SOL     OW48137   7.433   7.018   4.551 -0.1908 -0.0851  0.1782
15768SOL    HW148138   7.465   7.090   4.606 -0.8814  0.9439 -0.7340
15768SOL    HW248139   7.338   7.033   4.545 -0.3790 -1.1901  0.1249
15769SOL     OW48140   1.836   4.372   6.597 -0.3088  0.9750 -1.1243
15769SOL    HW148141   1.781   4.300   6.568  0.2031 -0.1795  0.6387
15769SOL    HW248142   1.840   4.363   6.692 -0.1307  3.2616 -0.8545
15770SOL     OW48143   0.009   1.168   5.826 -0.0249 -0.3870 -0.0283
15770SOL    HW148144   0.066   1.090   5.827  0.4246 -0.0602  1.0589
15770SOL    HW248145  -0.076   1.135   5.856 -0.7437 -1.0762 -2.5587
15771SOL     OW48146   6.238   6.976   3.552 -0.0931  0.2415 -0.1416
15771SOL    HW148147   6.268   6.900   3.602 -1.2776 -1.5521 -1.9956
15771SOL    HW248148   6.222   7.043   3.618  1.0451 -1.0805  1.5727
15772SOL     OW48149   5.599   5.957   0.812  0.3941 -0.5476  0.0739
15772SOL    HW148150   5.590   5.900   0.736 -1.8978 -2.1667  1.4107
15772SOL    HW248151   5.528   6.021   0.803  2.2523  1.5027 -0.8354
15773SOL     OW48152   5.090   1.748   0.027  0.2247  0.3307 -0.1091
15773SOL    HW148153   5.096   1.685  -0.045 -1.0802 -0.1888  0.2090
15773SOL    HW248154   5.100   1.695   0.106 -0.8507  0.5052  0.1596
15774SOL     OW48155   6.690   5.453   0.258 -0.5463  0.3878 -0.1374
15774SOL    HW148156   6.681   5.430   0.166  0.7697 -1.5654  0.1644
15774SOL    HW248157   6.633   5.529   0.269 -1.6713 -0.0543 -2.2692
15775SOL     OW48158   7.461   7.839   2.657  0.5978  0.5288 -0.5670
15775SOL    HW148159   7.492   7.776   2.723  0.4505  1.1374  0.0991
15775SOL    HW248160   7.539   7.862   2.607  0.7682  0.2760 -0.4166
15776SOL     OW48161   4.998   5.148   6.181 -0.8368 -0.4366 -0.1595
15776SOL    HW148162   4.919   5.095   6.177 -1.0872 -0.1282  0.5783
15776SOL    HW248163   5.060   5.097   6.233 -0.2526 -1.0295 -1.3736
15777SOL     OW48164   3.148   7.693   6.645  0.5922 -0.3599 -0.1750
15777SOL    HW148165   3.141   7.599   6.630  0.6957 -0.3550 -0.2503
15777SOL    HW248166   3.199   7.700   6.726  0.0230 -0.3858  0.1949
15778SOL     OW48167   7.778   6.792   5.151  0.2920 -0.2728  0.1976
15778SOL    HW148168   7.698   6.740   5.146  0.0903  0.0219  0.3480
15778SOL    HW248169   7.844   6.731   5.184 -0.2266 -0.1210  1.5739
15779SOL     OW48170   6.288   4.334   4.874  0.2937  0.1296 -0.2501
15779SOL    HW148171   6.299   4.429   4.880  0.1606  0.1732 -0.6413
15779SOL    HW248172   6.224   4.313   4.942 -1.8502  0.7205 -1.9584
15780SOL     OW48173   3.537   3.235   5.974  0.9793  0.2105 -0.5285
15780SOL    HW148174   3.564   3.324   5.952  0.4861  0.5115  0.0492
15780SOL    HW248175   3.444   3.244   5.997  1.1037 -0.3378  0.1968
15781SOL     OW48176   6.788   2.170   0.424 -0.2181  0.1770  0.5878
15781SOL    HW148177   6.859   2.108   0.409  1.2802  1.6119  1.3882
15781SOL    HW248178   6.769   2.163   0.518 -1.3511 -0.3875  0.3348
15782SOL     OW48179   2.002   4.655   3.359 -0.1954  0.0265 -0.1502
15782SOL    HW148180   2.017   4.562   3.373 -0.4990  0.1287  0.9472
15782SOL    HW248181   2.087   4.696   3.374 -0.4171  0.0857  1.0118
15783SOL     OW48182   4.908   5.081   3.357 -0.0410 -0.3212  0.4039
15783SOL    HW148183   4.868   5.145   3.417  0.0768  0.9135 -0.7704
15783SOL    HW248184   4.890   5.117   3.270 -2.8518 -3.5456 -0.5600
15784SOL     OW48185   0.524   4.756   7.411 -0.1066  0.3009  0.2853
15784SOL    HW148186   0.498   4.664   7.414  1.7703 -0.2464  1.5001
15784SOL    HW248187   0.485   4.790   7.330  2.2499 -2.5799 -2.2988
15785SOL     OW48188   5.094   7.774   2.011  0.4304 -0.1376  0.1729
15785SOL    HW148189   5.173   7.786   1.960 -0.6593  0.8836 -1.3653
15785SOL    HW248190   5.076   7.861   2.047  1.3526 -0.8868  2.6760
15786SOL     OW48191   1.415   7.206   6.504  0.4436 -0.8225 -0.2048
15786SOL    HW148192   1.506   7.215   6.533  0.9943 -1.0825 -1.7306
15786SOL    HW248193   1.422   7.196   6.409 -1.1504 -1.5196 -0.2732
15787SOL     OW48194   3.557   6.936   7.038 -0.1971 -0.2685 -0.4950
15787SOL    HW148195   3.594   7.024   7.031 -0.7868  0.0011 -0.2488
15787SOL    HW248196   3.482   6.945   7.097 -0.1834 -0.9623 -0.3582
15788SOL     OW48197   2.701   4.411   6.646  0.3050  0.0117 -0.2640
15788SOL    HW148198   2.749   4.489   6.672  1.0289 -0.6160  0.3188
15788SOL    HW248199   2.759   4.338   6.667 -0.8860 -0.7735  0.4550
15789SOL     OW48200   2.170   7.468   0.189  0.2864  0.5652  0.4295
15789SOL    HW148201   2.126   7.386   0.166 -1.0806  0.8930  1.7638
15789SOL    HW248202   2.100   7.525   0.220  1.5126  1.4981  1.5783
15790SOL     OW48203   2.392   5.968   4.547 -0.1430  0.4618  0.2903
15790SOL    HW148204   2.348   5.904   4.603  1.0740 -2.4671 -1.8384
15790SOL    HW248205   2.336   5.974   4.470 -0.0212  1.6852  0.2843
15791SOL     OW48206   6.856   1.732   5.401  0.3662 -0.0073 -0.0882
15791SOL    HW148207   6.779   1.681   5.378 -0.9953  2.0854 -0.5036
15791SOL    HW248208   6.860   1.801   5.335  0.9183  1.5709  1.4903
15792SOL     OW48209   3.285   6.232   0.711 -0.4760  0.0426 -0.3513
15792SOL    HW148210   3.357   6.264   0.657 -0.8278 -0.0706 -0.9020
15792SOL    HW248211   3.232   6.179   0.651 -0.7087 -0.3403  0.1816
15793SOL     OW48212   6.494   4.487   0.605 -0.0679 -0.0428 -0.5424
15793SOL    HW148213   6.461   4.497   0.695 -0.3072  2.0850 -0.8190
15793SOL    HW248214   6.587   4.507   0.611 -0.2172  0.7706 -0.8651
15794SOL     OW48215   6.066   7.940   6.137 -0.1739 -0.5881  0.1784
15794SOL    HW148216   6.019   7.879   6.080 -0.6520 -0.9369  0.9399
15794SOL    HW248217   6.008   7.954   6.211 -1.2664  2.8472 -1.1481
15795SOL     OW48218   0.824   3.018   6.289 -0.2076 -0.3015 -0.1152
15795SOL    HW148219   0.731   3.032   6.306  0.0099  0.9269  0.2065
15795SOL    HW248220   0.869   3.074   6.353  0.7218  0.4172 -1.3449
15796SOL     OW48221   4.380   0.552   0.405 -0.4318  0.6301 -0.2285
15796SOL    HW148222   4.377   0.641   0.372  0.5102  0.7104 -0.1434
15796SOL    HW248223   4.465   0.546   0.450 -0.4924 -0.2911 -0.2126
15797SOL     OW48224   5.220   6.101   2.068  0.3094 -0.0097 -0.5094
15797SOL    HW148225   5.186   6.128   1.983  1.7550  1.3389 -0.6886
15797SOL    HW248226   5.266   6.178   2.101 -0.1439 -0.5391  1.4652
15798SOL     OW48227   3.882   3.438   4.752 -0.4574 -0.3227  0.0130
15798SOL    HW148228   3.864   3.368   4.689  0.4486 -0.4803 -0.0866
15798SOL    HW248229   3.831   3.513   4.721  1.4395  0.2096 -2.0390
15799SOL     OW48230   6.282   7.346   4.701 -0.0940 -0.3085 -0.4699
15799SOL    HW148231   6.327   7.291   4.637  0.7665 -1.0644  0.7344
15799SOL    HW248232   6.201   7.373   4.657 -0.5837 -2.5899 -1.1141
15800SOL     OW48233   1.567   2.681   2.207 -0.1250  0.2510 -0.0925
15800SOL    HW148234   1.485   2.729   2.199 -0.5563 -0.4834 -0.1221
15800SOL    HW248235   1.551   2.597   2.164  0.1476 -0.5139  1.2524
15801SOL     OW48236   4.415   0.984   3.298 -0.1103  0.7222 -0.4434
15801SOL    HW148237   4.336   0.965   3.248 -0.9766 -0.1936  1.1998
15801SOL    HW248238   4.433   0.904   3.346  2.1937  0.7045 -1.2124
15802SOL     OW48239   1.415   2.691   3.422  0.5713 -0.2392  0.6667
15802SOL    HW148240   1.369   2.758   3.473 -1.0486 -0.8994  0.1403
15802SOL    HW248241   1.407   2.720   3.331 -0.1468 -1.1164  0.4332
15803SOL     OW48242   0.657   6.757   7.071 -0.5292 -0.0202 -0.1300
15803SOL    HW148243   0.706   6.829   7.111  0.7743 -2.0088  2.1500
15803SOL    HW248244   0.666   6.772   6.977  0.0514  2.5057  0.2437
15804SOL     OW48245   1.597   2.209   1.503  0.8821 -0.3543 -0.4170
15804SOL    HW148246   1.502   2.212   1.493  0.8289 -0.1313  0.1060
15804SOL    HW248247   1.618   2.116   1.505  0.5511 -0.4242  0.4878
15805SOL     OW48248   7.776   3.147   2.902  0.1717 -0.0338 -0.0373
15805SOL    HW148249   7.689   3.113   2.924 -0.2871  0.3000 -1.2287
15805SOL    HW248250   7.835   3.106   2.965 -0.9281  0.2354  1.2283
15806SOL     OW48251   2.093   5.114   5.557 -0.3495  0.1805  0.1645
15806SOL    HW148252   2.136   5.114   5.472 -0.0558  2.0209  0.2644
15806SOL    HW248253   2.163   5.132   5.620 -0.7280 -0.0893  0.6766
15807SOL     OW48254   3.763   3.957   5.593 -0.5086 -0.0966 -0.4895
15807SOL    HW148255   3.775   3.995   5.506  4.4441  0.8666  0.3216
15807SOL    HW248256   3.748   4.032   5.650 -0.9353 -0.4267 -0.1650
15808SOL     OW48257   2.517   3.334   3.859 -0.3306 -0.4701 -0.3022
15808SOL    HW148258   2.432   3.379   3.861 -0.4511 -0.6711 -0.8692
15808SOL    HW248259   2.545   3.333   3.951 -0.3839  0.6464 -0.2589
15809SOL     OW48260   3.869   6.883   1.338 -0.1007  0.5445  0.4750
15809SOL    HW148261   3.903   6.802   1.375  0.5386  0.3283 -0.5577
15809SOL    HW248262   3.944   6.923   1.294 -0.9552  0.4612 -1.1571
15810SOL     OW48263   0.121   4.431   2.131  0.1216 -0.3017  0.4346
15810SOL    HW148264   0.208   4.409   2.164 -0.5854 -0.4034  2.3516
15810SOL    HW248265   0.103   4.518   2.166 -1.4068 -1.1711  1.9186
15811SOL     OW48266   6.979   1.394   1.145 -0.4362  0.2200  0.0577
15811SOL    HW148267   7.007   1.345   1.222 -1.9874 -0.2221  0.3795
15811SOL    HW248268   6.928   1.467   1.181 -1.9209 -0.4794 -0.5260
15812SOL     OW48269   5.137   3.730   6.169 -0.1328 -0.1835  0.5787
15812SOL    HW148270   5.146   3.812   6.121 -0.8464 -0.3761  0.1101
15812SOL    HW248271   5.061   3.687   6.130  0.4923 -1.2734  0.5320
15813SOL     OW48272   0.170   4.704   2.201 -0.0296 -0.4902 -0.1084
15813SOL    HW148273   0.121   4.728   2.122 -0.3304 -1.3542 -0.1929
15813SOL    HW248274   0.105   4.710   2.272  0.1134 -0.2019 -0.0024
15814SOL     OW48275   0.813   5.531   5.267 -0.5502 -0.1205  0.1932
15814SOL    HW148276   0.735   5.563   5.221 -0.8673 -2.0339 -0.6837
15814SOL    HW248277   0.886   5.572   5.221 -0.9361 -0.6767 -0.9671
15815SOL     OW48278   0.801   2.774   1.585 -0.1506 -0.3867  0.6750
15815SOL    HW148279   0.735   2.843   1.576 -1.1347 -1.3497  0.3040
15815SOL    HW248280   0.845   2.794   1.667  0.1125  1.1127  0.2075
15816SOL     OW48281   4.553   3.341   7.152 -0.1645 -0.0725 -0.4560
15816SOL    HW148282   4.572   3.300   7.068  0.7408 -1.0199  0.1805
15816SOL    HW248283   4.631   3.395   7.171 -0.1395 -0.2596 -0.0047
15817SOL     OW48284   5.347   4.520   6.968 -0.1666 -0.2190 -0.4029
15817SOL    HW148285   5.438   4.521   6.998  0.3278 -0.0177 -1.8388
15817SOL    HW248286   5.346   4.456   6.897 -0.7975  0.8431 -1.3848
15818SOL     OW48287   3.005   4.826   7.750  0.6760 -0.3327  0.0299
15818SOL    HW148288   3.069   4.846   7.819  0.3958 -1.5722  0.6861
15818SOL    HW248289   2.937   4.775   7.795 -1.1404  1.4781 -0.5084
15819SOL     OW48290   3.278   3.723   0.938  0.0421  0.5529 -0.6015
15819SOL    HW148291   3.237   3.648   0.894 -1.3190  1.5023 -1.0267
15819SOL    HW248292   3.243   3.720   1.028  0.4444  0.3381 -0.4537
15820SOL     OW48293   5.751   3.458   1.428  0.3405  0.1850 -0.7155
15820SOL    HW148294   5.683   3.398   1.397 -0.0628 -0.3385  1.0726
15820SOL    HW248295   5.833   3.408   1.419  0.1797 -0.1101 -0.5442
15821SOL     OW48296   0.008   0.610   5.939 -0.4330  0.1061 -0.3238
15821SOL    HW148297  -0.087   0.600   5.935 -0.2897 -1.5247 -0.4239
15821SOL    HW248298   0.023   0.674   6.009 -1.5749  0.0178  0.0193
15822SOL     OW48299   0.814   3.184   5.935 -0.5287 -0.1045  0.1229
15822SOL    HW148300   0.770   3.104   5.963 -0.7972  1.2680  4.3218
15822SOL    HW248301   0.751   3.227   5.877 -2.4420 -0.7322  1.6359
15823SOL     OW48302   6.052   6.589   0.216 -0.0862  0.2186 -0.1511
15823SOL    HW148303   6.075   6.508   0.262  0.5603  0.5250  0.0775
15823SOL    HW248304   6.054   6.656   0.283 -0.4043  0.4624 -0.3829
15824SOL     OW48305   2.677   2.238   3.068 -0.0600 -0.1063 -0.7835
15824SOL    HW148306   2.677   2.197   3.154 -1.2159 -1.0199 -1.1829
15824SOL    HW248307   2.730   2.180   3.013 -1.6856 -1.1229 -1.3469
15825SOL     OW48308   2.992   1.932   4.039  0.1272  0.4674  0.0819
15825SOL    HW148309   3.075   1.902   4.077  1.2312  1.2882 -1.5716
15825SOL    HW248310   2.973   1.869   3.970  0.6187  1.5618 -1.0827
15826SOL     OW48311   7.654   0.884   2.017 -0.3126  0.1227  1.1594
15826SOL    HW148312   7.620   0.960   1.969  1.9556  0.4374 -0.0838
15826SOL    HW248313   7.721   0.920   2.075  1.1196 -0.9403  0.2143
15827SOL     OW48314   4.796   7.582   7.652  0.8721  0.2683 -0.3942
15827SOL    HW148315   4.791   7.550   7.742 -1.3359  0.5747 -0.3683
15827SOL    HW248316   4.853   7.519   7.608  2.0019  0.1104  1.1734
15828SOL     OW48317   0.088   6.818   5.876 -0.1454 -0.0413  0.5332
15828SOL    HW148318   0.082   6.746   5.940 -1.4234 -0.9531 -0.5577
15828SOL    HW248319   0.004   6.863   5.883 -0.3772 -0.2701 -0.6068
15829SOL     OW48320   2.483   3.342   4.360  0.3509 -0.0301 -0.2198
15829SOL    HW148321   2.494   3.424   4.310  1.5855 -1.2483 -2.1103
15829SOL    HW248322   2.563   3.335   4.412 -0.3100  0.5440  0.9037
15830SOL     OW48323   3.368   0.301   2.850  0.3999  0.2916 -0.0859
15830SOL    HW148324   3.437   0.367   2.854  1.9762 -1.0491 -2.4503
15830SOL    HW248325   3.287   0.351   2.847  1.5548  2.2464 -2.4214
15831SOL     OW48326   7.454   3.667   2.329  0.0845  0.5615  0.2448
15831SOL    HW148327   7.404   3.585   2.334  2.9904 -1.3779  0.1251
15831SOL    HW248328   7.476   3.687   2.420  0.3613  0.5403  0.1839
15832SOL     OW48329   0.620   1.081   6.616 -0.3195  0.2952 -0.3431
15832SOL    HW148330   0.531   1.114   6.605 -0.8256 -1.1340 -0.7287
15832SOL    HW248331   0.611   1.006   6.675  1.0728  1.9475  2.1771
15833SOL     OW48332   3.592   0.079   7.480  0.2111  0.0986  0.6644
15833SOL    HW148333   3.607  -0.016   7.473 -1.4390 -0.2325  1.1377
15833SOL    HW248334   3.595   0.096   7.574 -1.0426  0.2204  0.6929
15834SOL     OW48335   1.796   0.769   2.922  0.0445 -0.2746 -0.5379
15834SOL    HW148336   1.866   0.721   2.965 -1.2656 -1.3838  0.4617
15834SOL    HW248337   1.837   0.849   2.890  1.4345 -0.1922  1.3130
15835SOL     OW48338   5.523   7.497   2.639 -0.0211 -0.1583  0.2010
15835SOL    HW148339   5.444   7.506   2.691  1.1066  2.1209  1.7273
15835SOL    HW248340   5.493   7.494   2.548 -1.9215 -1.8365  0.8294
15836SOL     OW48341   5.147   1.932   2.811  0.2508 -0.4586 -0.6781
15836SOL    HW148342   5.139   1.907   2.903  1.8336  0.1793 -0.3328
15836SOL    HW248343   5.122   2.024   2.808 -4.0279 -1.4325 -1.6910
15837SOL     OW48344   3.525   1.041   6.128 -0.1780 -0.5125  0.0650
15837SOL    HW148345   3.543   1.056   6.035 -0.5954 -1.1705 -0.1342
15837SOL    HW248346   3.515   1.129   6.165 -1.7899 -0.2340 -0.8925
15838SOL     OW48347   7.591   1.356   3.905 -0.4625  0.0625  0.1604
15838SOL    HW148348   7.648   1.293   3.951 -0.0289 -0.1705 -0.6847
15838SOL    HW248349   7.578   1.427   3.968 -0.4344 -0.5684  0.8961
15839SOL     OW48350   4.662   2.395   5.868 -0.2615  0.1227 -0.1132
15839SOL    HW148351   4.756   2.411   5.873 -0.1837 -0.2066 -0.4168
15839SOL    HW248352   4.623   2.481   5.855  0.2344  0.0318 -2.8235
15840SOL     OW48353   3.346   5.820   6.148  0.4943  0.0009 -0.5198
15840SOL    HW148354   3.365   5.904   6.188 -0.4231  0.0327 -0.1357
15840SOL    HW248355   3.432   5.783   6.128  0.8960  1.5539 -1.8382
15841SOL     OW48356   6.919   3.524   4.530  0.3336  0.5576 -0.4999
15841SOL    HW148357   6.897   3.464   4.458  0.2117 -0.2946  0.2391
15841SOL    HW248358   6.904   3.611   4.493  4.1935  0.4447 -2.9697
15842SOL     OW48359   1.914   3.645   5.813  0.2220 -0.0082 -0.2842
15842SOL    HW148360   1.889   3.608   5.728 -1.8131  0.1477  0.1853
15842SOL    HW248361   1.939   3.570   5.866 -0.2249 -0.3070 -0.4920
15843SOL     OW48362   7.190   0.541   6.616  0.3455  0.1462  0.0804
15843SOL    HW148363   7.155   0.588   6.540  2.2490 -1.1532 -1.7141
15843SOL    HW248364   7.267   0.592   6.641  1.0429 -0.6796 -0.3568
15844SOL     OW48365   4.904   1.471   3.280  0.2689 -0.3622  0.5270
15844SOL    HW148366   4.964   1.410   3.237  0.6273 -1.1168  2.0245
15844SOL    HW248367   4.817   1.445   3.251  0.6088  0.8557 -1.8255
15845SOL     OW48368   1.299   1.863   0.391 -0.4054  0.4780 -0.2814
15845SOL    HW148369   1.232   1.864   0.460 -1.3161  0.1671 -1.1442
15845SOL    HW248370   1.271   1.794   0.331  0.7706  0.2494 -0.5930
15846SOL     OW48371   2.109   2.561   6.835  0.3138 -0.2191  0.0370
15846SOL    HW148372   2.071   2.562   6.747 -0.8588  1.3074  0.5228
15846SOL    HW248373   2.040   2.524   6.890  0.4571  0.2606  0.5420
15847SOL     OW48374   5.041   7.404   4.604  0.3966  0.5038 -0.4378
15847SOL    HW148375   5.106   7.470   4.581 -1.7715  3.1495  0.5455
15847SOL    HW248376   4.963   7.427   4.553 -0.5419 -1.1156  0.1836
15848SOL     OW48377   2.026   3.211   2.034  0.4445 -0.0150 -0.4740
15848SOL    HW148378   2.102   3.255   2.071  1.9821  1.7471 -5.0277
15848SOL    HW248379   2.054   3.120   2.023  0.8013 -0.0267  0.4345
15849SOL     OW48380   6.996   2.626   3.262  0.0213  0.2726  0.1854
15849SOL    HW148381   7.062   2.561   3.237  0.0163 -0.0673  1.0021
15849SOL    HW248382   6.991   2.686   3.188  1.5728  0.5517  0.2775
15850SOL     OW48383   0.231   5.190   7.885 -0.0911 -0.4156 -0.0713
15850SOL    HW148384   0.234   5.248   7.961  0.6946 -0.3984 -0.1085
15850SOL    HW248385   0.138   5.185   7.863 -0.3648 -0.6419  1.0586
15851SOL     OW48386   3.308   4.655   4.692  0.4377 -0.0101 -0.3185
15851SOL    HW148387   3.335   4.722   4.755  3.0881 -1.3671  0.1158
15851SOL    HW248388   3.294   4.704   4.611 -3.0893  1.7846  1.1709
15852SOL     OW48389   1.245   0.433   1.704  0.0631  0.3268 -0.3251
15852SOL    HW148390   1.242   0.482   1.621  0.2323 -1.0994 -1.2047
15852SOL    HW248391   1.316   0.370   1.691  0.0552  0.0471  0.9023
15853SOL     OW48392   7.219   4.709   6.608  0.0759  0.7705  0.1538
15853SOL    HW148393   7.165   4.735   6.534 -0.1653 -2.5654 -1.0207
15853SOL    HW248394   7.307   4.704   6.573 -0.0460 -0.8714  0.0052
15854SOL     OW48395   1.183   4.192   3.096 -0.1462 -0.0360 -0.4644
15854SOL    HW148396   1.132   4.272   3.085 -1.1884 -0.6761 -0.4482
15854SOL    HW248397   1.258   4.203   3.038  1.3688  2.2194  1.7431
15855SOL     OW48398   4.672   3.345   1.995 -0.2071 -0.0141  0.5404
15855SOL    HW148399   4.763   3.373   1.992 -0.0175 -0.5487  1.0440
15855SOL    HW248400   4.653   3.317   1.906  1.2321 -3.2377  1.1046
15856SOL     OW48401   1.658   5.183   4.909  0.4708  0.0163  0.1437
15856SOL    HW148402   1.629   5.113   4.850 -0.2814  0.5665 -0.1572
15856SOL    HW248403   1.581   5.240   4.917  0.7409  0.2418  1.2210
15857SOL     OW48404   7.170   1.217   7.184 -0.1632 -0.1605 -0.1398
15857SOL    HW148405   7.212   1.165   7.116 -0.8379 -1.3322  0.3178
15857SOL    HW248406   7.213   1.190   7.265 -0.4375  0.0796  0.0871
15858SOL     OW48407   0.557   4.917   2.579  0.0154 -0.1013  0.4418
15858SOL    HW148408   0.618   4.844   2.578  0.1247 -0.0340 -1.6316
15858SOL    HW248409   0.482   4.886   2.528 -0.3639  0.8797  0.3881
15859SOL     OW48410   7.122   1.488   7.345 -0.2354  0.6610 -0.0003
15859SOL    HW148411   7.091   1.528   7.263 -2.5799 -0.3613  0.2882
15859SOL    HW248412   7.169   1.410   7.316 -0.4392  0.6800 -0.3989
15860SOL     OW48413   7.458   6.574   1.831 -0.0913 -0.3491 -0.6331
15860SOL    HW148414   7.397   6.616   1.770 -0.3476  0.3121  0.0631
15860SOL    HW248415   7.409   6.565   1.912  0.4348 -0.6787 -0.3428
15861SOL     OW48416   7.108   2.893   0.678  0.8195 -0.1268 -0.1766
15861SOL    HW148417   7.167   2.826   0.643  1.2969 -0.6562  1.5336
15861SOL    HW248418   7.157   2.974   0.673  0.7723 -0.1374 -0.9531
15862SOL     OW48419   7.614   6.382   2.666  0.2927  1.2693  0.2837
15862SOL    HW148420   7.699   6.425   2.676  0.3951  0.8181  1.5695
15862SOL    HW248421   7.553   6.454   2.650  0.5505  1.8853  1.8148
15863SOL     OW48422   6.192   1.643   1.111  0.5160 -0.0353 -0.0602
15863SOL    HW148423   6.277   1.645   1.067  0.6323 -0.3293  0.1448
15863SOL    HW248424   6.198   1.568   1.171  0.3199  0.2978  0.3779
15864SOL     OW48425   6.978   4.202   2.503  0.0800 -0.5289  0.0887
15864SOL    HW148426   6.984   4.209   2.598  1.6549 -0.6289  0.0170
15864SOL    HW248427   7.068   4.185   2.474  0.0509  1.6682 -1.5889
15865SOL     OW48428   2.435   2.051   1.121  0.6483  0.6138 -0.4552
15865SOL    HW148429   2.498   1.995   1.166  0.8257  0.6135 -0.6983
15865SOL    HW248430   2.487   2.126   1.089  0.7408  0.1064 -1.5592
15866SOL     OW48431   6.127   3.135   2.130 -0.9529  0.1516 -0.4553
15866SOL    HW148432   6.139   3.056   2.183 -0.4361  0.2422 -0.4325
15866SOL    HW248433   6.215   3.171   2.120 -1.1753  0.6928 -0.5159
15867SOL     OW48434   4.918   6.415   6.857  0.7085 -0.2875  0.4307
15867SOL    HW148435   4.921   6.328   6.818 -0.9576 -0.6361  1.0303
15867SOL    HW248436   4.852   6.409   6.926 -0.0094  1.6509 -0.0270
15868SOL     OW48437   6.610   7.430   3.593  0.5151  0.1613 -0.3030
15868SOL    HW148438   6.570   7.494   3.652  1.2065  2.3490 -2.0639
15868SOL    HW248439   6.697   7.416   3.628  0.1262 -0.3560  0.4736
15869SOL     OW48440   7.902   0.699   2.197  0.0898 -0.3128  0.0337
15869SOL    HW148441   7.961   0.661   2.132  0.5768  1.7290 -0.7942
15869SOL    HW248442   7.941   0.678   2.281  1.5601  0.2909 -0.4737
15870SOL     OW48443   4.131   2.696   7.349 -0.1922 -0.2353 -0.1954
15870SOL    HW148444   4.172   2.610   7.340 -0.5324 -0.6194  1.5786
15870SOL    HW248445   4.185   2.743   7.412  0.2314  1.0455 -1.4587
15871SOL     OW48446   4.304   0.516   1.954 -0.6858 -0.4249 -0.5939
15871SOL    HW148447   4.209   0.520   1.957 -0.6749  2.6851 -0.4087
15871SOL    HW248448   4.331   0.514   2.046 -0.5778 -0.6555 -0.6312
15872SOL     OW48449   7.181   3.229   4.562 -0.3914 -0.0563  0.1194
15872SOL    HW148450   7.089   3.236   4.538 -0.6686 -1.9337  0.4761
15872SOL    HW248451   7.180   3.208   4.656  0.4512  0.9405  0.3708
15873SOL     OW48452   5.437   6.816   4.696  0.0698 -0.1708  0.0682
15873SOL    HW148453   5.406   6.899   4.660  1.3311  0.0149 -0.6555
15873SOL    HW248454   5.532   6.826   4.701  0.1291 -1.0935  1.2232
15874SOL     OW48455   4.300   5.679   6.189 -0.0347  0.5026  0.3004
15874SOL    HW148456   4.344   5.763   6.173  0.7824  0.0821  0.2839
15874SOL    HW248457   4.265   5.653   6.104  0.0849  0.6168  0.2163
15875SOL     OW48458   4.244   7.878   4.429  0.4435 -0.3662 -0.4066
15875SOL    HW148459   4.296   7.957   4.421  1.4401 -1.0234 -0.5411
15875SOL    HW248460   4.306   7.806   4.419 -0.1084 -1.1946  1.5270
15876SOL     OW48461   1.285   6.770   6.398  0.1700 -0.2325 -0.2690
15876SOL    HW148462   1.225   6.791   6.326 -0.1567 -0.0177  0.0633
15876SOL    HW248463   1.340   6.848   6.407  0.6211 -0.4947 -0.6869
15877SOL     OW48464   3.817   5.148   5.367 -0.1186  0.1203  0.6533
15877SOL    HW148465   3.906   5.117   5.383 -0.4019 -1.2373 -0.2392
15877SOL    HW248466   3.818   5.177   5.275 -0.4728  0.5500  0.7803
15878SOL     OW48467   3.784   3.241   4.548  0.3225 -0.1099  0.0196
15878SOL    HW148468   3.783   3.203   4.460 -0.2070  0.4991 -0.2451
15878SOL    HW248469   3.825   3.174   4.603  2.6263  0.3037 -1.0583
15879SOL     OW48470   5.592   0.583   5.959 -0.8778  0.0384  0.2706
15879SOL    HW148471   5.659   0.550   6.019  1.8526  3.3912 -0.5568
15879SOL    HW248472   5.549   0.653   6.007 -1.3625  0.1888 -0.3626
15880SOL     OW48473   1.339   5.520   0.714 -0.7939  0.1158  0.1016
15880SOL    HW148474   1.332   5.615   0.721  3.2142  0.6767 -1.2479
15880SOL    HW248475   1.352   5.490   0.804  0.7126  1.2232  0.2867
15881SOL     OW48476   4.292   6.369   6.729 -0.6082  0.0786 -0.0905
15881SOL    HW148477   4.366   6.429   6.734 -0.7373  0.2993 -0.7048
15881SOL    HW248478   4.240   6.401   6.655 -0.0890 -1.4490 -1.1717
15882SOL     OW48479   3.277   4.202   0.599  0.2828 -0.6559 -0.0688
15882SOL    HW148480   3.328   4.279   0.573  0.6741  0.0718  2.5463
15882SOL    HW248481   3.212   4.236   0.660 -0.0153 -2.3195  0.5983
15883SOL     OW48482   3.970   4.124   4.248  0.4062  0.0035  0.0734
15883SOL    HW148483   3.889   4.088   4.212  0.5644 -0.1258 -0.1537
15883SOL    HW248484   4.013   4.166   4.173 -0.2108  1.4765  0.4958
15884SOL     OW48485   4.449   0.996   5.750 -0.1552  0.0067  0.3447
15884SOL    HW148486   4.498   1.063   5.702  0.9386 -0.9636  0.0715
15884SOL    HW248487   4.480   1.005   5.840 -2.0827  1.7135  0.9028
15885SOL     OW48488   3.661   7.659   3.984 -0.5290  0.1459 -0.1216
15885SOL    HW148489   3.725   7.612   3.930 -0.4035  0.2186 -0.0372
15885SOL    HW248490   3.590   7.596   3.996  0.0645 -0.3692  0.7914
15886SOL     OW48491   2.163   3.376   5.451 -0.2197  0.3625  0.5016
15886SOL    HW148492   2.255   3.402   5.448 -0.3049  0.7159  0.8148
15886SOL    HW248493   2.126   3.407   5.368 -0.0945  0.3719  0.4497
15887SOL     OW48494   5.123   3.600   4.852  0.0208  0.1510  0.4335
15887SOL    HW148495   5.116   3.523   4.797 -2.2818 -0.3520  1.3382
15887SOL    HW248496   5.049   3.655   4.827  0.0928  0.8409  1.6392
15888SOL     OW48497   5.630   6.982   6.816 -0.2088  0.0743  0.0273
15888SOL    HW148498   5.626   7.002   6.722 -0.6738  0.0696  0.0409
15888SOL    HW248499   5.696   7.042   6.850 -1.1018  1.1428 -0.0556
15889SOL     OW48500   4.901   2.795   0.045 -0.1684 -0.2055 -0.9414
15889SOL    HW148501   4.953   2.753   0.115 -2.5072 -1.1382  0.3552
15889SOL    HW248502   4.966   2.838  -0.010  1.9401 -0.9253  0.8156
15890SOL     OW48503   6.775   3.771   2.601  0.3805 -0.2544 -0.0745
15890SOL    HW148504   6.838   3.764   2.529 -0.7102 -0.0188 -1.0961
15890SOL    HW248505   6.742   3.682   2.613 -0.5615 -0.0491 -0.9547
15891SOL     OW48506   7.749   2.858   7.052 -0.4339  0.9354  0.3001
15891SOL    HW148507   7.672   2.841   7.107 -1.4827  1.3558 -0.9920
15891SOL    HW248508   7.713   2.894   6.971  0.7350 -2.5263 -1.9622
15892SOL     OW48509   4.584   5.683   7.507  0.4775  0.4618  0.4700
15892SOL    HW148510   4.621   5.605   7.466 -0.3167  0.3486 -0.0678
15892SOL    HW248511   4.655   5.720   7.558  1.3345  0.2885 -0.5663
15893SOL     OW48512   1.961   2.622   5.222 -0.1053  0.5403 -0.4827
15893SOL    HW148513   1.875   2.613   5.182  0.3373 -1.5660 -1.0809
15893SOL    HW248514   2.019   2.648   5.151 -0.0341  0.8504 -0.3157
15894SOL     OW48515   6.168   1.907   0.634  0.6896 -0.7744 -0.2125
15894SOL    HW148516   6.104   1.977   0.628  0.6399 -0.8076 -0.0749
15894SOL    HW248517   6.249   1.945   0.601  0.9114 -0.3480  0.7961
15895SOL     OW48518   6.830   6.961   0.497  0.1991  0.0383  0.3758
15895SOL    HW148519   6.840   6.963   0.402  0.6752 -1.0938  0.3924
15895SOL    HW248520   6.747   7.006   0.513  0.8153  1.5429 -0.4526
15896SOL     OW48521   7.654   6.776   4.777 -0.5605 -0.4444 -0.1910
15896SOL    HW148522   7.592   6.714   4.738 -0.9290  0.3358 -0.8888
15896SOL    HW248523   7.690   6.823   4.702  0.0479 -0.1290  0.3007
15897SOL     OW48524   1.231   3.412   5.942 -0.7236  0.2518  0.0258
15897SOL    HW148525   1.302   3.418   6.005 -0.9428 -2.8417  0.7403
15897SOL    HW248526   1.271   3.437   5.858  1.1731 -1.1943  0.4425
15898SOL     OW48527   6.750   1.550   5.227 -0.1925 -0.0414  0.0546
15898SOL    HW148528   6.698   1.610   5.173 -0.1292  0.8987  1.0021
15898SOL    HW248529   6.706   1.466   5.219 -0.1933  0.0756 -1.4346
15899SOL     OW48530   3.317   0.061   3.455 -0.0355 -0.3563  0.1056
15899SOL    HW148531   3.370   0.043   3.533 -0.2948  2.6394  1.1072
15899SOL    HW248532   3.361   0.016   3.384  0.6388 -2.5825  1.8344
15900SOL     OW48533   7.454   2.017   1.656 -0.0306 -0.5971  0.0715
15900SOL    HW148534   7.518   2.030   1.726 -0.8970  1.0065  0.6132
15900SOL    HW248535   7.429   1.925   1.664  1.4723 -1.0106  0.4554
15901SOL     OW48536   4.336   2.966   4.718 -0.3377  0.0804  0.5979
15901SOL    HW148537   4.431   2.957   4.708 -0.2163  1.0021  0.8239
15901SOL    HW248538   4.313   3.035   4.656 -1.2028 -1.5936 -1.0384
15902SOL     OW48539   2.597   1.841   6.309  0.1052  0.3209  0.0520
15902SOL    HW148540   2.610   1.936   6.314  0.5960  0.3395 -1.2844
15902SOL    HW248541   2.646   1.806   6.384  1.3354  1.0004 -0.4187
15903SOL     OW48542   5.764   2.085   1.608 -0.1695 -0.0010  0.4564
15903SOL    HW148543   5.731   2.095   1.519 -0.9743  1.5008  0.8881
15903SOL    HW248544   5.852   2.048   1.598  0.9772  2.9015 -1.1611
15904SOL     OW48545   7.902   0.324   3.667 -0.4773  0.0572 -0.2741
15904SOL    HW148546   7.956   0.281   3.733 -1.1739 -0.1859  0.1354
15904SOL    HW248547   7.957   0.396   3.634 -0.0517  0.0488  0.4124
15905SOL     OW48548   1.680   4.314   4.675 -0.1716 -0.3103  0.1348
15905SOL    HW148549   1.762   4.286   4.633 -0.6037  0.1588 -1.0694
15905SOL    HW248550   1.705   4.388   4.729  0.0468  0.5301 -1.0797
15906SOL     OW48551   5.546   3.042   5.256  0.7055 -0.6356 -0.5785
15906SOL    HW148552   5.480   3.084   5.312 -0.2408  0.4050 -2.3915
15906SOL    HW248553   5.628   3.086   5.280 -0.2552  2.5547 -2.4794
15907SOL     OW48554   5.051   0.093   0.390  0.4064 -0.4843  0.4314
15907SOL    HW148555   5.106   0.036   0.335 -0.6535 -2.3151  1.1829
15907SOL    HW248556   4.968   0.099   0.342  0.4273  0.2690  0.4784
15908SOL     OW48557   4.600   7.003   7.392 -0.2941 -0.0044  0.0136
15908SOL    HW148558   4.658   7.018   7.318 -1.0260  0.9194 -0.3981
15908SOL    HW248559   4.643   6.934   7.443  0.7630  0.1190 -0.6794
15909SOL     OW48560   0.036   4.175   4.010  0.0831 -0.5366 -0.1701
15909SOL    HW148561   0.055   4.231   4.086 -1.1795 -0.1565 -0.1062
15909SOL    HW248562  -0.059   4.180   4.000  0.3071  0.3419 -2.4871
15910SOL     OW48563   0.480   3.204   4.244  0.0810  0.1927  0.3510
15910SOL    HW148564   0.404   3.171   4.292 -1.2880  0.6425 -1.3863
15910SOL    HW248565   0.490   3.294   4.274 -1.1031  0.6471 -0.5002
15911SOL     OW48566   4.397   6.728   3.591 -0.4940  0.3947  0.7382
15911SOL    HW148567   4.326   6.786   3.563 -0.3680  0.3460  0.3002
15911SOL    HW248568   4.379   6.645   3.547 -1.2322 -0.2342  2.1540
15912SOL     OW48569   7.709   6.249   0.039  0.5649  0.1172  0.8315
15912SOL    HW148570   7.770   6.187  -0.000 -0.4426  0.2917 -1.1595
15912SOL    HW248571   7.640   6.195   0.078  0.4772 -0.0444  0.4575
15913SOL     OW48572   6.098   1.244   5.577 -0.4226 -0.6037 -0.3486
15913SOL    HW148573   6.130   1.326   5.614 -0.9305 -0.9092  0.8202
15913SOL    HW248574   6.071   1.267   5.488  0.4821  0.2414 -0.4237
15914SOL     OW48575   1.408   4.570   4.547 -0.2969  0.4803  0.2628
15914SOL    HW148576   1.488   4.518   4.550  1.0667  2.4711  2.9616
15914SOL    HW248577   1.421   4.638   4.613 -3.3710  2.1910 -0.6813
15915SOL     OW48578   2.762   2.665   6.002  0.3460  0.1257 -0.0387
15915SOL    HW148579   2.784   2.666   6.095 -0.6228 -0.3818  0.2058
15915SOL    HW248580   2.734   2.575   5.984  2.5638 -0.3842 -1.3319
15916SOL     OW48581   1.292   6.456   1.007  0.1330 -0.7374 -0.4338
15916SOL    HW148582   1.283   6.479   0.914  0.8423  1.0817 -0.0913
15916SOL    HW248583   1.289   6.539   1.053  0.5268 -1.5468  1.1272
15917SOL     OW48584   3.001   7.732   6.921 -0.1916 -0.4188  0.1536
15917SOL    HW148585   2.983   7.639   6.937  0.3627 -0.9266 -1.8464
15917SOL    HW248586   3.096   7.739   6.922 -0.2400  0.4711  1.8158
15918SOL     OW48587   6.187   4.669   3.191  0.0023  0.0678 -0.6739
15918SOL    HW148588   6.113   4.609   3.189  0.0598 -0.0205 -0.3090
15918SOL    HW248589   6.205   4.681   3.285  2.1098 -1.9879 -0.7388
15919SOL     OW48590   6.852   6.124   0.170  0.5909  0.0347 -0.3892
15919SOL    HW148591   6.901   6.082   0.100  2.1246  1.8383 -0.4730
15919SOL    HW248592   6.855   6.217   0.150 -2.8363  0.3047 -0.3072
15920SOL     OW48593   3.624   1.555   4.699  0.1889  0.0524  0.1621
15920SOL    HW148594   3.680   1.631   4.712  1.6401 -1.1287  1.1353
15920SOL    HW248595   3.623   1.542   4.605 -0.5088  1.5568 -0.0707
15921SOL     OW48596   0.574   1.797   3.311  0.1709 -0.7182  0.3621
15921SOL    HW148597   0.491   1.798   3.359  0.4264 -1.5904  0.8610
15921SOL    HW248598   0.633   1.745   3.366  0.5952 -1.4157 -0.7070
15922SOL     OW48599   4.380   0.151   5.129 -0.2734 -0.5924 -0.1236
15922SOL    HW148600   4.345   0.062   5.125  0.2285 -0.7966  0.0444
15922SOL    HW248601   4.469   0.144   5.096  0.3971 -0.4768  1.5800
15923SOL     OW48602   3.471   3.208   5.718  0.3345  0.2813  0.3741
15923SOL    HW148603   3.515   3.135   5.675 -0.3860 -0.0231  0.1389
15923SOL    HW248604   3.490   3.196   5.811  1.1508  0.4355  0.2321
15924SOL     OW48605   6.273   4.764   3.905  0.2716 -0.3157  0.3032
15924SOL    HW148606   6.336   4.823   3.864 -0.4850  0.8940  0.8225
15924SOL    HW248607   6.200   4.759   3.844  0.7394 -1.5455 -0.1987
15925SOL     OW48608   0.937   3.189   1.046  0.0250  0.1387 -0.3463
15925SOL    HW148609   0.876   3.133   1.094  0.5397 -0.3537 -0.2449
15925SOL    HW248610   1.019   3.183   1.097  1.2311 -2.0811 -2.3441
15926SOL     OW48611   4.930   0.162   2.972 -0.2675 -0.5370  0.0174
15926SOL    HW148612   4.931   0.250   3.011 -0.4360 -1.1363  1.4325
15926SOL    HW248613   4.959   0.176   2.882 -1.1460  1.0889 -0.0583
15927SOL     OW48614   2.794   6.344   2.027 -0.1264  0.0410  0.4387
15927SOL    HW148615   2.715   6.390   2.053 -0.8966 -0.2133 -1.2897
15927SOL    HW248616   2.778   6.253   2.052 -1.0058 -0.2659 -1.0886
15928SOL     OW48617   7.585   7.915   2.995  0.2632 -0.1084 -0.1198
15928SOL    HW148618   7.507   7.956   2.957  1.0629 -0.5295 -2.3566
15928SOL    HW248619   7.608   7.972   3.068  0.1123  2.3223 -1.8346
15929SOL     OW48620   6.891   1.578   4.149 -0.3180 -0.2327 -0.1072
15929SOL    HW148621   6.958   1.528   4.197  0.4766  1.6896  0.9650
15929SOL    HW248622   6.941   1.626   4.083 -0.8761 -0.0277 -0.3805
15930SOL     OW48623   5.396   2.939   0.265  0.7684  0.3049  0.4329
15930SOL    HW148624   5.446   2.928   0.346 -0.0302  0.4138  0.9498
15930SOL    HW248625   5.376   3.033   0.262  0.8375  0.3095  0.0818
15931SOL     OW48626   2.024   6.438   4.569 -0.0244  0.2209  0.1867
15931SOL    HW148627   2.076   6.463   4.493  0.7441  3.0955  1.5405
15931SOL    HW248628   2.059   6.353   4.595  0.4622 -0.2970 -1.9285
15932SOL     OW48629   1.912   1.177   6.224 -0.5142  0.1646  0.0056
15932SOL    HW148630   1.951   1.090   6.229 -1.4647 -0.3094 -0.5505
15932SOL    HW248631   1.948   1.214   6.143  0.6232  0.6691  0.7274
15933SOL     OW48632   4.846   5.471   6.902  0.2960 -0.6517  0.0234
15933SOL    HW148633   4.811   5.394   6.856 -0.7213 -0.9022  1.1832
15933SOL    HW248634   4.798   5.545   6.865 -1.8899 -1.0286  1.8847
15934SOL     OW48635   5.801   4.275   7.172  0.5851 -0.1615 -0.2639
15934SOL    HW148636   5.874   4.316   7.126  1.0132  1.5193  1.7441
15934SOL    HW248637   5.832   4.187   7.193  2.5445  0.8772  1.5011
15935SOL     OW48638   7.432   6.119   0.075 -0.0907 -0.6211 -0.7028
15935SOL    HW148639   7.430   6.122  -0.021  0.9561 -1.9276 -0.7889
15935SOL    HW248640   7.392   6.035   0.097 -0.3172 -0.3325  0.0262
15936SOL     OW48641   6.058   5.081   0.818  0.1243  0.2766 -0.2613
15936SOL    HW148642   6.109   5.100   0.740  1.3958 -2.8085 -0.2839
15936SOL    HW248643   6.119   5.037   0.877 -1.5631 -0.1379  1.2658
15937SOL     OW48644   4.411   1.524   5.095 -0.2427  0.8194 -0.3763
15937SOL    HW148645   4.480   1.590   5.089 -0.2294  0.8290 -0.1157
15937SOL    HW248646   4.330   1.573   5.086 -0.2590  0.9640  0.5115
15938SOL     OW48647   3.292   4.174   0.141  0.2799  0.2968 -0.3190
15938SOL    HW148648   3.339   4.197   0.062 -1.6191 -0.3995 -1.7319
15938SOL    HW248649   3.298   4.252   0.197  3.0577  0.1967 -0.3847
15939SOL     OW48650   6.875   5.436   1.284 -0.4764 -0.3986 -0.1605
15939SOL    HW148651   6.937   5.388   1.338 -0.1389  1.2017  0.9560
15939SOL    HW248652   6.874   5.524   1.322 -2.2386  0.0467 -1.1349
15940SOL     OW48653   2.213   1.920   3.086  0.1481 -0.0936 -0.0228
15940SOL    HW148654   2.303   1.888   3.087  0.6728  1.2028 -1.4692
15940SOL    HW248655   2.221   2.015   3.077 -1.3678  0.2612  1.8376
15941SOL     OW48656   2.341   1.253   0.941  0.1433  0.0363 -0.6782
15941SOL    HW148657   2.256   1.252   0.898  1.1807  0.0603 -2.8841
15941SOL    HW248658   2.389   1.180   0.901  0.5938 -1.1525  1.8477
15942SOL     OW48659   1.525   3.962   4.608  0.3993  0.3696  0.0628
15942SOL    HW148660   1.590   3.908   4.564 -1.8690 -1.9426 -0.6602
15942SOL    HW248661   1.463   3.987   4.539 -0.1609  1.5105  0.9343
15943SOL     OW48662   5.422   5.515   7.218  0.0840  0.1057  0.1793
15943SOL    HW148663   5.482   5.588   7.224  0.6467 -0.2813 -0.5673
15943SOL    HW248664   5.444   5.472   7.135 -0.3328 -0.8165  0.5284
15944SOL     OW48665   3.803   1.099   3.227 -0.0528  0.1864  0.4127
15944SOL    HW148666   3.887   1.135   3.257  1.5702 -2.3637 -0.6651
15944SOL    HW248667   3.766   1.057   3.304  1.9156 -2.4811  0.0403
15945SOL     OW48668   3.879   0.034   3.150 -0.0509 -0.2115 -0.5047
15945SOL    HW148669   3.882   0.051   3.244 -0.6509 -1.1569 -0.2996
15945SOL    HW248670   3.930  -0.047   3.138  0.4836  0.1986 -1.0724
15946SOL     OW48671   6.583   5.772   7.318  0.5278 -0.2095  0.2135
15946SOL    HW148672   6.567   5.725   7.400  1.2427  0.5520  0.8010
15946SOL    HW248673   6.664   5.821   7.333 -0.7503  2.0961  0.0241
15947SOL     OW48674   3.274   6.502   3.827 -0.1672  0.1677  0.2675
15947SOL    HW148675   3.305   6.512   3.917 -0.3589 -0.0011  0.3522
15947SOL    HW248676   3.255   6.591   3.798  1.9728  0.4669 -0.3559
15948SOL     OW48677   3.281   0.625   0.081  0.6808  0.0592 -0.3215
15948SOL    HW148678   3.353   0.611   0.019  2.4082 -0.2775  1.6588
15948SOL    HW248679   3.245   0.537   0.095 -0.6597  0.3161 -1.8452
15949SOL     OW48680   7.174   3.782   6.913  0.0912  0.4558 -0.0175
15949SOL    HW148681   7.167   3.873   6.885  1.2873 -0.1511 -2.4753
15949SOL    HW248682   7.237   3.742   6.854  0.0983 -1.8507  1.4020
15950SOL     OW48683   1.511   5.714   2.223 -0.1465  0.7479  0.5922
15950SOL    HW148684   1.597   5.672   2.219 -0.8723 -0.6654 -1.2863
15950SOL    HW248685   1.528   5.799   2.264  2.3234  0.9399 -0.6781
15951SOL     OW48686   4.720   1.730   4.285 -0.0831  0.5127 -0.9048
15951SOL    HW148687   4.726   1.826   4.285 -0.1780  0.5182 -0.8866
15951SOL    HW248688   4.811   1.701   4.273  0.8379  0.5362  3.9616
15952SOL     OW48689   7.034   1.335   2.616  0.3863 -0.4893 -0.4209
15952SOL    HW148690   7.125   1.308   2.632  0.3273  0.6037  2.3422
15952SOL    HW248691   6.989   1.254   2.591  1.5028 -1.7043  1.2931
15953SOL     OW48692   0.268   5.336   7.609  0.0925  0.6540 -0.1594
15953SOL    HW148693   0.184   5.318   7.651  0.6870 -0.7381  0.4942
15953SOL    HW248694   0.333   5.314   7.676  0.9865  1.7568 -0.6413
15954SOL     OW48695   7.348   2.612   3.018 -0.3547  0.2713 -0.0084
15954SOL    HW148696   7.312   2.676   2.956  0.3359 -0.8622 -1.6440
15954SOL    HW248697   7.437   2.644   3.035 -0.2650  0.1374 -0.2331
15955SOL     OW48698   6.375   4.495   3.772 -0.0817 -0.4823  0.3215
15955SOL    HW148699   6.322   4.573   3.788  0.3428 -0.1114 -0.0423
15955SOL    HW248700   6.432   4.488   3.849 -0.4321 -0.7000  0.5651
15956SOL     OW48701   1.464   1.689   5.652 -0.3290 -0.3153 -0.3972
15956SOL    HW148702   1.487   1.650   5.736 -1.6230  0.6081  0.4206
15956SOL    HW248703   1.381   1.647   5.628 -0.4439  0.1037 -0.7436
15957SOL     OW48704   5.259   2.358   4.809 -0.1931  0.0829  0.4602
15957SOL    HW148705   5.181   2.367   4.754 -1.5848 -1.7818  1.9783
15957SOL    HW248706   5.305   2.283   4.773 -0.4832 -0.4099  1.1043
15958SOL     OW48707   4.750   0.501   0.888  0.1878  0.0847 -0.4003
15958SOL    HW148708   4.815   0.528   0.952  0.9256 -0.7110 -0.7920
15958SOL    HW248709   4.713   0.420   0.922  0.8606 -0.5542 -1.1440
15959SOL     OW48710   7.364   6.625   2.295  0.4515  0.2699  0.5564
15959SOL    HW148711   7.411   6.696   2.252  1.1740 -0.9328 -0.6985
15959SOL    HW248712   7.313   6.669   2.364  0.0410  2.1242 -0.8365
15960SOL     OW48713   1.221   3.123   3.508  0.0220 -0.3844 -0.1062
15960SOL    HW148714   1.244   3.111   3.416  0.2471  0.2678 -0.1412
15960SOL    HW248715   1.203   3.035   3.540  0.2283 -0.6472 -0.7000
15961SOL     OW48716   3.013   5.712   3.952  0.9974  0.2246  0.6774
15961SOL    HW148717   2.955   5.713   4.029  0.4967 -1.4892  0.3825
15961SOL    HW248718   2.966   5.760   3.885 -0.0616 -1.0401  0.4830
15962SOL     OW48719   7.528   2.436   1.763  0.4124  0.3274  0.3987
15962SOL    HW148720   7.525   2.503   1.831  3.9312  1.8214 -0.6565
15962SOL    HW248721   7.620   2.410   1.759 -0.3833 -2.7770 -1.0157
15963SOL     OW48722   6.268   6.265   0.159  0.1537  0.3466  0.1451
15963SOL    HW148723   6.224   6.321   0.222  2.2832  1.5403  0.6836
15963SOL    HW248724   6.350   6.311   0.139  0.9314 -1.4716 -1.1752
15964SOL     OW48725   7.511   2.654   1.942 -0.2755  0.3173  0.6316
15964SOL    HW148726   7.570   2.728   1.931  0.5137 -0.3324  0.3377
15964SOL    HW248727   7.423   2.692   1.939  0.1310  1.3714  1.5917
15965SOL     OW48728   3.105   4.115   1.588 -0.1784  0.2441  0.6741
15965SOL    HW148729   3.041   4.087   1.653  0.2479  1.7661  1.8078
15965SOL    HW248730   3.075   4.076   1.506 -2.4116  0.6805  1.2190
15966SOL     OW48731   1.825   3.079   4.127 -0.2371  0.2039  0.0296
15966SOL    HW148732   1.748   3.025   4.146 -0.5621  0.6571  0.0035
15966SOL    HW248733   1.795   3.169   4.135  0.3926  0.3917  0.4233
15967SOL     OW48734   2.162   1.823   2.628 -0.1221 -0.0568 -0.3357
15967SOL    HW148735   2.068   1.836   2.631 -0.4170  0.0294 -4.4513
15967SOL    HW248736   2.173   1.733   2.596  1.2071 -0.0066 -0.0977
15968SOL     OW48737   5.317   3.546   7.512 -0.0515 -0.6144  0.1122
15968SOL    HW148738   5.349   3.472   7.564  2.4312 -1.7739 -2.7597
15968SOL    HW248739   5.352   3.623   7.557  0.7907 -1.4585  0.9667
15969SOL     OW48740   2.635   4.741   1.370  0.6885 -0.3832  0.2159
15969SOL    HW148741   2.698   4.812   1.358 -1.3541  1.7184  1.0174
15969SOL    HW248742   2.634   4.695   1.286  2.2010  0.4047 -0.2731
15970SOL     OW48743   2.760   5.272   7.157  0.0163  0.1822  0.4443
15970SOL    HW148744   2.709   5.279   7.076  1.1306  1.2685 -0.1924
15970SOL    HW248745   2.730   5.345   7.211  0.8555  0.7818  0.0963
15971SOL     OW48746   1.245   5.238   0.264 -0.2429  0.1734  0.1459
15971SOL    HW148747   1.316   5.223   0.202 -0.1523  0.0533  0.2767
15971SOL    HW248748   1.221   5.330   0.251 -1.4317 -0.3096 -1.3115
15972SOL     OW48749   5.803   1.720   1.496  0.4742  0.1389  0.1353
15972SOL    HW148750   5.867   1.668   1.449 -0.6591 -2.2525  1.0945
15972SOL    HW248751   5.723   1.712   1.445  0.9790  3.8974 -1.6019
15973SOL     OW48752   6.100   0.919   5.969  0.1526 -0.0414 -0.6595
15973SOL    HW148753   6.060   0.959   5.891 -2.3112  0.8433  0.9404
15973SOL    HW248754   6.185   0.963   5.977 -0.8589  2.1673 -1.1468
15974SOL     OW48755   0.940   4.061   6.956 -0.4198  0.2861 -0.2303
15974SOL    HW148756   0.995   4.072   6.878 -0.7996  0.6189 -0.4570
15974SOL    HW248757   0.853   4.089   6.928 -0.6172  0.1574  0.2421
15975SOL     OW48758   6.761   3.636   0.711  0.4872  0.8025 -0.3639
15975SOL    HW148759   6.826   3.705   0.700  1.2436  0.0734 -0.5160
15975SOL    HW248760   6.796   3.580   0.780 -0.6527  1.1674  0.5434
15976SOL     OW48761   2.983   7.134   2.289  0.0093 -0.6860 -0.1594
15976SOL    HW148762   2.939   7.056   2.255  1.5927 -1.4394 -0.5819
15976SOL    HW248763   3.067   7.101   2.322  0.9469  0.9107 -0.8472
15977SOL     OW48764   7.750   2.641   2.317 -0.3015  0.3060  0.1167
15977SOL    HW148765   7.726   2.725   2.278  2.0587  0.2670 -1.6218
15977SOL    HW248766   7.845   2.643   2.323 -0.3339 -1.1210  2.8221
15978SOL     OW48767   1.098   3.762   7.900  0.9914  0.4194  0.5345
15978SOL    HW148768   1.003   3.769   7.913  0.7560 -2.2105  0.8137
15978SOL    HW248769   1.134   3.753   7.988  1.6211  2.0464  0.4770
15979SOL     OW48770   2.854   7.910   1.274 -0.2317 -0.3432 -0.0878
15979SOL    HW148771   2.838   7.939   1.364 -0.1391  1.1970 -0.5464
15979SOL    HW248772   2.768   7.913   1.232 -0.0774  0.0630 -0.3700
15980SOL     OW48773   0.955   7.835   1.193 -0.5433  0.3533 -0.1897
15980SOL    HW148774   0.891   7.809   1.258  0.3978 -0.5037  0.4210
15980SOL    HW248775   0.962   7.760   1.134  1.7879 -0.6846  1.2701
15981SOL     OW48776   7.174   1.679   0.096 -0.7577 -0.2342 -0.0175
15981SOL    HW148777   7.114   1.712   0.030 -0.7442 -0.1754 -0.0005
15981SOL    HW248778   7.155   1.585   0.102 -2.6707  0.1948  1.8595
15982SOL     OW48779   6.577   0.969   3.451  0.3558  0.2118  0.1463
15982SOL    HW148780   6.594   0.897   3.390  0.5953 -0.5857  1.1234
15982SOL    HW248781   6.493   0.947   3.492  0.0080  0.9358 -0.1638
15983SOL     OW48782   5.994   3.968   0.182  0.2298 -0.1539 -0.3893
15983SOL    HW148783   5.980   3.970   0.088  1.0353 -0.6367 -0.5263
15983SOL    HW248784   5.958   4.051   0.214  0.6777  0.3635 -1.2151
15984SOL     OW48785   6.699   6.595   6.509  0.0002 -0.5575 -0.1249
15984SOL    HW148786   6.663   6.507   6.513  0.6056 -0.8076 -0.0774
15984SOL    HW248787   6.791   6.582   6.484  0.0624  0.0642 -0.2296
15985SOL     OW48788   5.574   1.313   4.128 -0.1842 -0.9277 -0.0036
15985SOL    HW148789   5.540   1.381   4.185 -1.4000 -1.1093 -0.4883
15985SOL    HW248790   5.660   1.345   4.101  0.2673 -0.6961  1.6388
15986SOL     OW48791   3.935   7.503   7.379  0.3737 -0.0154 -0.1279
15986SOL    HW148792   3.962   7.589   7.411 -1.6770  0.2441  1.1411
15986SOL    HW248793   3.930   7.513   7.284  0.7477  1.0847 -0.0452
15987SOL     OW48794   2.132   0.604   0.398 -0.0412  0.3910  0.0379
15987SOL    HW148795   2.056   0.546   0.390  0.0232  0.0403  1.6296
15987SOL    HW248796   2.194   0.571   0.332 -0.8578  0.0329 -0.5612
15988SOL     OW48797   5.542   7.270   4.045  0.1128 -0.0344 -0.3512
15988SOL    HW148798   5.538   7.226   3.959 -0.1606 -0.2232 -0.2430
15988SOL    HW248799   5.463   7.240   4.091  1.0064 -1.1101  0.5364
15989SOL     OW48800   0.459   3.445   0.379  0.7284 -0.1460 -0.0934
15989SOL    HW148801   0.384   3.386   0.368  0.4829  0.3634 -1.3586
15989SOL    HW248802   0.524   3.393   0.425  0.2599 -1.1821 -0.5762
15990SOL     OW48803   0.074   0.588   1.059 -0.1228 -0.0125 -0.3116
15990SOL    HW148804   0.021   0.646   1.004 -1.9053 -0.5450  0.7744
15990SOL    HW248805   0.078   0.633   1.143 -1.6667 -1.4759  0.5936
15991SOL     OW48806   6.252   3.032   3.324  0.8984 -0.0774 -0.4182
15991SOL    HW148807   6.333   3.082   3.311 -0.1169  1.4098 -1.3814
15991SOL    HW248808   6.282   2.942   3.340  2.7843  0.6801  0.8145
15992SOL     OW48809   4.399   5.927   0.651 -0.6348  0.0382 -0.4348
15992SOL    HW148810   4.381   5.875   0.729  0.4094  0.5804  0.2031
15992SOL    HW248811   4.350   6.008   0.665 -1.1709 -0.2243 -0.7787
15993SOL     OW48812   0.902   3.776   4.447  0.1812  0.1526 -0.1649
15993SOL    HW148813   0.994   3.797   4.434 -0.3417  1.6851 -1.8077
15993SOL    HW248814   0.890   3.690   4.407  0.4126  1.0882 -2.3895
15994SOL     OW48815   1.407   3.757   4.766 -0.2953  0.0438  0.2534
15994SOL    HW148816   1.455   3.830   4.727 -2.4005  1.0472 -0.6377
15994SOL    HW248817   1.455   3.679   4.738  0.0989  0.9132 -1.6528
15995SOL     OW48818   4.129   7.127   5.447 -0.8095  0.2911  0.1049
15995SOL    HW148819   4.083   7.152   5.527  0.2511  0.7192  0.5897
15995SOL    HW248820   4.058   7.107   5.385 -1.7003  2.2932  0.3899
15996SOL     OW48821   7.685   7.886   3.851 -0.0630 -0.1647  0.1974
15996SOL    HW148822   7.765   7.850   3.888 -0.7828 -2.0808 -0.0368
15996SOL    HW248823   7.715   7.937   3.775  0.9943  0.0200  0.7096
15997SOL     OW48824   6.533   0.477   5.376 -0.4642 -0.0950  0.1990
15997SOL    HW148825   6.571   0.394   5.347  1.6479  0.2275  1.8369
15997SOL    HW248826   6.468   0.498   5.309  0.4633 -1.9813 -1.3937
15998SOL     OW48827   4.882   2.015   2.648  0.2406 -0.1693  0.0601
15998SOL    HW148828   4.881   1.920   2.657  0.6218 -0.2031 -0.2445
15998SOL    HW248829   4.810   2.045   2.704 -1.3010 -0.7721 -1.5017
15999SOL     OW48830   0.990   5.214   4.196 -0.0413  0.0767 -0.6442
15999SOL    HW148831   1.025   5.265   4.269 -0.8608  1.8022 -1.3989
15999SOL    HW248832   1.066   5.191   4.143  0.2869  1.2261 -0.6933
16000SOL     OW48833   6.677   7.618   7.077  0.1568 -0.3149  0.1792
16000SOL    HW148834   6.764   7.577   7.071 -0.2022 -0.9252 -1.7124
16000SOL    HW248835   6.695   7.711   7.092  1.2263 -0.2109 -1.4609
16001SOL     OW48836   2.467   4.570   3.281 -0.5227 -0.0217 -0.2178
16001SOL    HW148837   2.444   4.663   3.281 -1.9776 -0.3438  0.3066
16001SOL    HW248838   2.419   4.534   3.356 -0.0315 -1.2103 -0.4511
16002SOL     OW48839   3.484   0.722   0.918  0.0021 -0.2950 -0.2567
16002SOL    HW148840   3.564   0.761   0.952 -0.4459  0.7030 -0.3229
16002SOL    HW248841   3.512   0.668   0.845  0.8016 -1.2799  0.7407
16003SOL     OW48842   3.567   1.041   3.094 -0.4564 -0.1862 -0.3722
16003SOL    HW148843   3.657   1.061   3.121 -1.1365 -0.7124  2.6187
16003SOL    HW248844   3.571   0.952   3.062  0.3720  0.3924 -1.9721
16004SOL     OW48845   5.356   1.109   6.432 -0.4147  0.5120  0.4456
16004SOL    HW148846   5.268   1.111   6.395 -0.7049  0.4591  1.1197
16004SOL    HW248847   5.379   1.201   6.444  0.2721  0.5889 -1.2094
16005SOL     OW48848   4.828   6.612   0.884  0.3361  0.0993 -0.4451
16005SOL    HW148849   4.819   6.517   0.892  0.0962  0.1646  0.1815
16005SOL    HW248850   4.862   6.626   0.796  1.5236 -0.6396 -0.1301
16006SOL     OW48851   5.950   5.882   0.920 -0.3112 -0.2265  0.4215
16006SOL    HW148852   5.986   5.798   0.893  0.5861 -0.0255  0.9456
16006SOL    HW248853   5.876   5.860   0.976 -0.0898 -0.6679  0.5440
16007SOL     OW48854   4.867   4.628   0.647  0.1996  0.4006 -0.0574
16007SOL    HW148855   4.946   4.595   0.604  0.2131  1.2598 -0.7310
16007SOL    HW248856   4.874   4.598   0.738  0.7313 -0.4956 -0.3855
16008SOL     OW48857   0.461   7.845   1.573 -0.0957 -0.3734  0.1808
16008SOL    HW148858   0.442   7.762   1.618  0.2890  0.8622  2.8293
16008SOL    HW248859   0.548   7.869   1.604  0.3161  0.4509 -1.5256
16009SOL     OW48860   2.013   0.636   5.496 -0.0975  0.1049 -0.3608
16009SOL    HW148861   2.023   0.638   5.401 -0.2673  1.6636 -0.3745
16009SOL    HW248862   2.073   0.568   5.526 -1.5406 -1.8710 -1.7388
16010SOL     OW48863   1.795   3.919   4.373 -0.2270 -0.2228 -0.3708
16010SOL    HW148864   1.740   3.872   4.310 -0.4726  0.6056 -0.7783
16010SOL    HW248865   1.849   3.850   4.412 -1.3585 -1.0231 -0.1415
16011SOL     OW48866   4.773   7.064   2.913  0.0369  0.4402 -0.3103
16011SOL    HW148867   4.723   7.046   2.993  1.1267  0.0088  0.3002
16011SOL    HW248868   4.709   7.055   2.842 -0.6916 -0.3584  0.4246
16012SOL     OW48869   6.817   7.616   5.537 -0.3731  0.5492 -0.2914
16012SOL    HW148870   6.765   7.615   5.457  1.1097  2.4244 -1.3610
16012SOL    HW248871   6.802   7.703   5.575  1.1398  0.7511 -0.0802
16013SOL     OW48872   7.786   5.109   0.544  0.2080  0.7967  0.1598
16013SOL    HW148873   7.782   5.106   0.640  2.0136  3.2393  0.4282
16013SOL    HW248874   7.721   5.175   0.520  1.8463  2.4630  0.0594
16014SOL     OW48875   6.885   4.389   0.561 -0.1624  0.0350  0.2232
16014SOL    HW148876   6.864   4.357   0.649  0.0750 -0.2486  0.1802
16014SOL    HW248877   6.861   4.316   0.503 -2.2776  0.9718 -0.1570
16015SOL     OW48878   0.965   0.484   4.137  0.1129 -0.5503  0.6268
16015SOL    HW148879   0.905   0.448   4.202 -1.6007 -0.8408 -1.0118
16015SOL    HW248880   1.043   0.429   4.142 -0.1390 -0.7942  2.1485
16016SOL     OW48881   6.141   4.759   7.324  0.6054 -0.7314  0.2247
16016SOL    HW148882   6.058   4.748   7.278  0.7484 -1.4559  0.1230
16016SOL    HW248883   6.186   4.676   7.311  0.3385 -1.2636  2.2904
16017SOL     OW48884   4.558   5.741   3.816  0.5781  0.2152 -0.2855
16017SOL    HW148885   4.615   5.680   3.769  0.9032  0.1556  0.1750
16017SOL    HW248886   4.574   5.722   3.909  0.7275  1.0370 -0.1364
16018SOL     OW48887   7.051   2.371   6.082 -0.8880 -0.2459  0.1339
16018SOL    HW148888   6.980   2.417   6.127 -0.2832  1.1532 -0.2861
16018SOL    HW248889   7.007   2.301   6.033 -1.9300  0.3503  0.1837
16019SOL     OW48890   3.275   0.954   0.817 -0.1573 -0.0202 -0.0736
16019SOL    HW148891   3.279   1.047   0.796  3.1651 -0.2754 -1.2066
16019SOL    HW248892   3.332   0.944   0.894  0.1646 -1.1918 -0.4336
16020SOL     OW48893   2.516   3.342   4.986 -0.3162 -0.2163  0.3124
16020SOL    HW148894   2.565   3.320   4.907 -0.6657  1.8779 -0.5721
16020SOL    HW248895   2.427   3.359   4.955 -0.0359  2.5066  0.7621
16021SOL     OW48896   2.896   7.492   2.223 -0.0431  0.3624 -0.5949
16021SOL    HW148897   2.852   7.576   2.231  1.4220  1.2275 -1.1742
16021SOL    HW248898   2.965   7.494   2.289 -1.1519 -1.2007  0.6859
16022SOL     OW48899   2.190   3.327   4.309  0.6715 -0.0036  0.7865
16022SOL    HW148900   2.285   3.316   4.305  0.6717  0.1901  0.0069
16022SOL    HW248901   2.164   3.335   4.217 -0.0414  0.4160  1.0221
16023SOL     OW48902   5.700   6.843   1.901 -0.2191 -0.2030 -0.0858
16023SOL    HW148903   5.667   6.793   1.826 -1.7166 -0.0418  0.4281
16023SOL    HW248904   5.782   6.881   1.871 -0.6867 -0.3280 -1.5747
16024SOL     OW48905   4.350   5.914   4.011 -0.0009  0.2782 -0.6320
16024SOL    HW148906   4.407   5.988   4.032  0.5437 -0.3275  0.1195
16024SOL    HW248907   4.393   5.839   4.053 -1.0115 -0.3080 -0.6179
16025SOL     OW48908   6.482   1.145   2.162 -0.5854 -1.0036 -0.1628
16025SOL    HW148909   6.504   1.204   2.234 -2.4325  0.7722 -0.9420
16025SOL    HW248910   6.554   1.154   2.100 -1.0169  0.8691 -0.4585
16026SOL     OW48911   7.574   4.102   5.491 -0.2796  0.5703  0.0758
16026SOL    HW148912   7.650   4.113   5.434  0.1353  0.4962  0.6131
16026SOL    HW248913   7.597   4.028   5.548 -0.1567  1.4528  1.2021
16027SOL     OW48914   1.922   6.256   2.496 -0.5724  0.2031  0.0360
16027SOL    HW148915   1.952   6.176   2.453  0.6841  1.1452 -0.8903
16027SOL    HW248916   1.841   6.278   2.452  0.4049  0.8419 -1.5285
16028SOL     OW48917   1.712   5.255   7.900 -0.3409  0.4573  0.2852
16028SOL    HW148918   1.667   5.246   7.817  1.1203 -0.8056 -0.4247
16028SOL    HW248919   1.796   5.296   7.878 -0.4217  1.2583  1.3369
16029SOL     OW48920   0.410   4.514   7.325  0.3285  0.0352  0.0553
16029SOL    HW148921   0.396   4.494   7.232 -1.5294 -1.5323  0.6080
16029SOL    HW248922   0.322   4.519   7.362  1.0476 -0.4871  1.9568
16030SOL     OW48923   1.982   3.170   0.088  0.0161  0.4789 -0.1037
16030SOL    HW148924   1.895   3.135   0.070 -0.3784  2.3224 -2.2948
16030SOL    HW248925   1.966   3.253   0.133  0.6876  0.3776  0.3478
16031SOL     OW48926   4.538   0.646   6.511  0.1286  0.2099  0.4849
16031SOL    HW148927   4.563   0.700   6.585  2.3138  1.0921 -0.8120
16031SOL    HW248928   4.605   0.578   6.506 -0.0178  0.1238 -0.6182
16032SOL     OW48929   1.487   3.935   4.275  0.2575  0.0576  0.3706
16032SOL    HW148930   1.568   3.906   4.233 -0.7326  0.7599 -2.2367
16032SOL    HW248931   1.454   4.004   4.217 -2.3648 -0.4252  1.1645
16033SOL     OW48932   4.730   1.020   1.220 -0.5315  1.0854 -0.3856
16033SOL    HW148933   4.729   1.100   1.272 -0.6155  2.1853 -1.9881
16033SOL    HW248934   4.759   1.049   1.133  1.1509 -0.9394 -0.5612
16034SOL     OW48935   6.842   1.967   0.960  0.0317  0.7317 -0.1709
16034SOL    HW148936   6.851   2.055   0.995  1.5969  0.2055  0.8437
16034SOL    HW248937   6.886   1.911   1.023 -0.8961 -0.7867 -0.8172
16035SOL     OW48938   6.846   7.261   0.107 -0.3660  0.1609  0.0737
16035SOL    HW148939   6.831   7.167   0.103  0.5983  0.0048 -0.2998
16035SOL    HW248940   6.793   7.297   0.036  0.2618 -0.2608 -0.6282
16036SOL     OW48941   7.185   0.931   0.147 -0.6123  0.0407 -0.6901
16036SOL    HW148942   7.205   0.870   0.217  1.1229  1.5456  0.2121
16036SOL    HW248943   7.093   0.954   0.160 -1.0633 -1.7182 -0.5715
16037SOL     OW48944   6.448   7.064   2.043 -0.0843  0.2786  0.4285
16037SOL    HW148945   6.469   7.141   1.990 -1.4282  0.2766 -0.1471
16037SOL    HW248946   6.466   6.989   1.987 -2.2842  0.2954 -0.3859
16038SOL     OW48947   7.726   4.236   4.076 -0.8925 -0.0250 -0.3744
16038SOL    HW148948   7.676   4.156   4.091 -2.2310  0.7107 -0.6941
16038SOL    HW248949   7.709   4.289   4.154  3.6015 -1.6860  2.1258
16039SOL     OW48950   3.371   1.879   1.305 -0.3614 -0.4525  0.2352
16039SOL    HW148951   3.407   1.809   1.360  0.1398 -1.0208 -0.8043
16039SOL    HW248952   3.277   1.862   1.303 -0.6392  0.5241  2.2378
16040SOL     OW48953   5.100   0.416   0.192  0.1831 -0.2365  0.1740
16040SOL    HW148954   5.129   0.508   0.193 -0.1423 -0.1136 -0.5857
16040SOL    HW248955   5.155   0.373   0.257 -0.0302  0.6092  0.9357
16041SOL     OW48956   5.317   2.456   0.773  0.2350 -0.1647 -0.1242
16041SOL    HW148957   5.365   2.525   0.820 -1.3130  0.8140  0.1088
16041SOL    HW248958   5.253   2.425   0.837 -0.3746 -0.4408 -0.8617
16042SOL     OW48959   2.744   4.521   4.405  0.1112  0.2249 -0.1432
16042SOL    HW148960   2.677   4.485   4.347  0.5306 -1.1824  0.2164
16042SOL    HW248961   2.788   4.445   4.442  1.8015  1.1176 -0.2159
16043SOL     OW48962   1.171   4.947   3.169  0.2373  0.1140 -0.7085
16043SOL    HW148963   1.115   4.910   3.237  0.6918 -0.9346 -0.8983
16043SOL    HW248964   1.213   4.872   3.128  0.5117  0.7738 -1.6872
16044SOL     OW48965   0.004   0.579   4.130  0.0991 -0.1580 -0.1029
16044SOL    HW148966  -0.081   0.572   4.087 -0.6611  2.5738  0.7506
16044SOL    HW248967  -0.004   0.526   4.209 -1.4012  1.2047  0.7133
16045SOL     OW48968   5.804   1.305   3.034 -0.0092 -0.5178  0.3869
16045SOL    HW148969   5.782   1.336   3.121  1.3500  1.3924  0.1091
16045SOL    HW248970   5.753   1.225   3.023 -0.8341 -0.3466  2.5936
16046SOL     OW48971   6.347   3.668   0.527  0.1328  0.9330 -0.2675
16046SOL    HW148972   6.358   3.747   0.580 -2.9104  0.3628  1.5052
16046SOL    HW248973   6.367   3.596   0.587 -2.1069  0.2984 -0.1996
16047SOL     OW48974   7.843   1.300   2.370 -0.0724  0.3899 -0.1002
16047SOL    HW148975   7.821   1.384   2.330  0.1064  0.3203 -0.3477
16047SOL    HW248976   7.819   1.310   2.462  0.9922  1.1037  0.1202
16048SOL     OW48977   6.783   5.511   2.045 -0.3518  0.0192 -0.5518
16048SOL    HW148978   6.710   5.533   1.987 -0.9706  0.1278  0.2579
16048SOL    HW248979   6.846   5.467   1.988 -0.9004  0.2184 -1.3295
16049SOL     OW48980   2.452   7.424   7.601  0.2819 -0.1620  0.1842
16049SOL    HW148981   2.386   7.465   7.544  0.5243 -0.5711 -0.4027
16049SOL    HW248982   2.534   7.465   7.576  0.7820 -2.0282 -1.4987
16050SOL     OW48983   3.611   4.495   2.351  0.1005 -0.3642  0.4279
16050SOL    HW148984   3.582   4.418   2.303  0.3153  0.2699 -0.7799
16050SOL    HW248985   3.693   4.469   2.393 -0.0428 -0.9105  0.3668
16051SOL     OW48986   3.355   0.927   3.233 -0.1481 -0.1525  0.2329
16051SOL    HW148987   3.368   0.905   3.325  0.2526  0.3639  0.2979
16051SOL    HW248988   3.430   0.980   3.209 -0.8941  0.8138 -0.0448
16052SOL     OW48989   4.953   2.920   4.604  0.3784 -0.6702  0.1634
16052SOL    HW148990   5.042   2.948   4.627  0.9732 -1.1249 -1.4572
16052SOL    HW248991   4.965   2.863   4.529 -1.3280 -0.5430 -0.2351
16053SOL     OW48992   5.286   7.372   0.468  0.5915 -0.0268  0.2853
16053SOL    HW148993   5.344   7.320   0.412 -0.1098  0.3389 -0.8176
16053SOL    HW248994   5.205   7.380   0.417  0.7682  2.3409  0.3028
16054SOL     OW48995   6.907   5.086   4.378 -0.3957  0.4636  0.5466
16054SOL    HW148996   6.967   5.123   4.314  0.5192  0.5417  1.4125
16054SOL    HW248997   6.959   5.020   4.425 -1.6951 -1.2171 -0.2739
16055SOL     OW48998   3.836   6.421   1.714 -0.1096  0.3889  0.3987
16055SOL    HW148999   3.819   6.431   1.621 -0.4159  2.2457  0.6193
16055SOL    HW249000   3.863   6.508   1.744 -0.4803 -0.0396  2.1210
16056SOL     OW49001   0.087   5.437   5.490  0.1210 -0.3923 -0.0778
16056SOL    HW149002   0.092   5.509   5.552  2.4714 -0.1980 -0.4155
16056SOL    HW249003   0.046   5.366   5.539 -1.1371  0.7553  0.6220
16057SOL     OW49004   4.432   6.394   6.153  0.1091 -0.3896  0.4703
16057SOL    HW149005   4.346   6.372   6.187 -0.3997  0.5103 -0.1893
16057SOL    HW249006   4.435   6.490   6.154 -0.0912 -0.2750 -2.2620
16058SOL     OW49007   6.179   4.004   0.503  0.1358 -0.4140  0.3696
16058SOL    HW149008   6.193   3.941   0.433  0.8307 -0.3441  0.4371
16058SOL    HW249009   6.149   3.950   0.577 -1.3268 -0.4005 -0.1734
16059SOL     OW49010   6.790   4.910   0.478 -0.3762 -0.1733 -0.3606
16059SOL    HW149011   6.851   4.982   0.463 -0.6592  0.1719  0.1238
16059SOL    HW249012   6.738   4.905   0.397 -1.5435  1.3325  0.2677
16060SOL     OW49013   4.266   6.727   5.793 -0.1623 -0.0321 -0.2900
16060SOL    HW149014   4.362   6.716   5.793 -0.1909 -0.4325  0.7051
16060SOL    HW249015   4.249   6.789   5.722  1.0821  2.0608  1.1126
16061SOL     OW49016   4.727   2.321   5.171  0.1623 -0.4470 -0.5517
16061SOL    HW149017   4.744   2.339   5.079 -1.5716 -0.0935 -0.8343
16061SOL    HW249018   4.640   2.358   5.187  0.2908 -0.8050  1.1422
16062SOL     OW49019   0.820   0.342   0.340  0.1393 -0.2717  0.3885
16062SOL    HW149020   0.810   0.435   0.360  1.4282 -0.1970  0.7324
16062SOL    HW249021   0.914   0.328   0.335 -0.0516 -1.2101 -1.3449
16063SOL     OW49022   6.023   7.762   7.060  0.3968 -0.3274  0.4763
16063SOL    HW149023   6.057   7.694   7.002  0.2171 -1.4913  1.6715
16063SOL    HW249024   6.101   7.810   7.090  0.5007  0.1772 -0.5769
16064SOL     OW49025   6.625   6.472   1.854  0.3505 -0.4981 -0.0229
16064SOL    HW149026   6.648   6.395   1.906  0.8171  1.1654  2.3732
16064SOL    HW249027   6.541   6.501   1.889  0.7112  0.7203 -0.1073
16065SOL     OW49028   1.535   0.714   0.544 -0.4448  0.3300 -0.4477
16065SOL    HW149029   1.486   0.635   0.566 -1.2581  0.8149 -0.4959
16065SOL    HW249030   1.522   0.772   0.620  1.5038 -0.1829  0.3464
16066SOL     OW49031   1.190   6.581   5.873 -0.2607 -0.1329 -0.0499
16066SOL    HW149032   1.281   6.556   5.857 -0.2897 -0.9398  0.9592
16066SOL    HW249033   1.155   6.511   5.929 -0.9069  1.1714  1.2582
16067SOL     OW49034   1.613   7.396   1.358  0.0928  0.9361 -0.0111
16067SOL    HW149035   1.653   7.309   1.358  0.3183  1.0361  0.5603
16067SOL    HW249036   1.522   7.380   1.335 -0.2195  0.3755  1.5308
16068SOL     OW49037   1.344   6.373   2.887 -0.2383  0.1371  0.1590
16068SOL    HW149038   1.354   6.398   2.979  0.5310 -3.7789  1.3385
16068SOL    HW249039   1.430   6.388   2.848 -0.0902  0.2488  0.5293
16069SOL     OW49040   2.329   1.880   4.477  0.0934 -0.0085  0.0851
16069SOL    HW149041   2.238   1.851   4.472  0.6768 -1.9111 -0.2307
16069SOL    HW249042   2.333   1.956   4.419 -0.7981 -1.3773 -1.8890
16070SOL     OW49043   0.979   7.051   7.438  0.6247 -0.2720  0.0650
16070SOL    HW149044   1.065   7.051   7.396  0.3657 -0.5708 -0.4731
16070SOL    HW249045   0.954   7.144   7.443  0.5646 -0.2439 -0.6453
16071SOL     OW49046   5.277   4.025   6.451 -0.1833 -0.2023  0.4260
16071SOL    HW149047   5.205   4.086   6.470 -0.4739  0.4257 -2.2853
16071SOL    HW249048   5.238   3.938   6.462 -1.0380  0.1362  0.1753
16072SOL     OW49049   3.446   2.095   4.603 -0.1106  0.1465 -0.7163
16072SOL    HW149050   3.368   2.078   4.549 -0.4864 -0.9579  0.1385
16072SOL    HW249051   3.483   2.008   4.620  1.1588  0.6360 -0.8606
16073SOL     OW49052   0.022   0.716   0.481  0.1961  0.0674 -0.3221
16073SOL    HW149053  -0.064   0.728   0.441  0.6754  0.7088 -1.2014
16073SOL    HW249054   0.054   0.634   0.443  0.9331  1.0127 -1.8498
16074SOL     OW49055   1.864   1.656   3.595  0.1041 -0.0415  0.3550
16074SOL    HW149056   1.953   1.641   3.562  0.1001  0.6820 -0.0096
16074SOL    HW249057   1.858   1.602   3.674  0.5534 -0.8093 -0.1225
16075SOL     OW49058   7.861   6.637   7.088  0.0204  0.7537 -0.0451
16075SOL    HW149059   7.774   6.621   7.124  0.8277 -1.6439  1.0129
16075SOL    HW249060   7.848   6.635   6.993 -1.0078 -0.0998  0.0892
16076SOL     OW49061   2.450   4.506   4.587 -0.4638  0.3792 -0.3025
16076SOL    HW149062   2.451   4.487   4.494 -0.3535  1.1513 -0.4707
16076SOL    HW249063   2.531   4.468   4.621 -0.9006 -0.6201 -0.3598
16077SOL     OW49064   6.902   4.924   2.112  0.0359  0.1130  0.0222
16077SOL    HW149065   6.935   4.889   2.194  0.7512  0.5575 -0.0670
16077SOL    HW249066   6.863   5.008   2.135  0.5293  0.3907 -0.1334
16078SOL     OW49067   4.111   3.552   4.548  0.6854 -0.3438 -0.2613
16078SOL    HW149068   4.113   3.560   4.643  1.5816 -1.1174 -0.2083
16078SOL    HW249069   4.140   3.638   4.516 -0.3200  0.1571  0.1406
16079SOL     OW49070   0.753   3.034   4.665  0.1797  0.2116 -0.1638
16079SOL    HW149071   0.778   3.074   4.749  0.1927 -0.4173  0.1367
16079SOL    HW249072   0.832   2.990   4.635 -0.2958 -1.1107  0.4019
16080SOL     OW49073   1.636   3.137   5.752 -0.3847  0.0458  0.0027
16080SOL    HW149074   1.675   3.140   5.665 -1.2718  1.2443 -0.3916
16080SOL    HW249075   1.651   3.048   5.783  2.7552  0.4370 -0.0408
16081SOL     OW49076   6.130   7.672   2.536  0.1477  0.3067  0.5492
16081SOL    HW149077   6.128   7.631   2.449 -0.2032  2.4196 -0.5173
16081SOL    HW249078   6.153   7.601   2.596  0.3857 -1.2260 -1.2642
16082SOL     OW49079   1.847   4.740   6.325  0.2969  0.2460  0.0627
16082SOL    HW149080   1.845   4.834   6.304 -0.9404  0.2343  0.0231
16082SOL    HW249081   1.933   4.711   6.296  0.6822  1.3616  0.0181
16083SOL     OW49082   5.991   3.553   7.695 -0.2379  0.3103 -0.7744
16083SOL    HW149083   5.995   3.571   7.601 -1.0898  1.7128 -0.5766
16083SOL    HW249084   6.057   3.486   7.710  0.1510  0.3170 -2.3147
16084SOL     OW49085   3.266   3.310   5.015  0.5606  0.0295 -0.3441
16084SOL    HW149086   3.210   3.320   4.938 -1.1291  0.1029  0.8201
16084SOL    HW249087   3.331   3.380   5.006 -1.2138  1.7930 -0.4335
16085SOL     OW49088   0.019   0.879   7.879 -0.3961  0.5273 -0.0313
16085SOL    HW149089   0.053   0.967   7.861  0.0831 -0.1589 -3.0372
16085SOL    HW249090   0.006   0.840   7.792 -0.9879 -2.2422  1.1897
16086SOL     OW49091   4.130   6.497   7.208 -0.3032  0.2654 -0.8640
16086SOL    HW149092   4.155   6.408   7.182  0.7684  0.3543 -0.2171
16086SOL    HW249093   4.097   6.537   7.129  0.9513 -0.1203 -1.6157
16087SOL     OW49094   4.835   6.539   7.592 -0.1957  0.4495  1.0176
16087SOL    HW149095   4.866   6.488   7.667  0.4471  1.1443  1.2336
16087SOL    HW249096   4.751   6.575   7.620 -1.1533 -1.2869  0.5003
16088SOL     OW49097   3.161   3.405   7.391 -0.1460  0.4333 -0.1677
16088SOL    HW149098   3.193   3.351   7.319 -0.1954 -1.2457  1.0254
16088SOL    HW249099   3.116   3.344   7.449 -1.2434  1.9564  0.6630
16089SOL     OW49100   1.115   5.599   5.918 -0.6048  0.2959 -0.0099
16089SOL    HW149101   1.036   5.568   5.963 -0.5107  0.5025  0.2965
16089SOL    HW249102   1.187   5.576   5.976 -0.5535  1.3227  0.3441
16090SOL     OW49103   0.497   2.526   1.355 -0.7898  0.0058 -0.0661
16090SOL    HW149104   0.433   2.457   1.369 -1.8941  0.4232 -2.5378
16090SOL    HW249105   0.446   2.603   1.330  0.6122  0.4788 -1.7112
16091SOL     OW49106   0.055   2.555   6.100 -0.1082  0.5961 -0.2272
16091SOL    HW149107   0.055   2.464   6.067 -2.6002  0.6016 -0.4677
16091SOL    HW249108   0.043   2.608   6.021 -1.4615  0.9073  0.1529
16092SOL     OW49109   7.628   0.582   1.442  0.7296 -0.1652 -0.2212
16092SOL    HW149110   7.550   0.632   1.417  1.2930  2.0911  2.1429
16092SOL    HW249111   7.679   0.576   1.361 -0.5718  0.8500 -1.1742
16093SOL     OW49112   5.424   2.397   5.544  0.0049 -0.1860 -0.4015
16093SOL    HW149113   5.452   2.376   5.633  0.8530  0.5288 -0.4826
16093SOL    HW249114   5.430   2.493   5.539  0.6486 -0.2699 -1.4455
16094SOL     OW49115   0.232   3.988   1.559  0.1185 -0.0576  0.3094
16094SOL    HW149116   0.270   4.003   1.473 -0.0683 -1.0044  0.0470
16094SOL    HW249117   0.235   4.073   1.602  0.5036  0.3561 -0.5141
16095SOL     OW49118   2.570   6.132   3.029  0.1501  0.0674 -0.0037
16095SOL    HW149119   2.589   6.118   3.122  0.4048  0.8494  0.0655
16095SOL    HW249120   2.616   6.061   2.985 -0.7082 -0.8588  0.5155
16096SOL     OW49121   1.494   7.245   1.618 -0.1461 -0.1500  0.2716
16096SOL    HW149122   1.416   7.276   1.663  0.0979 -1.2633  1.5205
16096SOL    HW249123   1.549   7.322   1.608 -1.0538  0.4855  0.1110
16097SOL     OW49124   7.603   1.977   3.631  0.2306  0.8703  0.0004
16097SOL    HW149125   7.619   2.002   3.722  0.9443  0.2603  0.0482
16097SOL    HW249126   7.540   1.906   3.637 -0.3144  1.3420 -0.0319
16098SOL     OW49127   6.854   5.107   1.310  0.0005  0.3393  0.2880
16098SOL    HW149128   6.942   5.094   1.346 -0.0260  0.2757  0.3308
16098SOL    HW249129   6.796   5.060   1.371 -0.1484  1.0809  0.7309
16099SOL     OW49130   0.945   6.875   0.389  0.0596  0.1508 -0.4273
16099SOL    HW149131   0.953   6.960   0.346 -0.2812  0.2023 -0.3932
16099SOL    HW249132   0.942   6.811   0.317  0.2846  0.1696 -0.4535
16100SOL     OW49133   5.370   3.271   0.526 -0.1238  0.5517 -0.1112
16100SOL    HW149134   5.442   3.332   0.509  1.8727 -1.8436 -0.6748
16100SOL    HW249135   5.361   3.222   0.445  0.7778 -2.3149  1.4061
16101SOL     OW49136   4.310   3.440   7.252  0.1417 -0.1971 -0.4171
16101SOL    HW149137   4.244   3.378   7.222  1.8776 -2.3624 -0.0065
16101SOL    HW249138   4.387   3.420   7.200  1.0053  1.0534  0.3267
16102SOL     OW49139   1.791   2.234   6.124 -0.0310  0.4759  0.1178
16102SOL    HW149140   1.713   2.187   6.094  0.0498  0.7095 -0.4720
16102SOL    HW249141   1.757   2.317   6.159 -0.2002 -0.1174  1.4103
16103SOL     OW49142   5.136   5.322   7.031  0.0153  0.0455  0.9147
16103SOL    HW149143   5.132   5.317   7.126 -2.6104  2.7385  1.0847
16103SOL    HW249144   5.059   5.274   7.000  1.8177 -2.4226 -0.0807
16104SOL     OW49145   7.241   1.240   0.987  0.1895 -0.2383 -0.0786
16104SOL    HW149146   7.173   1.291   1.030 -0.1630 -0.0371 -0.8630
16104SOL    HW249147   7.200   1.156   0.967  0.8913 -1.0453  1.5967
16105SOL     OW49148   2.663   2.749   6.680  0.2749 -0.3415  0.1032
16105SOL    HW149149   2.572   2.757   6.653  0.9080 -0.9373 -2.5407
16105SOL    HW249150   2.662   2.764   6.774 -2.7989 -2.1390  0.4975
16106SOL     OW49151   6.953   6.792   7.534 -0.2490  0.1031 -0.1161
16106SOL    HW149152   6.915   6.713   7.574  0.5748 -0.2922 -0.0860
16106SOL    HW249153   6.913   6.797   7.448 -1.6738  0.6777  0.5449
16107SOL     OW49154   0.897   6.498   4.184  0.3408  0.5257  0.1147
16107SOL    HW149155   0.828   6.499   4.250  0.8771 -1.7805  0.8035
16107SOL    HW249156   0.853   6.469   4.104  0.4816 -1.0742  0.5860
16108SOL     OW49157   2.534   1.035   6.030 -0.0806  0.3505 -0.6854
16108SOL    HW149158   2.452   1.035   6.080 -1.0824  0.9025 -2.2419
16108SOL    HW249159   2.531   1.117   5.980  0.1763 -0.8105 -2.6979
16109SOL     OW49160   7.026   4.664   1.316 -0.1353  0.4388  0.2697
16109SOL    HW149161   6.956   4.701   1.261  1.0402 -0.0295 -1.6606
16109SOL    HW249162   7.101   4.721   1.301  0.3762 -0.0267  0.9863
16110SOL     OW49163   4.118   7.122   2.333  0.4065  0.4608  0.5826
16110SOL    HW149164   4.171   7.152   2.408  0.7563 -0.2367  0.6275
16110SOL    HW249165   4.179   7.122   2.260  0.7378 -1.2379  0.8286
16111SOL     OW49166   1.204   6.007   4.226  0.4326 -0.1313  0.3952
16111SOL    HW149167   1.187   5.914   4.237  0.0485  0.1283  2.2819
16111SOL    HW249168   1.299   6.015   4.225  0.4735 -0.5754 -0.3940
16112SOL     OW49169   3.341   5.914   6.801 -0.5138 -1.1759  0.1810
16112SOL    HW149170   3.378   5.928   6.713 -0.8028  2.0875  0.4809
16112SOL    HW249171   3.414   5.931   6.860 -0.6866 -1.9578  0.6318
16113SOL     OW49172   3.204   4.544   1.634  0.4334  0.1822  0.0208
16113SOL    HW149173   3.167   4.485   1.700  2.0934  0.1500  0.9767
16113SOL    HW249174   3.158   4.627   1.648 -0.2671 -0.2310  0.2197
16114SOL     OW49175   1.980   1.107   5.048 -0.2108  0.2790  0.2992
16114SOL    HW149176   1.981   1.032   5.107  0.3781  0.3263  0.3557
16114SOL    HW249177   1.888   1.135   5.046 -0.6558 -1.1292 -0.5991
16115SOL     OW49178   0.915   1.194   1.917 -0.0491 -0.1954 -0.1839
16115SOL    HW149179   0.857   1.240   1.977 -0.1586  0.8032 -1.0306
16115SOL    HW249180   0.993   1.174   1.969 -0.2634  0.3772  0.3663
16116SOL     OW49181   5.862   3.582   0.245  0.4906 -0.5577 -0.8785
16116SOL    HW149182   5.937   3.598   0.302 -0.3665  0.6342 -0.0551
16116SOL    HW249183   5.896   3.522   0.178  3.4164  3.0081 -3.0066
16117SOL     OW49184   3.543   3.786   0.899 -0.0776 -0.4939  0.2428
16117SOL    HW149185   3.568   3.878   0.908 -0.4203 -0.5369  1.9708
16117SOL    HW249186   3.448   3.786   0.908  0.0115 -1.1062  1.4789
16118SOL     OW49187   0.108   1.363   6.723 -0.2948  0.3880  0.5862
16118SOL    HW149188   0.194   1.389   6.755  0.4428  2.3010 -2.5656
16118SOL    HW249189   0.056   1.444   6.723 -0.8193  0.0998 -1.1187
16119SOL     OW49190   3.954   3.966   0.176 -0.1284 -0.3881 -0.1589
16119SOL    HW149191   3.883   3.924   0.225 -1.0987  0.2268 -1.0046
16119SOL    HW249192   3.972   4.046   0.225  0.6917 -1.0174  0.6106
16120SOL     OW49193   0.843   4.494   4.629  0.2582  0.1920  0.4038
16120SOL    HW149194   0.864   4.562   4.565  0.6095 -0.6414 -0.3880
16120SOL    HW249195   0.825   4.542   4.710  0.6812  1.2111 -0.0883
16121SOL     OW49196   5.172   6.376   4.862  0.3264 -0.2408  0.6070
16121SOL    HW149197   5.176   6.430   4.783  3.9088  0.2647  0.9906
16121SOL    HW249198   5.181   6.438   4.935 -0.8445 -0.8972  1.3475
16122SOL     OW49199   1.250   6.323   1.845 -0.3043 -0.2059 -0.4535
16122SOL    HW149200   1.216   6.252   1.789 -0.2407 -1.9075  1.5502
16122SOL    HW249201   1.178   6.386   1.849 -1.3972 -1.4170 -0.2150
16123SOL     OW49202   4.754   4.958   6.378 -0.0718 -0.2078 -0.0909
16123SOL    HW149203   4.757   4.981   6.285  0.1592  0.1427 -0.0003
16123SOL    HW249204   4.710   4.873   6.380  0.5380 -0.5515 -0.5805
16124SOL     OW49205   6.261   7.212   4.205  0.3022 -0.1479  0.2957
16124SOL    HW149206   6.185   7.269   4.217 -0.8090 -1.7818  1.3889
16124SOL    HW249207   6.250   7.177   4.116 -0.7810 -1.1101  0.7850
16125SOL     OW49208   1.173   2.951   1.030  0.3189 -0.4331  0.5381
16125SOL    HW149209   1.141   2.870   1.068  0.9982 -0.0400  2.0476
16125SOL    HW249210   1.126   2.960   0.948  0.4882 -2.5266  0.1604
16126SOL     OW49211   0.789   6.090   3.951  0.0270  0.7188 -0.4048
16126SOL    HW149212   0.767   6.175   3.912  1.6320  1.2679 -0.2158
16126SOL    HW249213   0.874   6.067   3.912  1.0950  0.6886  1.7743
16127SOL     OW49214   4.759   2.119   7.910  0.7660 -0.4665 -0.8131
16127SOL    HW149215   4.702   2.184   7.870  0.5590  0.5929  1.1020
16127SOL    HW249216   4.841   2.166   7.926  0.4599 -0.4783  1.0171
16128SOL     OW49217   7.413   5.770   1.796  0.4316  0.1877  0.2567
16128SOL    HW149218   7.323   5.758   1.827  0.0276  1.7400 -0.2501
16128SOL    HW249219   7.451   5.833   1.857  0.4072  1.3753 -0.9411
16129SOL     OW49220   1.886   5.432   2.744  0.2315 -0.1875 -0.4139
16129SOL    HW149221   1.859   5.498   2.680  0.3661  0.9925  0.6925
16129SOL    HW249222   1.906   5.483   2.823  2.1002 -1.3819 -0.0680
16130SOL     OW49223   7.175   3.003   5.649 -0.0569  0.0431  0.0101
16130SOL    HW149224   7.266   3.010   5.621 -0.1159  0.2680 -0.1271
16130SOL    HW249225   7.178   2.946   5.726  0.1878 -0.0211 -0.0458
16131SOL     OW49226   4.379   1.014   7.578 -0.5797  0.0020  0.3444
16131SOL    HW149227   4.325   0.975   7.647  0.3459 -0.3039  0.9166
16131SOL    HW249228   4.359   1.107   7.582  1.9882  0.5814  3.4492
16132SOL     OW49229   7.282   4.104   7.136 -0.7909 -0.3973 -0.4294
16132SOL    HW149230   7.327   4.177   7.178  0.8885 -2.0532  0.8361
16132SOL    HW249231   7.287   4.124   7.042  0.7751  0.5271 -0.1925
16133SOL     OW49232   3.875   2.468   4.868  0.4067  0.4409  0.0950
16133SOL    HW149233   3.790   2.497   4.901  0.3225  0.5784 -0.2361
16133SOL    HW249234   3.914   2.421   4.941 -0.4275 -0.6012 -0.0985
16134SOL     OW49235   5.041   5.817   7.812  0.1811 -0.0696 -0.3621
16134SOL    HW149236   5.008   5.904   7.834 -2.0260 -1.3587  2.0617
16134SOL    HW249237   5.131   5.816   7.844  0.5299  1.5472 -1.2074
16135SOL     OW49238   2.902   0.018   2.794  0.7044 -0.3837  0.3548
16135SOL    HW149239   2.827   0.020   2.853  0.5711  1.4931  0.1963
16135SOL    HW249240   2.978   0.029   2.852  0.6785 -0.0274  0.3256
16136SOL     OW49241   6.821   5.128   5.313 -0.2485  0.4071 -0.4903
16136SOL    HW149242   6.822   5.222   5.299 -0.9170  0.4413 -0.3584
16136SOL    HW249243   6.800   5.118   5.406 -0.6224  0.1202 -0.6054
16137SOL     OW49244   6.208   3.424   2.606  0.1906 -0.2563 -1.0572
16137SOL    HW149245   6.119   3.389   2.608  0.4561 -0.9336 -0.4880
16137SOL    HW249246   6.198   3.518   2.618 -0.4171 -0.3972 -0.4282
16138SOL     OW49247   5.959   7.303   0.955 -0.3772 -0.0478 -0.2836
16138SOL    HW149248   5.886   7.243   0.938 -0.5980 -0.1373  0.8599
16138SOL    HW249249   5.918   7.388   0.970 -0.3333 -0.2272  1.0077
16139SOL     OW49250   4.478   1.548   4.108 -0.2513  0.6826  0.3128
16139SOL    HW149251   4.491   1.524   4.200 -2.7381 -1.1155  0.3213
16139SOL    HW249252   4.566   1.561   4.073  1.2260 -3.7199  1.7177
16140SOL     OW49253   3.067   2.422   7.112  0.3666 -0.2032 -0.5295
16140SOL    HW149254   3.098   2.479   7.183 -0.8202 -0.6146  0.3402
16140SOL    HW249255   3.031   2.482   7.047  0.8719  0.1382 -0.5066
16141SOL     OW49256   7.187   4.378   3.780  0.4703 -0.3417 -0.2962
16141SOL    HW149257   7.267   4.334   3.811  0.4170 -0.5988 -0.5211
16141SOL    HW249258   7.219   4.458   3.739  0.6195 -0.4816 -0.4560
16142SOL     OW49259   0.530   3.365   4.025 -0.6641  0.5327 -0.2154
16142SOL    HW149260   0.551   3.272   4.031 -0.7253  0.5257 -0.0998
16142SOL    HW249261   0.589   3.399   3.958  0.3666  0.7004  0.7460
16143SOL     OW49262   3.035   5.472   6.667  0.0499 -0.1102 -0.6076
16143SOL    HW149263   2.975   5.517   6.607 -0.3828  1.7953  1.1546
16143SOL    HW249264   3.114   5.527   6.667  0.6567 -0.9533 -0.5828
16144SOL     OW49265   3.638   4.247   6.235 -0.6563  0.0643 -0.2939
16144SOL    HW149266   3.633   4.164   6.189 -0.0438  0.0122 -0.2786
16144SOL    HW249267   3.712   4.293   6.194 -0.7210  0.4217 -0.0194
16145SOL     OW49268   6.917   6.240   6.695  0.4661 -0.2102 -0.5282
16145SOL    HW149269   6.910   6.149   6.666  2.6390 -0.7009  0.2966
16145SOL    HW249270   6.994   6.241   6.752  0.4879  2.1603 -0.5117
16146SOL     OW49271   0.271   1.491   7.373  0.4600 -0.0781 -0.2223
16146SOL    HW149272   0.316   1.574   7.356 -1.4945  1.0508 -0.1448
16146SOL    HW249273   0.192   1.516   7.421 -1.3579 -1.7164 -2.1818
16147SOL     OW49274   5.522   1.951   3.490  0.1376 -0.5326 -0.0160
16147SOL    HW149275   5.613   1.960   3.516 -0.2024  2.7264  0.4583
16147SOL    HW249276   5.520   1.981   3.399 -0.2670 -2.0284 -0.5235
16148SOL     OW49277   3.335   4.886   1.350 -0.1491  0.3485  0.4436
16148SOL    HW149278   3.350   4.801   1.310 -0.5018  0.0852  0.8623
16148SOL    HW249279   3.400   4.891   1.420  2.0269  1.7677 -1.5478
16149SOL     OW49280   3.161   6.900   7.667  0.4272  0.2067 -0.0442
16149SOL    HW149281   3.081   6.880   7.618  0.9058 -1.7687 -0.1327
16149SOL    HW249282   3.130   6.932   7.751 -0.4916 -0.8288  0.0356
16150SOL     OW49283   3.862   6.515   2.486  0.3433  0.2345  0.2922
16150SOL    HW149284   3.844   6.560   2.569  1.7620  0.6714  0.3914
16150SOL    HW249285   3.914   6.578   2.436  0.5480 -0.5050 -0.4341
16151SOL     OW49286   1.981   7.361   6.703  0.1068 -0.3063  0.0459
16151SOL    HW149287   1.928   7.320   6.771  1.0545 -2.6691 -0.5523
16151SOL    HW249288   2.071   7.347   6.729  0.4800 -0.5215 -1.2637
16152SOL     OW49289   1.899   2.404   2.126  0.0322 -0.6395  0.0656
16152SOL    HW149290   1.808   2.386   2.149 -0.3880 -0.5005 -1.3439
16152SOL    HW249291   1.925   2.475   2.184  0.0752 -2.3236  2.1982
16153SOL     OW49292   7.606   6.329   2.108 -0.2614  0.3416  0.1624
16153SOL    HW149293   7.511   6.339   2.116 -0.4221 -1.3732  0.7921
16153SOL    HW249294   7.617   6.273   2.031  0.1868 -0.1392  0.5719
16154SOL     OW49295   6.052   3.470   4.421  0.1382  0.0938 -0.7573
16154SOL    HW149296   5.999   3.545   4.394  1.4216  1.2386 -0.2495
16154SOL    HW249297   6.020   3.447   4.508  0.9493  1.2776 -0.1243
16155SOL     OW49298   4.138   2.554   1.796  0.2886 -0.7824  0.3815
16155SOL    HW149299   4.193   2.617   1.749 -0.2265 -0.7711 -0.2136
16155SOL    HW249300   4.162   2.469   1.758 -1.3305 -0.6085 -1.1296
16156SOL     OW49301   4.629   1.059   5.271  0.4713  0.0065 -0.0003
16156SOL    HW149302   4.675   0.986   5.229  1.2333 -0.7669  2.0347
16156SOL    HW249303   4.618   1.124   5.201  0.1589 -1.8390 -1.7679
16157SOL     OW49304   5.038   0.934   1.629 -0.1903 -0.3934  0.7897
16157SOL    HW149305   5.086   0.955   1.709  0.3730 -0.9318  0.6038
16157SOL    HW249306   5.095   0.965   1.558  0.1652 -1.5353  0.5501
16158SOL     OW49307   6.397   7.379   2.499  0.7701 -0.2274  0.0711
16158SOL    HW149308   6.460   7.307   2.509  1.9921  0.4674 -2.0300
16158SOL    HW249309   6.316   7.336   2.471  0.4393 -1.0670  2.1264
16159SOL     OW49310   0.815   4.562   0.309 -0.1698 -0.7263  0.0943
16159SOL    HW149311   0.811   4.569   0.404 -0.0049 -1.1445  0.1327
16159SOL    HW249312   0.858   4.643   0.281 -0.7373 -0.3358  0.3271
16160SOL     OW49313   5.625   0.501   3.570 -0.0269  0.3089 -0.4051
16160SOL    HW149314   5.612   0.414   3.534 -0.8111  1.1362 -2.3041
16160SOL    HW249315   5.567   0.506   3.645  0.5271 -0.9994  0.1385
16161SOL     OW49316   5.044   2.991   5.680  0.5732 -0.6256  0.2765
16161SOL    HW149317   5.087   3.076   5.688 -0.5777 -0.0110  0.1263
16161SOL    HW249318   5.086   2.950   5.605  1.7754 -0.5979  0.8899
16162SOL     OW49319   0.666   7.003   5.102 -0.2897 -0.3413 -0.3428
16162SOL    HW149320   0.597   6.946   5.067 -0.9192  0.5961 -0.6677
16162SOL    HW249321   0.657   6.995   5.197 -1.3317  0.3209 -0.3711
16163SOL     OW49322   6.119   6.532   5.236  0.1976  0.1349  0.2537
16163SOL    HW149323   6.213   6.533   5.253  0.2301  0.2988  0.0757
16163SOL    HW249324   6.106   6.602   5.171 -0.1333  0.5146  0.7218
16164SOL     OW49325   4.219   0.472   4.318 -0.2296  0.2715 -0.2573
16164SOL    HW149326   4.220   0.529   4.395 -1.1000 -1.4731  1.1275
16164SOL    HW249327   4.190   0.387   4.352  3.0581 -1.6557 -1.7939
16165SOL     OW49328   7.299   3.382   6.076  0.2278  0.4069  0.1830
16165SOL    HW149329   7.312   3.306   6.020 -0.8969  0.6474 -0.4371
16165SOL    HW249330   7.232   3.355   6.140 -1.5642  1.3861 -1.1722
16166SOL     OW49331   0.389   6.021   2.912  0.0776  0.1632  0.0258
16166SOL    HW149332   0.338   5.992   2.987 -0.5050 -0.7073 -0.6834
16166SOL    HW249333   0.335   6.088   2.871 -0.5213 -0.7471 -0.7160
16167SOL     OW49334   0.263   7.787   5.914 -0.6870  0.3150  0.0993
16167SOL    HW149335   0.255   7.711   5.856 -1.4848 -0.5466  1.2955
16167SOL    HW249336   0.305   7.753   5.993 -0.3784  1.2889  0.3749
16168SOL     OW49337   2.367   0.297   3.366 -0.7543  0.3441  0.7497
16168SOL    HW149338   2.357   0.203   3.381  2.0506 -0.2294 -0.3949
16168SOL    HW249339   2.279   0.328   3.345 -1.8109 -1.9273  1.5277
16169SOL     OW49340   4.584   4.492   6.737 -0.8258 -0.5596 -0.4410
16169SOL    HW149341   4.517   4.424   6.735 -0.5973 -0.7708 -1.5629
16169SOL    HW249342   4.664   4.445   6.762 -0.8571 -0.5253 -0.2758
16170SOL     OW49343   7.214   4.966   7.464  0.0486 -0.6921  0.6598
16170SOL    HW149344   7.270   4.905   7.416 -0.9812 -0.4974 -0.8489
16170SOL    HW249345   7.227   5.050   7.421 -2.1811 -0.8526 -0.5072
16171SOL     OW49346   6.022   3.486   3.525 -0.2094 -0.2236 -0.6115
16171SOL    HW149347   5.946   3.543   3.522 -0.2311 -0.2715 -1.0468
16171SOL    HW249348   6.095   3.541   3.498 -0.2115 -0.3660 -0.9146
16172SOL     OW49349   0.675   1.682   5.260 -0.2679 -0.0921  0.3834
16172SOL    HW149350   0.733   1.612   5.291 -0.4940 -0.0468  0.9222
16172SOL    HW249351   0.722   1.721   5.187  2.1131  2.2448  2.8912
16173SOL     OW49352   6.042   5.243   6.055 -0.0747 -0.6196 -0.0936
16173SOL    HW149353   5.956   5.285   6.054 -0.4779 -1.4317 -0.7945
16173SOL    HW249354   6.047   5.200   6.141 -0.7679 -1.3513 -0.4060
16174SOL     OW49355   2.841   2.907   5.930  0.2246 -0.2786 -0.8124
16174SOL    HW149356   2.796   2.829   5.960 -1.5649  0.4090 -1.5518
16174SOL    HW249357   2.919   2.875   5.884 -0.0620 -1.5663 -0.4158
16175SOL     OW49358   6.621   3.847   3.768  0.3039  0.2791  0.3051
16175SOL    HW149359   6.670   3.765   3.779  0.2102 -0.1556 -1.9588
16175SOL    HW249360   6.626   3.865   3.674 -0.8268  2.1738  0.5559
16176SOL     OW49361   7.216   7.541   4.134 -0.1411  0.3407  0.2639
16176SOL    HW149362   7.222   7.466   4.193  2.9807  1.1820  1.2077
16176SOL    HW249363   7.276   7.521   4.063  1.0592  2.0612  0.7351
16177SOL     OW49364   0.250   3.567   1.555  0.0425  0.5570 -0.1375
16177SOL    HW149365   0.176   3.544   1.498  2.5982  1.0895 -4.0444
16177SOL    HW249366   0.255   3.495   1.618 -0.8135 -2.1484 -2.9174
16178SOL     OW49367   0.018   1.342   3.886  0.0497 -0.1642  0.5635
16178SOL    HW149368  -0.000   1.311   3.797 -0.0399  0.4418  0.3709
16178SOL    HW249369  -0.021   1.275   3.943 -2.0978  0.6968  0.1632
16179SOL     OW49370   5.104   1.362   0.800 -0.2846  0.1284 -0.3576
16179SOL    HW149371   5.167   1.337   0.731  2.5343  1.9599  1.3271
16179SOL    HW249372   5.104   1.287   0.860  1.1666  0.4666  0.1212
16180SOL     OW49373   5.039   7.087   0.114  0.1173 -0.2209  0.0357
16180SOL    HW149374   4.946   7.066   0.110  0.0665 -0.4087  1.4431
16180SOL    HW249375   5.074   7.058   0.031 -1.2072  0.5097 -0.8215
16181SOL     OW49376   5.949   5.463   6.717  0.2923  0.3071  0.0783
16181SOL    HW149377   6.028   5.409   6.716  0.0395 -0.1238  1.2947
16181SOL    HW249378   5.981   5.552   6.730  0.5594  0.0291  1.4836
16182SOL     OW49379   3.499   3.202   1.950 -0.9327 -0.0101 -0.2097
16182SOL    HW149380   3.512   3.269   2.017 -2.4155 -0.5876  0.7156
16182SOL    HW249381   3.465   3.126   1.998 -0.8367 -0.8674 -1.4466
16183SOL     OW49382   1.840   3.726   6.095  0.3592 -0.8114  0.6970
16183SOL    HW149383   1.760   3.756   6.139 -0.6680  0.0004 -1.5609
16183SOL    HW249384   1.828   3.631   6.086 -0.6526 -0.6215 -0.1310
16184SOL     OW49385   0.819   6.689   1.181 -0.0086 -0.0823 -0.2080
16184SOL    HW149386   0.736   6.652   1.153 -0.0900 -1.9996  2.2165
16184SOL    HW249387   0.876   6.683   1.104 -2.3359  2.4576 -2.3279
16185SOL     OW49388   5.044   6.464   1.821  0.2743  0.0800 -0.1368
16185SOL    HW149389   5.115   6.494   1.879  0.7977 -1.1871 -0.0927
16185SOL    HW249390   4.966   6.506   1.855  0.5349 -0.8071  1.6634
16186SOL     OW49391   6.001   0.877   2.367  0.2035 -0.4768  0.1517
16186SOL    HW149392   5.959   0.802   2.408  0.1653 -1.3529 -1.4335
16186SOL    HW249393   6.037   0.927   2.440  0.5407 -2.2086  1.2247
16187SOL     OW49394   5.759   5.801   1.996  0.0331  0.2896 -0.3235
16187SOL    HW149395   5.730   5.880   2.042 -1.5856  0.2606 -1.2093
16187SOL    HW249396   5.759   5.733   2.064 -0.1126  0.7177  0.1134
16188SOL     OW49397   0.772   6.037   4.508  0.2590  0.3395  0.2459
16188SOL    HW149398   0.821   5.986   4.443 -1.5733 -1.6207  0.2856
16188SOL    HW249399   0.736   6.111   4.458  0.8663  0.2017 -0.4152
16189SOL     OW49400   1.395   6.889   5.034 -0.3092  0.3574 -0.4715
16189SOL    HW149401   1.357   6.916   4.951  0.7265  0.2283 -0.9929
16189SOL    HW249402   1.473   6.944   5.045  0.1284 -0.3244 -0.0836
16190SOL     OW49403   0.468   7.726   6.073  0.3924  0.0953 -0.5111
16190SOL    HW149404   0.473   7.706   6.166 -1.4715 -2.1019 -0.8051
16190SOL    HW249405   0.554   7.761   6.051  1.5917 -1.3300  1.6100
16191SOL     OW49406   1.761   7.893   7.101  0.7670 -0.3389 -0.1141
16191SOL    HW149407   1.761   7.918   7.193 -0.8347 -0.7906  0.0367
16191SOL    HW249408   1.675   7.919   7.069  0.7215 -1.5780 -1.0819
16192SOL     OW49409   5.649   5.328   6.512 -0.3818 -0.5971  0.0050
16192SOL    HW149410   5.681   5.272   6.442  1.0245  0.7345 -0.4636
16192SOL    HW249411   5.575   5.375   6.473 -0.3242 -0.7029 -0.2336
16193SOL     OW49412   4.594   2.003   6.602 -0.2424  1.0501 -0.3071
16193SOL    HW149413   4.606   2.062   6.527  1.6228 -0.1533 -1.0284
16193SOL    HW249414   4.658   2.034   6.666 -1.1765  1.4786  0.4454
16194SOL     OW49415   4.408   7.674   7.437 -0.6554 -0.2467  0.2424
16194SOL    HW149416   4.497   7.706   7.456 -0.7744 -0.4862  1.2858
16194SOL    HW249417   4.356   7.753   7.427 -0.0100 -0.0614 -2.1530
16195SOL     OW49418   5.715   6.708   6.725  0.3917  0.3833 -0.6014
16195SOL    HW149419   5.720   6.704   6.630  0.9668  1.5895 -0.6404
16195SOL    HW249420   5.673   6.792   6.744  3.0699  1.6530  0.2086
16196SOL     OW49421   4.486   0.823   0.921  0.1360  0.0084  0.0482
16196SOL    HW149422   4.536   0.776   0.987 -0.0472 -1.5765 -0.8908
16196SOL    HW249423   4.550   0.879   0.877  0.3814  0.5918  1.1118
16197SOL     OW49424   0.830   0.215   5.383  0.3799 -0.1105  0.7423
16197SOL    HW149425   0.750   0.262   5.360 -0.5088 -1.9826 -0.1869
16197SOL    HW249426   0.825   0.204   5.478  1.0326  2.3090  1.1283
16198SOL     OW49427   5.445   0.366   6.893  0.3219  0.0294  0.4052
16198SOL    HW149428   5.383   0.348   6.964  1.6362 -1.1527  1.2898
16198SOL    HW249429   5.402   0.331   6.814 -0.2645 -0.4751  0.9402
16199SOL     OW49430   3.098   0.183   1.075 -0.0511 -0.0171  0.2183
16199SOL    HW149431   3.124   0.174   0.984 -0.8671 -1.8743  0.1234
16199SOL    HW249432   3.036   0.256   1.075 -0.3320 -0.2416 -0.7725
16200SOL     OW49433   2.649   6.811   1.351  0.0322  0.7030  0.0483
16200SOL    HW149434   2.572   6.809   1.295 -0.3586  0.2706  0.5909
16200SOL    HW249435   2.615   6.829   1.439  0.6750  1.8250  0.1010
16201SOL     OW49436   7.671   2.997   4.878 -0.7690 -0.0478 -0.2102
16201SOL    HW149437   7.653   3.090   4.865 -1.1589 -0.0619  0.1934
16201SOL    HW249438   7.672   2.960   4.790 -1.2705  0.2246 -0.3338
16202SOL     OW49439   2.519   6.596   5.004 -0.4707 -0.1803  0.3004
16202SOL    HW149440   2.584   6.590   4.934  0.2176  1.3112  0.7873
16202SOL    HW249441   2.486   6.686   5.000 -1.4122 -0.4678  1.0326
16203SOL     OW49442   7.035   5.428   0.520 -0.4390  0.1642  0.5380
16203SOL    HW149443   7.105   5.465   0.466 -0.0630 -1.2255  0.0261
16203SOL    HW249444   6.982   5.378   0.459 -1.8541  1.1054  0.9394
16204SOL     OW49445   7.900   3.784   2.331 -0.8815  0.0568 -0.4080
16204SOL    HW149446   7.872   3.795   2.422  2.2332  0.3152  0.6233
16204SOL    HW249447   7.877   3.867   2.289 -0.0873  0.9275  0.8173
16205SOL     OW49448   5.781   1.461   4.059  0.7598  0.0349  0.0748
16205SOL    HW149449   5.865   1.452   4.016 -0.7413 -0.1241 -3.0770
16205SOL    HW249450   5.802   1.497   4.145  3.9406  0.8143 -0.8975
16206SOL     OW49451   3.455   4.152   5.743  0.3320  0.2295 -0.1037
16206SOL    HW149452   3.382   4.195   5.788  0.6290  2.2274 -1.4152
16206SOL    HW249453   3.417   4.072   5.706 -0.8662  0.5803  0.3425
16207SOL     OW49454   2.861   2.199   5.799  0.4721  0.3762  0.1819
16207SOL    HW149455   2.955   2.213   5.794  0.8987 -2.3132 -0.5435
16207SOL    HW249456   2.848   2.107   5.775 -2.6751  1.5353 -3.6691
16208SOL     OW49457   1.996   3.591   2.389 -0.8809 -0.2959 -0.2352
16208SOL    HW149458   2.080   3.550   2.409 -1.3458 -1.4986 -0.6885
16208SOL    HW249459   1.934   3.551   2.451 -1.6489 -1.4931 -1.7173
16209SOL     OW49460   4.163   4.727   3.841  0.7232  0.5962 -0.1897
16209SOL    HW149461   4.189   4.667   3.910  2.1302  1.9667  0.5438
16209SOL    HW249462   4.244   4.745   3.793  0.2357  1.4762 -0.7167
16210SOL     OW49463   4.559   7.756   5.678  0.4874 -0.0358 -1.0458
16210SOL    HW149464   4.497   7.826   5.698  0.5001 -0.6312  1.4484
16210SOL    HW249465   4.509   7.675   5.692  1.8684 -0.5429  1.6883
16211SOL     OW49466   1.143   2.304   7.558 -0.1040 -0.3324  0.1657
16211SOL    HW149467   1.235   2.325   7.547  0.5758 -2.3476  1.4541
16211SOL    HW249468   1.099   2.389   7.567  1.8416  0.6358  1.0556
16212SOL     OW49469   2.160   7.050   4.148 -0.1158  0.2495  0.2799
16212SOL    HW149470   2.171   7.068   4.241  1.7227  1.0392 -0.0470
16212SOL    HW249471   2.213   6.972   4.131 -0.4762  0.0819 -0.0874
16213SOL     OW49472   2.977   7.649   2.910  0.1280  0.3426  0.0349
16213SOL    HW149473   2.940   7.633   2.997  0.5356 -0.0556  0.1422
16213SOL    HW249474   3.005   7.741   2.913 -0.1378  0.4173  0.2221
16214SOL     OW49475   1.346   2.468   3.591 -0.0394  0.0372 -0.0410
16214SOL    HW149476   1.352   2.545   3.535  0.5767 -0.4283 -0.6185
16214SOL    HW249477   1.321   2.503   3.677  0.5253  0.9159 -0.2233
16215SOL     OW49478   5.971   3.070   0.623 -0.7775  0.3035  0.3846
16215SOL    HW149479   5.939   3.026   0.702 -0.4911 -0.4368  0.0974
16215SOL    HW249480   5.977   3.162   0.648  1.3392 -0.1889  1.9196
16216SOL     OW49481   3.262   6.116   2.958  0.8988 -0.0495 -0.1778
16216SOL    HW149482   3.182   6.163   2.982  0.2310 -0.5275 -1.3478
16216SOL    HW249483   3.248   6.028   2.991  1.3272  0.0793  0.3607
16217SOL     OW49484   3.353   7.108   3.512 -0.0166 -0.2758  0.1857
16217SOL    HW149485   3.419   7.082   3.576  0.5315  2.3413  0.8063
16217SOL    HW249486   3.339   7.202   3.529 -2.1307 -0.2095 -1.5156
16218SOL     OW49487   0.656   1.654   6.503 -0.3861 -0.1568 -0.2032
16218SOL    HW149488   0.631   1.569   6.541  2.2615 -0.9824 -0.1029
16218SOL    HW249489   0.729   1.633   6.445  0.1374  2.0560 -0.4010
16219SOL     OW49490   1.669   1.084   0.558 -0.0928  0.0894 -0.6262
16219SOL    HW149491   1.632   1.034   0.485 -1.4736 -0.1304  0.2019
16219SOL    HW249492   1.599   1.143   0.585  0.8397  1.0693 -0.2789
16220SOL     OW49493   2.320   7.579   7.397 -0.5106 -0.1754  0.0679
16220SOL    HW149494   2.237   7.594   7.353 -1.1960  0.8619  1.6235
16220SOL    HW249495   2.384   7.629   7.347 -1.4503  1.8262  0.7714
16221SOL     OW49496   3.675   2.168   3.389  0.1467 -0.3728  0.1731
16221SOL    HW149497   3.622   2.246   3.374 -1.2572 -1.3043  0.0967
16221SOL    HW249498   3.641   2.104   3.327  1.5239 -0.9464 -0.0217
16222SOL     OW49499   4.337   4.315   6.752 -0.0157 -0.0999  0.2609
16222SOL    HW149500   4.305   4.230   6.783 -0.1395  0.0486  0.5353
16222SOL    HW249501   4.259   4.369   6.745  0.0476 -0.0416 -0.0325
16223SOL     OW49502   0.951   7.066   4.734 -0.2039  0.1354  0.2879
16223SOL    HW149503   0.921   7.108   4.814  1.4389  1.7350  0.1366
16223SOL    HW249504   1.047   7.073   4.738 -0.0551 -0.4756 -1.4215
16224SOL     OW49505   4.427   7.829   2.119  0.6141 -0.2231  0.5566
16224SOL    HW149506   4.498   7.789   2.068  1.0203 -2.0586  2.4322
16224SOL    HW249507   4.363   7.759   2.129 -0.1068  0.5352  1.3906
16225SOL     OW49508   7.400   6.017   5.613 -0.2236  0.2161 -0.5039
16225SOL    HW149509   7.406   5.948   5.546  0.3233 -1.0638  0.8172
16225SOL    HW249510   7.447   6.091   5.575 -0.0070 -0.4458 -1.5722
16226SOL     OW49511   3.015   4.754   0.748 -0.8107 -0.7838 -0.3203
16226SOL    HW149512   3.069   4.691   0.795 -2.5924 -1.2627  1.1940
16226SOL    HW249513   3.033   4.838   0.790 -1.7896 -1.0770  0.7411
16227SOL     OW49514   0.558   4.232   1.005 -0.5552  0.1585 -0.1055
16227SOL    HW149515   0.519   4.164   0.950 -0.1066  0.0771 -0.3255
16227SOL    HW249516   0.533   4.207   1.094 -0.3722 -0.3104 -0.1815
16228SOL     OW49517   4.751   3.766   1.928  0.2756  0.4852  0.2311
16228SOL    HW149518   4.700   3.738   2.004  1.7529 -0.1134  1.0433
16228SOL    HW249519   4.779   3.855   1.951  0.1385  0.5700  0.0701
16229SOL     OW49520   1.593   6.137   3.853  0.0601 -0.4362 -0.5873
16229SOL    HW149521   1.537   6.134   3.930  0.6957  0.4137 -0.0794
16229SOL    HW249522   1.620   6.046   3.840 -0.8367 -0.7455 -0.4149
16230SOL     OW49523   6.069   7.737   5.929 -0.3431 -0.4070 -0.0344
16230SOL    HW149524   6.066   7.667   5.994 -0.5390 -1.3067 -0.9872
16230SOL    HW249525   6.153   7.725   5.885 -0.4328 -0.1239 -0.2837
16231SOL     OW49526   7.701   2.519   0.209  0.2069  0.1678 -0.0435
16231SOL    HW149527   7.623   2.516   0.264  0.7053 -0.0737  0.6665
16231SOL    HW249528   7.771   2.489   0.266  1.0116  1.3880 -0.3592
16232SOL     OW49529   4.061   1.727   7.503  0.1722 -0.3593 -0.1720
16232SOL    HW149530   4.071   1.815   7.465 -3.2473  1.6397  2.8113
16232SOL    HW249531   3.970   1.703   7.482  0.4558 -2.3499  0.6743
16233SOL     OW49532   1.078   0.851   1.894 -0.0337  0.0186 -0.2960
16233SOL    HW149533   1.080   0.923   1.957  0.1428  0.3110 -0.6350
16233SOL    HW249534   1.059   0.893   1.810 -0.1246 -0.3535 -0.4644
16234SOL     OW49535   4.603   7.582   0.302 -0.0083 -0.0023  0.0798
16234SOL    HW149536   4.534   7.610   0.242  0.4511 -0.0184 -0.4641
16234SOL    HW249537   4.557   7.557   0.382 -0.5393  1.1465  0.1557
16235SOL     OW49538   1.210   6.312   7.399 -0.0432  0.5555 -0.3034
16235SOL    HW149539   1.173   6.390   7.358 -0.4737  0.3114 -0.3882
16235SOL    HW249540   1.304   6.325   7.395 -0.1179  1.1764 -0.1100
16236SOL     OW49541   2.451   6.353   0.574 -0.0182  0.4916 -0.4148
16236SOL    HW149542   2.509   6.296   0.625  0.3549  1.9768  0.8650
16236SOL    HW249543   2.493   6.438   0.575 -1.0246  1.0330 -1.5517
16237SOL     OW49544   4.218   4.873   2.578 -0.1515  0.5976 -0.6766
16237SOL    HW149545   4.297   4.919   2.549  0.5856  0.6405  1.2585
16237SOL    HW249546   4.152   4.942   2.587  0.2299  0.9139 -0.2222
16238SOL     OW49547   5.306   6.163   2.887 -0.6293 -0.0962  0.7304
16238SOL    HW149548   5.372   6.203   2.943 -2.0111  1.6898  1.1931
16238SOL    HW249549   5.356   6.110   2.824  1.0711 -0.5278  2.3648
16239SOL     OW49550   0.341   2.561   5.623  0.4153  0.4570  0.2114
16239SOL    HW149551   0.300   2.525   5.544 -1.4675  2.3775  0.2091
16239SOL    HW249552   0.362   2.652   5.599 -0.2012  1.0863  1.8962
16240SOL     OW49553   6.904   7.217   0.789 -0.1009 -0.4879  0.3195
16240SOL    HW149554   6.900   7.213   0.885  2.5707 -1.8882  0.4696
16240SOL    HW249555   6.995   7.197   0.768 -0.7804 -1.0121 -2.5770
16241SOL     OW49556   6.477   0.426   6.851 -0.0638 -0.1401  0.2542
16241SOL    HW149557   6.556   0.440   6.798 -0.1137 -1.5021 -0.2094
16241SOL    HW249558   6.439   0.514   6.861 -0.7264  0.0602 -3.0041
16242SOL     OW49559   6.340   6.674   3.962 -0.4662 -0.4391  0.3946
16242SOL    HW149560   6.281   6.608   3.997 -0.8328 -0.5291 -0.3765
16242SOL    HW249561   6.424   6.630   3.955  0.0096  0.0175  2.5763
16243SOL     OW49562   5.484   3.906   7.295  0.3124 -0.2564  0.0849
16243SOL    HW149563   5.421   3.840   7.268  2.3780 -1.3316 -2.6193
16243SOL    HW249564   5.489   3.966   7.220 -0.3389  2.1265  1.8391
16244SOL     OW49565   7.180   3.958   1.702 -0.5282  0.1692 -0.0006
16244SOL    HW149566   7.228   3.881   1.733 -1.7522 -1.3598 -1.6893
16244SOL    HW249567   7.111   3.971   1.768 -0.9873 -0.8749 -0.2613
16245SOL     OW49568   4.860   2.540   1.717 -0.2037  0.2706 -0.5027
16245SOL    HW149569   4.931   2.491   1.759  0.3457 -0.5916 -2.3115
16245SOL    HW249570   4.782   2.486   1.730  0.0924 -0.3270 -1.1127
16246SOL     OW49571   2.811   3.826   1.009  0.2963  0.3241  0.5510
16246SOL    HW149572   2.829   3.739   0.974 -1.6868  0.0243  0.1917
16246SOL    HW249573   2.718   3.826   1.029  0.0024  2.7007 -0.4456
16247SOL     OW49574   0.456   7.005   3.067  0.2553  0.1627  0.3459
16247SOL    HW149575   0.473   7.084   3.117  1.0612 -0.7032  1.4721
16247SOL    HW249576   0.452   7.035   2.976 -0.3032  1.6101  0.8153
16248SOL     OW49577   2.044   6.004   2.442  0.8746 -0.1485  0.6761
16248SOL    HW149578   2.032   5.940   2.372  1.4706 -0.5279  0.9166
16248SOL    HW249579   2.139   6.013   2.451  0.8548  1.8958 -0.3708
16249SOL     OW49580   7.658   2.423   6.962 -0.3802 -0.4166  0.4371
16249SOL    HW149581   7.721   2.477   7.010 -1.6885  0.8230  0.8725
16249SOL    HW249582   7.573   2.463   6.983 -1.1065 -0.4560 -2.1055
16250SOL     OW49583   6.064   7.215   6.177 -0.4724  0.0738 -0.2227
16250SOL    HW149584   6.098   7.303   6.160 -0.1614  0.2367  1.1639
16250SOL    HW249585   6.138   7.157   6.160 -0.4847  0.1288 -0.4745
16251SOL     OW49586   3.904   3.472   4.404 -0.0715  0.1333 -0.0907
16251SOL    HW149587   3.966   3.508   4.467 -1.1628  2.1991 -0.0984
16251SOL    HW249588   3.851   3.411   4.455 -0.2400  0.9702  0.7621
16252SOL     OW49589   7.782   6.738   0.642  0.0803 -0.2041  0.3081
16252SOL    HW149590   7.788   6.685   0.721 -0.2650 -1.6688 -0.6197
16252SOL    HW249591   7.853   6.802   0.651  0.3726 -0.6652  1.5477
16253SOL     OW49592   2.350   0.595   5.334 -0.6550  0.1841 -0.2959
16253SOL    HW149593   2.270   0.561   5.294 -0.2978  0.5138 -1.3190
16253SOL    HW249594   2.411   0.605   5.261 -0.0323  0.9522  0.3115
16254NA      NA49595   6.251   3.397   4.374  0.1787  0.1824 -0.3524
16255NA      NA49596   7.799   3.400   4.221  0.2033 -0.0065  0.1011
16256NA      NA49597   4.322   6.114   0.297 -0.0637  0.1983  0.1446
16257NA      NA49598   4.099   1.326   5.376 -0.1482 -0.2496 -0.2225
16258NA      NA49599   3.901   0.682   5.050 -0.2478  0.5379 -0.1518
16259NA      NA49600   4.545   2.743   7.528  0.3074 -0.2603 -0.0771
16260NA      NA49601   7.641   4.544   0.730 -0.2298  0.5464  0.5512
16261NA      NA49602   4.392   3.562   1.086 -0.3388  0.4817  0.5218
16262NA      NA49603   5.506   7.600   4.186 -0.3345 -0.3694  0.0958
16263NA      NA49604   1.602   2.896   1.853 -0.2210 -0.2591  0.3679
16264NA      NA49605   7.003   7.409   0.086 -0.0399  0.0549  0.4306
16265NA      NA49606   7.715   0.694   1.604  0.0847 -0.3745 -0.0552
16266NA      NA49607   5.531   5.884   2.259 -0.2011 -0.2588 -0.4386
16267NA      NA49608   1.316   4.196   4.881 -0.6348  0.4446 -0.2737
16268NA      NA49609   4.779   7.093   5.462 -0.4070 -0.2921  0.2880
16269NA      NA49610   6.177   0.894   1.158 -0.5092  0.3788 -0.3024
16270NA      NA49611   6.266   4.307   0.082 -0.0941  0.3909  0.4384
16271NA      NA49612   1.252   1.404   6.764  0.4824 -0.0342 -0.7813
16272NA      NA49613   3.888   3.456   2.642  0.5452 -0.2391  0.2576
16273NA      NA49614   5.409   2.555   0.394  0.0092 -0.4987  0.1280
16274NA      NA49615   4.867   5.524   4.542 -0.5368 -0.0567  0.2229
16275NA      NA49616   4.191   4.873   0.229  0.2011  0.2872 -0.6063
16276NA      NA49617   0.151   3.738   1.925  0.1119  0.1054 -0.0965
16277NA      NA49618   0.096   6.856   1.750  0.2003  0.1832 -0.0756
16278NA      NA49619   7.200   0.895   3.165 -0.2287  0.6315 -0.0343
16279NA      NA49620   0.436   0.513   6.151  0.0259 -0.3265 -0.1291
16280NA      NA49621   5.684   2.042   0.574 -0.2758 -0.2124 -0.1277
16281NA      NA49622   4.615   7.844   2.839  0.4086  0.4466  0.3659
16282NA      NA49623   6.280   1.083   2.088  0.1463 -0.1277  0.4585
16283NA      NA49624   7.729   6.342   2.283 -0.1913 -0.5400 -0.4016
16284NA      NA49625   6.763   2.263   3.840 -0.3580  0.2345  0.0918
16285NA      NA49626   3.056   7.737   1.847 -0.0578 -0.1383  0.0051
16286NA      NA49627   6.121   6.913   3.378  0.0165  0.2566 -0.3590
16287NA      NA49628   5.037   5.562   0.368  0.3193 -0.5219  0.2556
16288NA      NA49629   3.511   7.927   6.434  0.5284 -0.2978  0.0470
16289NA      NA49630   0.021   4.220   0.331  0.0792  0.2139  0.0260
16290NA      NA49631   5.763   5.812   6.684 -0.3561  0.2072  0.1068
16291NA      NA49632   1.961   3.839   5.954 -0.4273  0.3593  0.1610
16292NA      NA49633   2.154   1.440   5.231  0.4014 -0.0084  0.0090
16293NA      NA49634   6.274   4.022   3.403  0.2029 -0.0744  0.0106
16294NA      NA49635   1.161   1.995   4.182 -0.2933  0.0933 -0.0381
16295NA      NA49636   7.145   1.723   0.593 -0.7275  0.0341 -0.1460
16296NA      NA49637   6.044   3.097   3.293 -0.0931  0.2111 -0.5222
16297NA      NA49638   1.147   4.932   5.641 -0.3854 -0.3225  0.1718
16298NA      NA49639   0.296   1.342   7.237  0.1977 -0.4604  0.6580
16299NA      NA49640   5.615   3.917   0.162  0.3767  0.0079 -0.2105
16300CL      CL49641   5.088   0.806   6.226 -0.2225 -0.1647 -0.0042
16301CL      CL49642   6.540   5.594   7.546 -0.1536 -0.3246 -0.2446
16302CL      CL49643   1.751   1.314   2.543  0.2342 -0.1441 -0.0747
16303CL      CL49644   2.195   1.222   7.871 -0.4536 -0.1481  0.1874
16304CL      CL49645   0.963   2.869   1.818  0.2354 -0.2857  0.1230
16305CL      CL49646   0.023   1.467   1.404  0.2330  0.3169  0.0476
16306CL      CL49647   7.208   0.951   1.382 -0.1431 -0.0169 -0.2970
16307CL      CL49648   5.814   0.262   3.300  0.1226 -0.2022  0.3714
16308CL      CL49649   3.885   6.169   4.372 -0.0816  0.0547 -0.2598
16309CL      CL49650   2.875   3.193   0.512 -0.6053 -0.0537 -0.1997
16310CL      CL49651   1.926   3.317   0.411  0.0309 -0.1770 -0.3830
16311CL      CL49652   3.536   5.487   0.358  0.4676  0.1016 -0.2223
16312CL      CL49653   3.982   3.124   1.627 -0.5187  0.1073  0.1339
16313CL      CL49654   6.362   6.781   0.472  0.0109 -0.1776  0.2676
16314CL      CL49655   5.986   3.600   5.994 -0.0166 -0.4397 -0.2411
16315CL      CL49656   4.844   3.573   0.090 -0.0976  0.0669 -0.2431
16316CL      CL49657   7.115   1.907   2.549  0.4210 -0.1791  0.3406
16317CL      CL49658   6.087   2.305   6.588  0.3664 -0.3306  0.4014
16318CL      CL49659   0.662   7.197   3.474  0.0243  0.6434 -0.1431
16319CL      CL49660   0.892   0.689   6.538  0.1516  0.1409 -0.1363
16320CL      CL49661   2.364   5.864   1.232 -0.1109  0.2859  0.1658
16321CL      CL49662   4.944   0.200   2.649  0.5692 -0.0211 -0.2990
16322CL      CL49663   3.481   5.803   7.106 -0.1178 -0.1214  0.4465
16323CL      CL49664   4.483   3.453   5.234 -0.3259 -0.3763 -0.4756
16324CL      CL49665   7.210   1.782   6.357 -0.4039 -0.1515 -0.2547
16325CL      CL49666   3.587   6.459   5.746  0.0331 -0.3189  0.0840
16326CL      CL49667   4.434   5.803   0.943  0.0799 -0.0009 -0.0598
16327CL      CL49668   1.145   1.647   5.672  0.4771 -0.2960  0.1776
16328CL      CL49669   0.483   3.385   1.104  0.0185  0.0928 -0.0815
16329CL      CL49670   4.154   3.878   7.417  0.0300 -0.2079 -0.1532
16330CL      CL49671   5.000   1.759   4.112  0.4029 -0.1071  0.0489
16331CL      CL49672   0.016   2.395   7.530  0.1317 -0.1653 -0.0339
16332CL      CL49673   7.831   6.776   1.131 -0.0906 -0.1811  0.5574
16333CL      CL49674   5.398   2.815   7.218  0.2985 -0.4362 -0.1389
16334CL      CL49675   0.023   5.718   7.592 -0.0584  0.8671  0.1119
16335CL      CL49676   3.035   4.053   6.006 -0.2257  0.2995 -0.6084
16336CL      CL49677   2.720   5.692   3.777 -0.1701 -0.0353  0.1832
16337CL      CL49678   4.382   6.802   5.338  0.2958 -0.1802 -0.1959
16338CL      CL49679   5.614   3.009   2.708 -0.1520 -0.0399 -0.0432
16339CL      CL49680   4.217   1.784   1.219 -0.0181 -0.0450  0.4721
16340CL      CL49681   5.291   7.673   4.097  0.0776 -0.3780  0.1030
16341CL      CL49682   3.661   3.817   2.583 -0.2018 -0.0399 -0.2058
16342CL      CL49683   0.205   3.079   3.286  0.1733  0.1427 -0.0305
16343CL      CL49684   7.794   0.996   7.455 -0.3210  0.1302 -0.0051
16344CL      CL49685   1.116   4.921   5.890 -0.4176 -0.5658  0.1620
16345CL      CL49686   1.252   7.008   4.780 -0.0659 -0.0473  0.1027
16346CL      CL49687   4.349   2.282   7.462 -0.0453  0.1675 -0.1263
16347CL      CL49688   6.588   6.493   3.993  0.1285  0.0330  0.3685
16348CL      CL49689   0.511   5.169   1.494 -0.2487  0.1115  0.2264
16349CL      CL49690   3.440   0.592   2.851 -0.2023 -0.2893 -0.2731
16350CL      CL49691   4.811   5.341   3.569  0.0643 -0.0578  0.3444
16351CL      CL49692   1.134   2.295   0.944  0.1189 -0.0648 -0.0252
16352CL      CL49693   2.092   0.555   5.201  0.1050  0.2851  0.2386
16353CL      CL49694   0.770   6.103   6.656 -0.0412 -0.1038  0.5724
16354CL      CL49695   2.282   2.308   4.112 -0.2805  0.1254 -0.2207
16355CL      CL49696   5.517   7.454   4.371 -0.2135 -0.0134 -0.1566
16356CL      CL49697   7.391   4.557   1.394 -0.2665 -0.2584  0.3888
16357CL      CL49698   6.454   4.330   3.201 -0.0775 -0.1272  0.0509
16358CL      CL49699   4.142   6.132   0.665  0.0435  0.1386 -0.1354
16359CL      CL49700   2.386   1.806   5.420 -0.1620 -0.2235  0.3074
16360CL      CL49701   5.529   5.105   2.962  0.1678 -0.3837 -0.1831
16361CL      CL49702   4.651   4.764   5.981 -0.3894 -0.2387 -0.1380
16362CL      CL49703   7.010   7.877   6.001  0.1121 -0.2283 -0.0899
16363CL      CL49704   2.466   5.741   7.289  0.2594 -0.0877  0.0323
16364CL      CL49705   2.099   4.850   6.150 -0.2199 -0.3297 -0.4454
16365CL      CL49706   2.989   5.696   6.459  0.1388 -0.0880 -0.3315
16366CL      CL49707   7.401   5.102   5.026 -0.0474  0.3634 -0.1145
16367CL      CL49708   1.747   7.326   0.148  0.1612  0.1295  0.1378
16368CL      CL49709   1.259   1.002   3.917  0.0791  0.1849  0.0158
16369CL      CL49710   2.665   4.069   4.713 -0.2532 -0.1606 -0.1123
   7.94555   7.94555   7.94555
